
                                 *****************
                                 * O   R   C   A *
                                 *****************

                                            #,                                       
                                            ###                                      
                                            ####                                     
                                            #####                                    
                                            ######                                   
                                           ########,                                 
                                     ,,################,,,,,                         
                               ,,#################################,,                 
                          ,,##########################################,,             
                       ,#########################################, ''#####,          
                    ,#############################################,,   '####,        
                  ,##################################################,,,,####,       
                ,###########''''           ''''###############################       
              ,#####''   ,,,,##########,,,,          '''####'''          '####       
            ,##' ,,,,###########################,,,                        '##       
           ' ,,###''''                  '''############,,,                           
         ,,##''                                '''############,,,,        ,,,,,,###''
      ,#''                                            '''#######################'''  
     '                                                          ''''####''''         
             ,#######,   #######,   ,#######,      ##                                
            ,#'     '#,  ##    ##  ,#'     '#,    #''#        ######   ,####,        
            ##       ##  ##   ,#'  ##            #'  '#       #        #'  '#        
            ##       ##  #######   ##           ,######,      #####,   #    #        
            '#,     ,#'  ##    ##  '#,     ,#' ,#      #,         ##   #,  ,#        
             '#######'   ##     ##  '#######'  #'      '#     #####' # '####'        



                  #######################################################
                  #                        -***-                        #
                  #          Department of theory and spectroscopy      #
                  #    Directorship and core code : Frank Neese         #
                  #        Max Planck Institute fuer Kohlenforschung    #
                  #                Kaiser Wilhelm Platz 1               #
                  #                 D-45470 Muelheim/Ruhr               #
                  #                      Germany                        #
                  #                                                     #
                  #                  All rights reserved                #
                  #                        -***-                        #
                  #######################################################


                         Program Version 5.0.2 -  RELEASE  -


 With contributions from (in alphabetic order):
   Daniel Aravena         : Magnetic Suceptibility
   Michael Atanasov       : Ab Initio Ligand Field Theory (pilot matlab implementation)
   Alexander A. Auer      : GIAO ZORA, VPT2 properties, NMR spectrum
   Ute Becker             : Parallelization
   Giovanni Bistoni       : ED, misc. LED, open-shell LED, HFLD
   Martin Brehm           : Molecular dynamics
   Dmytro Bykov           : SCF Hessian
   Vijay G. Chilkuri      : MRCI spin determinant printing, contributions to CSF-ICE
   Dipayan Datta          : RHF DLPNO-CCSD density
   Achintya Kumar Dutta   : EOM-CC, STEOM-CC
   Dmitry Ganyushin       : Spin-Orbit,Spin-Spin,Magnetic field MRCI
   Miquel Garcia          : C-PCM and meta-GGA Hessian, CC/C-PCM, Gaussian charge scheme
   Yang Guo               : DLPNO-NEVPT2, F12-NEVPT2, CIM, IAO-localization
   Andreas Hansen         : Spin unrestricted coupled pair/coupled cluster methods
   Benjamin Helmich-Paris : MC-RPA, TRAH-SCF, COSX integrals
   Lee Huntington         : MR-EOM, pCC
   Robert Izsak           : Overlap fitted RIJCOSX, COSX-SCS-MP3, EOM
   Marcus Kettner         : VPT2
   Christian Kollmar      : KDIIS, OOCD, Brueckner-CCSD(T), CCSD density, CASPT2, CASPT2-K
   Simone Kossmann        : Meta GGA functionals, TD-DFT gradient, OOMP2, MP2 Hessian
   Martin Krupicka        : Initial AUTO-CI
   Lucas Lang             : DCDCAS
   Marvin Lechner         : AUTO-CI (C++ implementation), FIC-MRCC
   Dagmar Lenk            : GEPOL surface, SMD
   Dimitrios Liakos       : Extrapolation schemes; Compound Job, initial MDCI parallelization
   Dimitrios Manganas     : Further ROCIS development; embedding schemes
   Dimitrios Pantazis     : SARC Basis sets
   Anastasios Papadopoulos: AUTO-CI, single reference methods and gradients
   Taras Petrenko         : DFT Hessian,TD-DFT gradient, ASA, ECA, R-Raman, ABS, FL, XAS/XES, NRVS
   Peter Pinski           : DLPNO-MP2, DLPNO-MP2 Gradient
   Christoph Reimann      : Effective Core Potentials
   Marius Retegan         : Local ZFS, SOC
   Christoph Riplinger    : Optimizer, TS searches, QM/MM, DLPNO-CCSD(T), (RO)-DLPNO pert. Triples
   Tobias Risthaus        : Range-separated hybrids, TD-DFT gradient, RPA, STAB
   Michael Roemelt        : Original ROCIS implementation
   Masaaki Saitow         : Open-shell DLPNO-CCSD energy and density
   Barbara Sandhoefer     : DKH picture change effects
   Avijit Sen             : IP-ROCIS
   Kantharuban Sivalingam : CASSCF convergence, NEVPT2, FIC-MRCI
   Bernardo de Souza      : ESD, SOC TD-DFT
   Georgi Stoychev        : AutoAux, RI-MP2 NMR, DLPNO-MP2 response
   Willem Van den Heuvel  : Paramagnetic NMR
   Boris Wezisla          : Elementary symmetry handling
   Frank Wennmohs         : Technical directorship


 We gratefully acknowledge several colleagues who have allowed us to
 interface, adapt or use parts of their codes:
   Stefan Grimme, W. Hujo, H. Kruse, P. Pracht,  : VdW corrections, initial TS optimization,
                  C. Bannwarth, S. Ehlert          DFT functionals, gCP, sTDA/sTD-DF
   Ed Valeev, F. Pavosevic, A. Kumar             : LibInt (2-el integral package), F12 methods
   Garnet Chan, S. Sharma, J. Yang, R. Olivares  : DMRG
   Ulf Ekstrom                                   : XCFun DFT Library
   Mihaly Kallay                                 : mrcc  (arbitrary order and MRCC methods)
   Jiri Pittner, Ondrej Demel                    : Mk-CCSD
   Frank Weinhold                                : gennbo (NPA and NBO analysis)
   Christopher J. Cramer and Donald G. Truhlar   : smd solvation model
   Lars Goerigk                                  : TD-DFT with DH, B97 family of functionals
   V. Asgeirsson, H. Jonsson                     : NEB implementation
   FAccTs GmbH                                   : IRC, NEB, NEB-TS, DLPNO-Multilevel, CI-OPT
                                                   MM, QMMM, 2- and 3-layer-ONIOM, Crystal-QMMM,
                                                   LR-CPCM, SF, NACMEs, symmetry and pop. for TD-DFT,
                                                   nearIR, NL-DFT gradient (VV10), updates on ESD,
                                                   ML-optimized integration grids
   S Lehtola, MJT Oliveira, MAL Marques          : LibXC Library
   Liviu Ungur et al                             : ANISO software


 Your calculation uses the libint2 library for the computation of 2-el integrals
 For citations please refer to: http://libint.valeyev.net

 Your ORCA version has been built with support for libXC version: 5.1.0
 For citations please refer to: https://tddft.org/programs/libxc/

 This ORCA versions uses:
   CBLAS   interface :  Fast vector & matrix operations
   LAPACKE interface :  Fast linear algebra routines
   SCALAPACK package :  Parallel linear algebra routines
   Shared memory     :  Shared parallel matrices
   BLAS/LAPACK       :  OpenBLAS 0.3.15  USE64BITINT DYNAMIC_ARCH NO_AFFINITY SkylakeX SINGLE_THREADED
        Core in use  :  SkylakeX
   Copyright (c) 2011-2014, The OpenBLAS Project


Your calculation utilizes the atom-pairwise dispersion correction
with the Becke-Johnson damping scheme (D3BJ)
Cite in your paper:
S.Grimme, S.Ehrlich, L.Goerigk, J Comput Chem, (2011), 32, 1456–1465 
S.Grimme, J.Antony, S.Ehrlich and H.Krieg, J.Chem.Phys., 132, (2010), 154104 
   

================================================================================

----- Orbital basis set information -----
Your calculation utilizes the basis: def2-TZVP
   F. Weigend and R. Ahlrichs, Phys. Chem. Chem. Phys. 7, 3297 (2005).

----- AuxJ basis set information -----
Your calculation utilizes the auxiliary basis: def2/J
   F. Weigend, Phys. Chem. Chem. Phys. 8, 1057 (2006).

================================================================================
                                        WARNINGS
                       Please study these warnings very carefully!
================================================================================

INFO   : Checking CIS options ...

WARNING: CIS/ROCIS methods need fully converged wavefunctions
  ===> : Setting SCFConvForced true
         You can overwrite this default with %scf ConvForced false 


INFO   : the flag for use of the SHARK integral package has been found!

================================================================================
                                       INPUT FILE
================================================================================
NAME = ox_es1_A_orca0023.inp
|  1> ! engrad PBE0 D3BJ def2-TZVP  
|  2> %pal nprocs 8 end
|  3> %maxcore 3000
|  4> 
|  5> %tddft
|  6>   nroots 1
|  7>   tda true
|  8>   Iroot 1
|  9>   end 
| 10> *xyz 0 1 
| 11> O   0.010173231793361156 0.7291067727357848 -0.07111257547988371
| 12> C   -0.7612182342121263 -0.5010978901807197 0.08435708175362824
| 13> C   0.7729715278474725 -0.44741912206583084 0.07399720694450129
| 14> H   -1.259954514617619 -0.7113350200664131 0.9961324238634829
| 15> H   -1.2368772678157671 -0.7201332177163229 -0.9294931539041804
| 16> H   1.220041907330762 -0.7374108465482169 -0.8736673426234179
| 17> H   1.3592937020235065 -0.738199188690957 0.9481246318345286
| 18> *
| 19> 
| 20>                          ****END OF INPUT****
================================================================================

                     *******************************
                     * Energy+Gradient Calculation *
                     *******************************

---------------------------------
CARTESIAN COORDINATES (ANGSTROEM)
---------------------------------
  O      0.010173    0.729107   -0.071113
  C     -0.761218   -0.501098    0.084357
  C      0.772972   -0.447419    0.073997
  H     -1.259955   -0.711335    0.996132
  H     -1.236877   -0.720133   -0.929493
  H      1.220042   -0.737411   -0.873667
  H      1.359294   -0.738199    0.948125

----------------------------
CARTESIAN COORDINATES (A.U.)
----------------------------
  NO LB      ZA    FRAG     MASS         X           Y           Z
   0 O     8.0000    0    15.999    0.019225    1.377812   -0.134383
   1 C     6.0000    0    12.011   -1.438494   -0.946938    0.159412
   2 C     6.0000    0    12.011    1.460704   -0.845500    0.139834
   3 H     1.0000    0     1.008   -2.380969   -1.344228    1.882417
   4 H     1.0000    0     1.008   -2.337359   -1.360855   -1.756488
   5 H     1.0000    0     1.008    2.305545   -1.393505   -1.650992
   6 H     1.0000    0     1.008    2.568693   -1.394994    1.791696

--------------------------------
INTERNAL COORDINATES (ANGSTROEM)
--------------------------------
 O      0   0   0     0.000000000000     0.00000000     0.00000000
 C      1   0   0     1.460348972269     0.00000000     0.00000000
 C      1   2   0     1.409656437064    64.64589955     0.00000000
 H      2   1   3     1.060316840692   120.46651130   106.22538945
 H      2   1   3     1.141104855524   106.69618901   251.13748526
 H      3   1   2     1.087214432845   110.81821255   106.33011281
 H      3   1   2     1.091982368915   126.52675313   251.62223638

---------------------------
INTERNAL COORDINATES (A.U.)
---------------------------
 O      0   0   0     0.000000000000     0.00000000     0.00000000
 C      1   0   0     2.759659617542     0.00000000     0.00000000
 C      1   2   0     2.663864608971    64.64589955     0.00000000
 H      2   1   3     2.003708444092   120.46651130   106.22538945
 H      2   1   3     2.156375667028   106.69618901   251.13748526
 H      3   1   2     2.054537526924   110.81821255   106.33011281
 H      3   1   2     2.063547620321   126.52675313   251.62223638

---------------------
BASIS SET INFORMATION
---------------------
There are 3 groups of distinct atoms

 Group   1 Type O   : 11s6p2d1f contracted to 5s3p2d1f pattern {62111/411/11/1}
 Group   2 Type C   : 11s6p2d1f contracted to 5s3p2d1f pattern {62111/411/11/1}
 Group   3 Type H   : 5s1p contracted to 3s1p pattern {311/1}

Atom   0O    basis set group =>   1
Atom   1C    basis set group =>   2
Atom   2C    basis set group =>   2
Atom   3H    basis set group =>   3
Atom   4H    basis set group =>   3
Atom   5H    basis set group =>   3
Atom   6H    basis set group =>   3
---------------------------------
AUXILIARY/J BASIS SET INFORMATION
---------------------------------
There are 3 groups of distinct atoms

 Group   1 Type O   : 12s5p4d2f1g contracted to 6s4p3d1f1g pattern {711111/2111/211/2/1}
 Group   2 Type C   : 12s5p4d2f1g contracted to 6s4p3d1f1g pattern {711111/2111/211/2/1}
 Group   3 Type H   : 5s2p1d contracted to 3s1p1d pattern {311/2/1}

Atom   0O    basis set group =>   1
Atom   1C    basis set group =>   2
Atom   2C    basis set group =>   2
Atom   3H    basis set group =>   3
Atom   4H    basis set group =>   3
Atom   5H    basis set group =>   3
Atom   6H    basis set group =>   3

Checking for AutoStart:
The File: ox_es1_A_orca0023.gbw exists
Trying to determine its content:
     ... Fine, the file contains calculation information
     ... Fine, the calculation information was read
     ... Fine, the file contains a basis set
     ... Fine, the basis set was read
     ... Fine, the file contains a geometry
     ... Fine, the geometry was read
     ... Fine, the file contains a set of orbitals
     ... Fine, the orbitals can be read
     => possible old guess file was deleted
     => GBW file was renamed to GES file
     => GES file is set as startup file
     => Guess is set to MORead
     ... now leaving AutoStart



           ************************************************************
           *        Program running with 8 parallel MPI-processes     *
           *              working on a common directory               *
           ************************************************************
------------------------------------------------------------------------------
                           ORCA GTO INTEGRAL CALCULATION
                           -- RI-GTO INTEGRALS CHOSEN --
------------------------------------------------------------------------------
------------------------------------------------------------------------------
                   ___                                                        
                  /   \      - P O W E R E D   B Y -                         
                 /     \                                                     
                 |  |  |   _    _      __       _____    __    __             
                 |  |  |  | |  | |    /  \     |  _  \  |  |  /  |          
                  \  \/   | |  | |   /    \    | | | |  |  | /  /          
                 / \  \   | |__| |  /  /\  \   | |_| |  |  |/  /          
                |  |  |   |  __  | /  /__\  \  |    /   |      \           
                |  |  |   | |  | | |   __   |  |    \   |  |\   \          
                \     /   | |  | | |  |  |  |  | |\  \  |  | \   \       
                 \___/    |_|  |_| |__|  |__|  |_| \__\ |__|  \__/        
                                                                              
                      - O R C A' S   B I G   F R I E N D -                    
                                      &                                       
                       - I N T E G R A L  F E E D E R -                       
                                                                              
 v1 FN, 2020, v2 2021                                                         
------------------------------------------------------------------------------


Reading SHARK input file ox_es1_A_orca0023.SHARKINP.tmp ... ok
----------------------
SHARK INTEGRAL PACKAGE
----------------------

Number of atoms                             ...      7
Number of basis functions                   ...    117
Number of shells                            ...     49
Maximum angular momentum                    ...      3
Integral batch strategy                     ... SHARK/LIBINT Hybrid
RI-J (if used) integral strategy            ... SPLIT-RIJ (Revised 2003 algorithm where possible)
Printlevel                                  ...      1
Contraction scheme used                     ... SEGMENTED contraction
Coulomb Range Separation                    ... NOT USED
Exchange Range Separation                   ... NOT USED
Finite Nucleus Model                        ... NOT USED
Auxiliary Coulomb fitting basis             ... AVAILABLE
   # of basis functions in Aux-J            ...    191
   # of shells in Aux-J                     ...     65
   Maximum angular momentum in Aux-J        ...      4
Auxiliary J/K fitting basis                 ... NOT available
Auxiliary Correlation fitting basis         ... NOT available
Auxiliary 'external' fitting basis          ... NOT available
Integral threshold                          ...     2.500000e-11
Primitive cut-off                           ...     2.500000e-12
Primitive pair pre-selection threshold      ...     2.500000e-12

Calculating pre-screening integrals         ... done (  0.0 sec) Dimension = 49
Organizing shell pair data                  ... done (  0.0 sec)
Shell pair information
Total number of shell pairs                 ...      1225
Shell pairs after pre-screening             ...      1220
Total number of primitive shell pairs       ...      3648
Primitive shell pairs kept                  ...      3145
          la=0 lb=0:    373 shell pairs
          la=1 lb=0:    351 shell pairs
          la=1 lb=1:     91 shell pairs
          la=2 lb=0:    162 shell pairs
          la=2 lb=1:     78 shell pairs
          la=2 lb=2:     21 shell pairs
          la=3 lb=0:     81 shell pairs
          la=3 lb=1:     39 shell pairs
          la=3 lb=2:     18 shell pairs
          la=3 lb=3:      6 shell pairs

Calculating one electron integrals          ... done (  0.0 sec)
Calculating RI/J V-Matrix + Cholesky decomp.... done (  0.0 sec)
Calculating Nuclear repulsion               ... done (  0.0 sec) ENN=     74.262483856341 Eh

SHARK setup successfully completed in   0.1 seconds

Maximum memory used throughout the entire GTOINT-calculation: 14.9 MB


           ************************************************************
           *        Program running with 8 parallel MPI-processes     *
           *              working on a common directory               *
           ************************************************************
-------------------------------------------------------------------------------
                                 ORCA SCF
-------------------------------------------------------------------------------

------------
SCF SETTINGS
------------
Hamiltonian:
 Density Functional     Method          .... DFT(GTOs)
 Exchange Functional    Exchange        .... PBE
   PBE kappa parameter   XKappa         ....  0.804000
   PBE mue parameter    XMuePBE         ....  0.219520
 Correlation Functional Correlation     .... PBE
   PBE beta parameter  CBetaPBE         ....  0.066725
 LDA part of GGA corr.  LDAOpt          .... PW91-LDA
 Gradients option       PostSCFGGA      .... off
 Hybrid DFT is turned on
   Fraction HF Exchange ScalHFX         ....  0.250000
   Scaling of DF-GGA-X  ScalDFX         ....  0.750000
   Scaling of DF-GGA-C  ScalDFC         ....  1.000000
   Scaling of DF-LDA-C  ScalLDAC        ....  1.000000
   Perturbative correction              ....  0.000000
   Density functional embedding theory  .... OFF
   NL short-range parameter             ....  6.900000
 RI-approximation to the Coulomb term is turned on
   Number of AuxJ basis functions       .... 191
   RIJ-COSX (HFX calculated with COS-X)).... on


General Settings:
 Integral files         IntName         .... ox_es1_A_orca0023
 Hartree-Fock type      HFTyp           .... RHF
 Total Charge           Charge          ....    0
 Multiplicity           Mult            ....    1
 Number of Electrons    NEL             ....   24
 Basis Dimension        Dim             ....  117
 Nuclear Repulsion      ENuc            ....     74.2624838563 Eh

Convergence Acceleration:
 DIIS                   CNVDIIS         .... on
   Start iteration      DIISMaxIt       ....    12
   Startup error        DIISStart       ....  0.200000
   # of expansion vecs  DIISMaxEq       ....     5
   Bias factor          DIISBfac        ....   1.050
   Max. coefficient     DIISMaxC        ....  10.000
 Trust-Rad. Augm. Hess. CNVTRAH         .... auto
   Auto Start mean grad. ratio tolernc. ....  1.125000
   Auto Start start iteration           ....     1
   Auto Start num. interpolation iter.  ....    10
   Max. Number of Micro iterations      ....    16
   Max. Number of Macro iterations      .... Maxiter - #DIIS iter
   Number of Davidson start vectors     ....     2
   Converg. threshold I  (grad. norm)   ....   1.000e-05
   Converg. threshold II (energy diff.) ....   1.000e-08
   Grad. Scal. Fac. for Micro threshold ....   0.100
   Minimum threshold for Micro iter.    ....   0.010
   NR start threshold (gradient norm)   ....   0.001
   Initial trust radius                 ....   0.400
   Minimum AH scaling param. (alpha)    ....   1.000
   Maximum AH scaling param. (alpha)    .... 1000.000
   Orbital update algorithm             .... Taylor
   White noise on init. David. guess    .... on
   Maximum white noise                  ....   0.010
   Quad. conv. algorithm                .... NR
 SOSCF                  CNVSOSCF        .... on
   Start iteration      SOSCFMaxIt      ....   150
   Startup grad/error   SOSCFStart      ....  0.003300
 Level Shifting         CNVShift        .... on
   Level shift para.    LevelShift      ....    0.2500
   Turn off err/grad.   ShiftErr        ....    0.0010
 Zerner damping         CNVZerner       .... off
 Static damping         CNVDamp         .... on
   Fraction old density DampFac         ....    0.7000
   Max. Damping (<1)    DampMax         ....    0.9800
   Min. Damping (>=0)   DampMin         ....    0.0000
   Turn off err/grad.   DampErr         ....    0.1000
 Fernandez-Rico         CNVRico         .... off

SCF Procedure:
 Maximum # iterations   MaxIter         ....   125
 SCF integral mode      SCFMode         .... Direct
   Integral package                     .... SHARK and LIBINT hybrid scheme
 Reset frequency        DirectResetFreq ....    20
 Integral Threshold     Thresh          ....  2.500e-11 Eh
 Primitive CutOff       TCut            ....  2.500e-12 Eh

Convergence Tolerance:
 Convergence Check Mode ConvCheckMode   .... Total+1el-Energy
 Convergence forced     ConvForced      .... 1
 Energy Change          TolE            ....  1.000e-08 Eh
 1-El. energy change                    ....  1.000e-05 Eh
 Orbital Gradient       TolG            ....  1.000e-05
 Orbital Rotation angle TolX            ....  1.000e-05
 DIIS Error             TolErr          ....  5.000e-07


Diagonalization of the overlap matrix:
Smallest eigenvalue                        ... 5.939e-04
Time for diagonalization                   ...    0.001 sec
Threshold for overlap eigenvalues          ... 1.000e-08
Number of eigenvalues below threshold      ... 0
Time for construction of square roots      ...    0.001 sec
Total time needed                          ...    0.003 sec

---------------------
INITIAL GUESS: MOREAD
---------------------
Guess MOs are being read from file: ox_es1_A_orca0023.ges
Input Geometry matches current geometry (good)
Input basis set matches current basis set (good)
MOs were renormalized
MOs were reorthogonalized (Cholesky)
                      ------------------
                      INITIAL GUESS DONE (   0.0 sec)
                      ------------------
-------------------
DFT GRID GENERATION
-------------------

General Integration Accuracy     IntAcc      ... 4.388
Radial Grid Type                 RadialGrid  ... OptM3 with GC (2021)
Angular Grid (max. ang.)         AngularGrid ... 4 (Lebedev-302)
Angular grid pruning method      GridPruning ... 4 (adaptive)
Weight generation scheme         WeightScheme... Becke
Basis function cutoff            BFCut       ... 1.0000e-11
Integration weight cutoff        WCut        ... 1.0000e-14
Angular grids for H and He will be reduced by one unit
Partially contracted basis set               ... off
Rotationally invariant grid construction     ... off

Total number of grid points                  ...    31334
Total number of batches                      ...      493
Average number of points per batch           ...       63
Average number of grid points per atom       ...     4476
Time for grid setup =    0.117 sec

--------------------
COSX GRID GENERATION
--------------------

GRIDX 1
-------
General Integration Accuracy     IntAcc      ... 3.816
Radial Grid Type                 RadialGrid  ... OptM3 with GC (2021)
Angular Grid (max. ang.)         AngularGrid ... 1 (Lebedev-50)
Angular grid pruning method      GridPruning ... 4 (adaptive)
Weight generation scheme         WeightScheme... Becke
Basis function cutoff            BFCut       ... 1.0000e-11
Integration weight cutoff        WCut        ... 1.0000e-14
Angular grids for H and He will be reduced by one unit
Partially contracted basis set               ... on
Rotationally invariant grid construction     ... off

Total number of grid points                  ...     4037
Total number of batches                      ...       67
Average number of points per batch           ...       60
Average number of grid points per atom       ...      577
UseSFitting                                  ... on

GRIDX 2
-------
General Integration Accuracy     IntAcc      ... 4.020
Radial Grid Type                 RadialGrid  ... OptM3 with GC (2021)
Angular Grid (max. ang.)         AngularGrid ... 2 (Lebedev-110)
Angular grid pruning method      GridPruning ... 4 (adaptive)
Weight generation scheme         WeightScheme... Becke
Basis function cutoff            BFCut       ... 1.0000e-11
Integration weight cutoff        WCut        ... 1.0000e-14
Angular grids for H and He will be reduced by one unit
Partially contracted basis set               ... on
Rotationally invariant grid construction     ... off

Total number of grid points                  ...     8724
Total number of batches                      ...      140
Average number of points per batch           ...       62
Average number of grid points per atom       ...     1246
UseSFitting                                  ... on

GRIDX 3
-------
General Integration Accuracy     IntAcc      ... 4.338
Radial Grid Type                 RadialGrid  ... OptM3 with GC (2021)
Angular Grid (max. ang.)         AngularGrid ... 3 (Lebedev-194)
Angular grid pruning method      GridPruning ... 4 (adaptive)
Weight generation scheme         WeightScheme... Becke
Basis function cutoff            BFCut       ... 1.0000e-11
Integration weight cutoff        WCut        ... 1.0000e-14
Angular grids for H and He will be reduced by one unit
Partially contracted basis set               ... on
Rotationally invariant grid construction     ... off

Total number of grid points                  ...    19255
Total number of batches                      ...      304
Average number of points per batch           ...       63
Average number of grid points per atom       ...     2751
UseSFitting                                  ... on

Time for X-Grid setup             =    0.072 sec

--------------
SCF ITERATIONS
--------------
ITER       Energy         Delta-E        Max-DP      RMS-DP      [F,P]     Damp
               ***  Starting incremental Fock matrix formation  ***
                      *** Initiating the SOSCF procedure ***
                      *** Re-Reading the Fockian *** 
                      *** Removing any level shift *** 
ITER      Energy       Delta-E        Grad      Rot      Max-DP    RMS-DP
  0   -153.66168531 -153.6616853053  0.000001  0.000001  0.000001  0.000000
               *** Restarting incremental Fock matrix formation ***
                  ***Gradient check signals convergence***
              ***Rediagonalizing the Fockian in SOSCF/NRSCF***

               *****************************************************
               *                     SUCCESS                       *
               *           SCF CONVERGED AFTER   1 CYCLES          *
               *****************************************************

Old exchange energy                            =     -4.984435509 Eh
New exchange energy                            =     -4.984441076 Eh
Exchange energy change after final integration =     -0.000005567 Eh
Total energy after final integration           =   -153.661690872 Eh
Final COS-X integration done in                =     0.254 sec

----------------
TOTAL SCF ENERGY
----------------

Total Energy       :         -153.66169087 Eh           -4181.34718 eV

Components:
Nuclear Repulsion  :           74.26248386 Eh            2020.78492 eV
Electronic Energy  :         -227.92417473 Eh           -6202.13210 eV
One Electron Energy:         -355.25114626 Eh           -9666.87514 eV
Two Electron Energy:          127.32697153 Eh            3464.74304 eV
Max COSX asymmetry :            0.00000147 Eh               0.00004 eV

Virial components:
Potential Energy   :         -306.45436541 Eh           -8339.04723 eV
Kinetic Energy     :          152.79267454 Eh            4157.70005 eV
Virial Ratio       :            2.00568755


DFT components:
N(Alpha)           :       12.000002645209 electrons
N(Beta)            :       12.000002645209 electrons
N(Total)           :       24.000005290419 electrons
E(X)               :      -14.928342793801 Eh       
E(C)               :       -0.788053098359 Eh       
E(XC)              :      -15.716395892160 Eh       
DFET-embed. en.    :        0.000000000000 Eh       

---------------
SCF CONVERGENCE
---------------

  Last Energy change         ...   -1.4097e-11  Tolerance :   1.0000e-08
  Last MAX-Density change    ...    3.3307e-16  Tolerance :   1.0000e-07
  Last RMS-Density change    ...    1.6663e-17  Tolerance :   5.0000e-09
  Last Orbital Gradient      ...    4.3236e-07  Tolerance :   1.0000e-05
  Last Orbital Rotation      ...    1.0820e-06  Tolerance :   1.0000e-05

             **** THE GBW FILE WAS UPDATED (ox_es1_A_orca0023.gbw) ****
             **** DENSITY ox_es1_A_orca0023.scfp WAS UPDATED ****
             **** ENERGY FILE WAS UPDATED (ox_es1_A_orca0023.en.tmp) ****
             **** THE GBW FILE WAS UPDATED (ox_es1_A_orca0023.gbw) ****
             **** DENSITY ox_es1_A_orca0023.scfp WAS UPDATED ****
----------------
ORBITAL ENERGIES
----------------

  NO   OCC          E(Eh)            E(eV) 
   0   2.0000     -19.227149      -523.1973 
   1   2.0000     -10.283230      -279.8209 
   2   2.0000     -10.279713      -279.7252 
   3   2.0000      -1.098675       -29.8965 
   4   2.0000      -0.693165       -18.8620 
   5   2.0000      -0.655487       -17.8367 
   6   2.0000      -0.526390       -14.3238 
   7   2.0000      -0.492163       -13.3924 
   8   2.0000      -0.431497       -11.7416 
   9   2.0000      -0.393365       -10.7040 
  10   2.0000      -0.315687        -8.5903 
  11   2.0000      -0.291477        -7.9315 
  12   0.0000       0.059896         1.6299 
  13   0.0000       0.066926         1.8212 
  14   0.0000       0.077375         2.1055 
  15   0.0000       0.099818         2.7162 
  16   0.0000       0.107320         2.9203 
  17   0.0000       0.152596         4.1523 
  18   0.0000       0.191893         5.2217 
  19   0.0000       0.203771         5.5449 
  20   0.0000       0.265596         7.2272 
  21   0.0000       0.269109         7.3228 
  22   0.0000       0.301432         8.2024 
  23   0.0000       0.326819         8.8932 
  24   0.0000       0.373704        10.1690 
  25   0.0000       0.385809        10.4984 
  26   0.0000       0.403697        10.9852 
  27   0.0000       0.419074        11.4036 
  28   0.0000       0.442055        12.0289 
  29   0.0000       0.461767        12.5653 
  30   0.0000       0.486147        13.2287 
  31   0.0000       0.519829        14.1453 
  32   0.0000       0.526726        14.3329 
  33   0.0000       0.694028        18.8855 
  34   0.0000       0.709762        19.3136 
  35   0.0000       0.723675        19.6922 
  36   0.0000       0.829242        22.5648 
  37   0.0000       0.874197        23.7881 
  38   0.0000       0.906814        24.6757 
  39   0.0000       0.922102        25.0917 
  40   0.0000       1.009433        27.4681 
  41   0.0000       1.018518        27.7153 
  42   0.0000       1.040447        28.3120 
  43   0.0000       1.078579        29.3496 
  44   0.0000       1.134389        30.8683 
  45   0.0000       1.362291        37.0698 
  46   0.0000       1.456643        39.6373 
  47   0.0000       1.494805        40.6757 
  48   0.0000       1.509674        41.0803 
  49   0.0000       1.515595        41.2414 
  50   0.0000       1.579495        42.9802 
  51   0.0000       1.634209        44.4691 
  52   0.0000       1.656788        45.0835 
  53   0.0000       1.704232        46.3745 
  54   0.0000       1.783779        48.5391 
  55   0.0000       1.813956        49.3603 
  56   0.0000       1.840961        50.0951 
  57   0.0000       1.904192        51.8157 
  58   0.0000       1.916992        52.1640 
  59   0.0000       1.932729        52.5922 
  60   0.0000       2.128777        57.9270 
  61   0.0000       2.149665        58.4954 
  62   0.0000       2.192927        59.6726 
  63   0.0000       2.230342        60.6907 
  64   0.0000       2.247193        61.1492 
  65   0.0000       2.422593        65.9221 
  66   0.0000       2.440698        66.4148 
  67   0.0000       2.485590        67.6363 
  68   0.0000       2.506518        68.2058 
  69   0.0000       2.559127        69.6374 
  70   0.0000       2.594840        70.6092 
  71   0.0000       2.620841        71.3167 
  72   0.0000       2.662167        72.4412 
  73   0.0000       2.709505        73.7294 
  74   0.0000       2.760456        75.1158 
  75   0.0000       2.820739        76.7562 
  76   0.0000       2.852434        77.6187 
  77   0.0000       2.928248        79.6817 
  78   0.0000       3.003296        81.7238 
  79   0.0000       3.027124        82.3722 
  80   0.0000       3.064248        83.3824 
  81   0.0000       3.100520        84.3694 
  82   0.0000       3.126328        85.0717 
  83   0.0000       3.219504        87.6072 
  84   0.0000       3.249015        88.4102 
  85   0.0000       3.300904        89.8222 
  86   0.0000       3.369680        91.6937 
  87   0.0000       3.410219        92.7968 
  88   0.0000       3.551161        96.6320 
  89   0.0000       3.594558        97.8129 
  90   0.0000       3.640002        99.0495 
  91   0.0000       3.689896       100.4072 
  92   0.0000       3.818716       103.9125 
  93   0.0000       3.962248       107.8183 
  94   0.0000       3.980716       108.3208 
  95   0.0000       4.047222       110.1305 
  96   0.0000       4.236251       115.2743 
  97   0.0000       4.290489       116.7501 
  98   0.0000       4.345161       118.2378 
  99   0.0000       4.515638       122.8768 
 100   0.0000       4.669540       127.0646 
 101   0.0000       4.836733       131.6142 
 102   0.0000       5.301432       144.2593 
 103   0.0000       5.461287       148.6092 
 104   0.0000       5.681367       154.5979 
 105   0.0000       5.762258       156.7990 
 106   0.0000       5.808859       158.0671 
 107   0.0000       5.869950       159.7295 
 108   0.0000       6.036300       164.2561 
 109   0.0000       6.626401       180.3135 
 110   0.0000       6.647319       180.8827 
 111   0.0000       6.788041       184.7120 
 112   0.0000       6.957332       189.3186 
 113   0.0000       7.189774       195.6437 
 114   0.0000      22.213003       604.4465 
 115   0.0000      22.334926       607.7642 
 116   0.0000      43.856158      1193.3867 

                    ********************************
                    * MULLIKEN POPULATION ANALYSIS *
                    ********************************

-----------------------
MULLIKEN ATOMIC CHARGES
-----------------------
   0 O :   -0.304183
   1 C :   -0.106857
   2 C :   -0.067065
   3 H :    0.130277
   4 H :    0.123242
   5 H :    0.104535
   6 H :    0.120051
Sum of atomic charges:    0.0000000

--------------------------------
MULLIKEN REDUCED ORBITAL CHARGES
--------------------------------
  0 O s       :     3.853464  s :     3.853464
      pz      :     1.824622  p :     4.405662
      px      :     1.292833
      py      :     1.288208
      dz2     :     0.005550  d :     0.042946
      dxz     :     0.002932
      dyz     :     0.006876
      dx2y2   :     0.011917
      dxy     :     0.015672
      f0      :     0.000263  f :     0.002110
      f+1     :     0.000197
      f-1     :     0.000423
      f+2     :     0.000098
      f-2     :     0.000234
      f+3     :     0.000330
      f-3     :     0.000565
  1 C s       :     3.250386  s :     3.250386
      pz      :     1.036643  p :     2.741740
      px      :     0.909600
      py      :     0.795498
      dz2     :     0.008855  d :     0.103911
      dxz     :     0.023700
      dyz     :     0.027615
      dx2y2   :     0.025863
      dxy     :     0.017877
      f0      :     0.001508  f :     0.010820
      f+1     :     0.001398
      f-1     :     0.000629
      f+2     :     0.001012
      f-2     :     0.001549
      f+3     :     0.002186
      f-3     :     0.002538
  2 C s       :     3.225051  s :     3.225051
      pz      :     1.036205  p :     2.719620
      px      :     0.895676
      py      :     0.787739
      dz2     :     0.006536  d :     0.110836
      dxz     :     0.025308
      dyz     :     0.030951
      dx2y2   :     0.027903
      dxy     :     0.020138
      f0      :     0.001445  f :     0.011558
      f+1     :     0.001401
      f-1     :     0.000805
      f+2     :     0.001010
      f-2     :     0.001836
      f+3     :     0.002255
      f-3     :     0.002806
  3 H s       :     0.847115  s :     0.847115
      pz      :     0.011488  p :     0.022608
      px      :     0.006749
      py      :     0.004371
  4 H s       :     0.856803  s :     0.856803
      pz      :     0.011224  p :     0.019955
      px      :     0.004942
      py      :     0.003789
  5 H s       :     0.873885  s :     0.873885
      pz      :     0.011238  p :     0.021580
      px      :     0.005762
      py      :     0.004581
  6 H s       :     0.858763  s :     0.858763
      pz      :     0.009888  p :     0.021186
      px      :     0.007222
      py      :     0.004076


                     *******************************
                     * LOEWDIN POPULATION ANALYSIS *
                     *******************************

----------------------
LOEWDIN ATOMIC CHARGES
----------------------
   0 O :    0.113856
   1 C :   -0.266724
   2 C :   -0.311474
   3 H :    0.107765
   4 H :    0.130613
   5 H :    0.112704
   6 H :    0.113259

-------------------------------
LOEWDIN REDUCED ORBITAL CHARGES
-------------------------------
  0 O s       :     3.389044  s :     3.389044
      pz      :     1.715298  p :     4.395564
      px      :     1.287062
      py      :     1.393204
      dz2     :     0.011514  d :     0.094959
      dxz     :     0.008510
      dyz     :     0.014805
      dx2y2   :     0.032815
      dxy     :     0.027315
      f0      :     0.000615  f :     0.006577
      f+1     :     0.000298
      f-1     :     0.000823
      f+2     :     0.000213
      f-2     :     0.000976
      f+3     :     0.001194
      f-3     :     0.002458
  1 C s       :     2.856391  s :     2.856391
      pz      :     1.058389  p :     2.926608
      px      :     1.019561
      py      :     0.848658
      dz2     :     0.055929  d :     0.421082
      dxz     :     0.111161
      dyz     :     0.076568
      dx2y2   :     0.093878
      dxy     :     0.083546
      f0      :     0.009317  f :     0.062643
      f+1     :     0.005235
      f-1     :     0.005257
      f+2     :     0.006173
      f-2     :     0.006500
      f+3     :     0.013820
      f-3     :     0.016341
  2 C s       :     2.834630  s :     2.834630
      pz      :     1.062690  p :     2.932174
      px      :     1.011590
      py      :     0.857893
      dz2     :     0.052851  d :     0.473814
      dxz     :     0.121385
      dyz     :     0.095758
      dx2y2   :     0.105005
      dxy     :     0.098816
      f0      :     0.009456  f :     0.070855
      f+1     :     0.005636
      f-1     :     0.006145
      f+2     :     0.006337
      f-2     :     0.008736
      f+3     :     0.015595
      f-3     :     0.018952
  3 H s       :     0.824003  s :     0.824003
      pz      :     0.035573  p :     0.068232
      px      :     0.019284
      py      :     0.013374
  4 H s       :     0.814370  s :     0.814370
      pz      :     0.031502  p :     0.055017
      px      :     0.013042
      py      :     0.010473
  5 H s       :     0.824973  s :     0.824973
      pz      :     0.033526  p :     0.062323
      px      :     0.015415
      py      :     0.013383
  6 H s       :     0.824287  s :     0.824287
      pz      :     0.030653  p :     0.062454
      px      :     0.019546
      py      :     0.012255


                      *****************************
                      * MAYER POPULATION ANALYSIS *
                      *****************************

  NA   - Mulliken gross atomic population
  ZA   - Total nuclear charge
  QA   - Mulliken gross atomic charge
  VA   - Mayer's total valence
  BVA  - Mayer's bonded valence
  FA   - Mayer's free valence

  ATOM       NA         ZA         QA         VA         BVA        FA
  0 O      8.3042     8.0000    -0.3042     2.0020     2.0020     0.0000
  1 C      6.1069     6.0000    -0.1069     3.9478     3.9478    -0.0000
  2 C      6.0671     6.0000    -0.0671     3.9739     3.9739     0.0000
  3 H      0.8697     1.0000     0.1303     0.9575     0.9575     0.0000
  4 H      0.8768     1.0000     0.1232     0.9655     0.9655    -0.0000
  5 H      0.8955     1.0000     0.1045     0.9612     0.9612    -0.0000
  6 H      0.8799     1.0000     0.1201     0.9545     0.9545    -0.0000

  Mayer bond orders larger than 0.100000
B(  0-O ,  1-C ) :   0.9724 B(  0-O ,  2-C ) :   1.0083 B(  1-C ,  2-C ) :   1.0541 
B(  1-C ,  3-H ) :   0.9484 B(  1-C ,  4-H ) :   0.9587 B(  2-C ,  5-H ) :   0.9585 
B(  2-C ,  6-H ) :   0.9424 

-------
TIMINGS
-------

Total SCF time: 0 days 0 hours 0 min 0 sec 

Total time                  ....       0.986 sec
Sum of individual times     ....       0.890 sec  ( 90.3%)

Fock matrix formation       ....       0.685 sec  ( 69.5%)
  Split-RI-J                ....       0.113 sec  ( 16.4% of F)
  Chain of spheres X        ....       0.509 sec  ( 74.2% of F)
  XC integration            ....       0.062 sec  (  9.1% of F)
    Basis function eval.    ....       0.017 sec  ( 27.7% of XC)
    Density eval.           ....       0.014 sec  ( 21.8% of XC)
    XC-Functional eval.     ....       0.004 sec  (  6.0% of XC)
    XC-Potential eval.      ....       0.021 sec  ( 34.5% of XC)
Diagonalization             ....       0.002 sec  (  0.2%)
Density matrix formation    ....       0.000 sec  (  0.0%)
Population analysis         ....       0.002 sec  (  0.2%)
Initial guess               ....       0.008 sec  (  0.8%)
Orbital Transformation      ....       0.000 sec  (  0.0%)
Orbital Orthonormalization  ....       0.001 sec  (  0.1%)
DIIS solution               ....       0.001 sec  (  0.1%)
SOSCF solution              ....       0.002 sec  (  0.2%)
Grid generation             ....       0.188 sec  ( 19.1%)

Maximum memory used throughout the entire SCF-calculation: 61.1 MB


           ************************************************************
           *        Program running with 8 parallel MPI-processes     *
           *              working on a common directory               *
           ************************************************************
------------------------------------------------------------------------------
                        ORCA TD-DFT/TDA CALCULATION
------------------------------------------------------------------------------

Input orbitals are from        ... ox_es1_A_orca0023.gbw
CI-vector output               ... ox_es1_A_orca0023.cis
Tamm-Dancoff approximation     ... operative
CIS-Integral strategy          ... AO-integrals
Integral handling              ... AO integral Direct
Max. core memory used          ... 3000 MB
Reference state                ... RHF
Generation of triplets         ... off
Follow IRoot                   ... off
Number of operators            ... 1
Orbital ranges used for CIS calculation:
 Operator 0:  Orbitals   3... 11  to  12...116
XAS localization array:
 Operator 0:  Orbitals  -1... -1

-------------------
XC-INTEGRATION GRID
-------------------

General Integration Accuracy     IntAcc      ... 3.467
Radial Grid Type                 RadialGrid  ... OptM3 with GC (2021)
Angular Grid (max. ang.)         AngularGrid ... 1 (Lebedev-50)
Angular grid pruning method      GridPruning ... 4 (adaptive)
Weight generation scheme         WeightScheme... Becke
Basis function cutoff            BFCut       ... 1.0000e-11
Integration weight cutoff        WCut        ... 1.0000e-14
Angular grids for H and He will be reduced by one unit
Partially contracted basis set               ... off
Rotationally invariant grid construction     ... off

Total number of grid points                  ...     4538
Total number of batches                      ...       75
Average number of points per batch           ...       60
Average number of grid points per atom       ...      648

---------------------
COSX-INTEGRATION GRID
---------------------

General Integration Accuracy     IntAcc      ... 3.067
Radial Grid Type                 RadialGrid  ... OptM3 with GC (2021)
Angular Grid (max. ang.)         AngularGrid ... 1 (Lebedev-50)
Angular grid pruning method      GridPruning ... 4 (adaptive)
Weight generation scheme         WeightScheme... Becke
Basis function cutoff            BFCut       ... 1.0000e-11
Integration weight cutoff        WCut        ... 1.0000e-14
Angular grids for H and He will be reduced by one unit
Partially contracted basis set               ... on
Rotationally invariant grid construction     ... off

Total number of grid points                  ...     2084
Total number of batches                      ...       37
Average number of points per batch           ...       56
Average number of grid points per atom       ...      298

---------------
TD-DFT XC SETUP
---------------

DFT calculation                         ... on
Name of the grid file                   ... ox_es1_A_orca0023.grid_cis.tmp
Exchange functional (TD-DFT)            ... PBE
   PBE kappa parameter  XKappa (TD-DFT) ...  0.804000
   PBE mue parameter   XMuePBE (TD-DFT) ...  0.219520
Correlation functional (TD-DFT)         ... PBE
   PBE beta parameter CBetaPBE (TD-DFT) ...  0.066725
 LDA part of GGA corr.  LDAOpt (TD-DFT) ... PW91-LDA
Hybrid DFT                              ... on
   Exchange mixing (TD-DFT)             ...  0.250
   GGA exch. scaling (TD-DFT)           ...  0.750
   GGA corr. scaling (TD-DFT)           ...  1.000

Building densities             ... done
Calculating rho(r) on the grid ... done
Building xc-kernel on the grid ... done
                    *** TD-DFT CALCULATION INITIALIZED ***

------------------------
DAVIDSON-DIAGONALIZATION
------------------------

Dimension of the eigenvalue problem            ...    945
Number of roots to be determined               ...      1
Maximum size of the expansion space            ...     10
Maximum number of iterations                   ...    100
Convergence tolerance for the residual         ...    2.500e-07
Convergence tolerance for the energies         ...    2.500e-07
Orthogonality tolerance                        ...    1.000e-14
Level Shift                                    ...    0.000e+00
Constructing the preconditioner                ... o.k.
Building the initial guess                     ... o.k.
Number of trial vectors determined             ...     10


                       ****Iteration    0****

   Memory handling for direct AO based CIS:
   Memory per vector needed      ...     1 MB
   Memory needed                 ...     1 MB
   Memory available              ...  3000 MB
   Number of vectors per batch   ...  3000
   Number of batches             ...     1
   Time for densities:            0.000
   Time for RI-J (Direct):        0.016
   Time for K (COSX):             0.055
   Time for XC-Integration:       0.016
   Time for Sigma-Completion:     0.000
   Size of expansion space: 3
   Lowest Energy          :     0.295042673244
   Maximum Energy change  :     0.295042673244 (vector 0)
   Maximum residual norm  :     0.003200629871

                       ****Iteration    1****
   Time for densities:            0.000
   Time for RI-J (Direct):        0.012
   Time for K (COSX):             0.049
   Time for XC-Integration:       0.006
   Time for Sigma-Completion:     0.000
   Size of expansion space: 4
   Lowest Energy          :     0.290788426822
   Maximum Energy change  :     0.004254246422 (vector 0)
   Maximum residual norm  :     0.001024345392

                       ****Iteration    2****
   Time for densities:            0.000
   Time for RI-J (Direct):        0.012
   Time for K (COSX):             0.049
   Time for XC-Integration:       0.006
   Time for Sigma-Completion:     0.000
   Size of expansion space: 5
   Lowest Energy          :     0.288604881720
   Maximum Energy change  :     0.002183545102 (vector 0)
   Maximum residual norm  :     0.000401293922

                       ****Iteration    3****
   Time for densities:            0.000
   Time for RI-J (Direct):        0.012
   Time for K (COSX):             0.049
   Time for XC-Integration:       0.006
   Time for Sigma-Completion:     0.000
   Size of expansion space: 6
   Lowest Energy          :     0.288151746663
   Maximum Energy change  :     0.000453135057 (vector 0)
   Maximum residual norm  :     0.000076394963

                       ****Iteration    4****
   Time for densities:            0.000
   Time for RI-J (Direct):        0.012
   Time for K (COSX):             0.049
   Time for XC-Integration:       0.007
   Time for Sigma-Completion:     0.000
   Size of expansion space: 7
   Lowest Energy          :     0.288042261474
   Maximum Energy change  :     0.000109485189 (vector 0)
   Maximum residual norm  :     0.000017047723

                       ****Iteration    5****
   Time for densities:            0.000
   Time for RI-J (Direct):        0.012
   Time for K (COSX):             0.050
   Time for XC-Integration:       0.007
   Time for Sigma-Completion:     0.000
   Size of expansion space: 8
   Lowest Energy          :     0.288019184138
   Maximum Energy change  :     0.000023077337 (vector 0)
   Maximum residual norm  :     0.000003550593

                       ****Iteration    6****
   Time for densities:            0.000
   Time for RI-J (Direct):        0.012
   Time for K (COSX):             0.049
   Time for XC-Integration:       0.007
   Time for Sigma-Completion:     0.000
   Size of expansion space: 9
   Lowest Energy          :     0.288014024319
   Maximum Energy change  :     0.000005159818 (vector 0)
   Maximum residual norm  :     0.000000625652

                       ****Iteration    7****
   Time for densities:            0.000
   Time for RI-J (Direct):        0.012
   Time for K (COSX):             0.049
   Time for XC-Integration:       0.007
   Time for Sigma-Completion:     0.000
   Size of expansion space: 10
   Lowest Energy          :     0.288013162823
   Maximum Energy change  :     0.000000861496 (vector 0)
   Maximum residual norm  :     0.000000043996

      *** CONVERGENCE OF RESIDUAL NORM REACHED ***

Storing the converged CI vectors               ... ox_es1_A_orca0023.cis1

                 *** DAVIDSON DONE ***

Total time for solving the CIS problem:     0.568sec

------------------------------------
TD-DFT/TDA EXCITED STATES (SINGLETS)
------------------------------------

the weight of the individual excitations are printed if larger than 1.0e-02

STATE  1:  E=   0.288013 au      7.837 eV    63211.6 cm**-1 <S**2> =   0.000000
    11a ->  13a  :     0.888915 (c= -0.94282283)
    11a ->  15a  :     0.085946 (c= -0.29316605)


-----------------------------
TD-DFT/TDA-EXCITATION SPECTRA
-----------------------------

Center of mass = (  0.0166, -0.1140,  0.0389)
Calculating the Dipole integrals                  ... done
Transforming integrals                            ... done
Calculating the Linear Momentum integrals         ... done
Transforming integrals                            ... done
Calculating angular momentum integrals            ... done
Transforming integrals                            ... done

-----------------------------------------------------------------------------
         ABSORPTION SPECTRUM VIA TRANSITION ELECTRIC DIPOLE MOMENTS
-----------------------------------------------------------------------------
State   Energy    Wavelength  fosc         T2        TX        TY        TZ  
        (cm-1)      (nm)                 (au**2)    (au)      (au)      (au) 
-----------------------------------------------------------------------------
   1   63211.6    158.2   0.001314426   0.00685   0.03240   0.00983   0.07549

-----------------------------------------------------------------------------
         ABSORPTION SPECTRUM VIA TRANSITION VELOCITY DIPOLE MOMENTS
-----------------------------------------------------------------------------
State   Energy    Wavelength   fosc        P2         PX        PY        PZ  
        (cm-1)      (nm)                 (au**2)     (au)      (au)      (au) 
-----------------------------------------------------------------------------
   1   63211.6    158.2   0.007295247   0.00315  -0.00249  -0.01190  -0.05481

-------------------------------------------------------------------
                             CD SPECTRUM
-------------------------------------------------------------------
State  Energy     Wavelength     R         MX        MY        MZ   
       (cm-1)       (nm)     (1e40*cgs)   (au)      (au)      (au)  
-------------------------------------------------------------------
   1   63211.6    158.2      3.69990   0.18135   0.19767   0.00040

-------------------------------------------------------------------
         CD SPECTRUM VIA TRANSITION VELOCITY DIPOLE MOMENTS        
-------------------------------------------------------------------
State  Energy     Wavelength     R         MX        MY        MZ   
       (cm-1)       (nm)     (1e40*cgs)   (au)      (au)      (au)  
-------------------------------------------------------------------
   1   63211.6    158.2     -4.62576   0.18135   0.19767   0.00040

Total run time:        0.894 sec

           *** ORCA-CIS/TD-DFT FINISHED WITHOUT ERROR ***

Maximum memory used throughout the entire CIS-calculation: 49.4 MB

-----------------------
CIS/TD-DFT TOTAL ENERGY
-----------------------

    E(SCF)  =   -153.661690872 Eh
    DE(CIS) =      0.288013163 Eh (Root  1)
    ----------------------------- ---------
    E(tot)  =   -153.373677709 Eh



-------------------------------------------------------------------------------
                          DFT DISPERSION CORRECTION                            
                                                                               
                              DFTD3 V3.1  Rev 1                                
                          USING Becke-Johnson damping                          
-------------------------------------------------------------------------------
The PBE0 functional is recognized
Active option DFTDOPT                   ...         4   

molecular C6(AA) [au] = 350.984363 


            DFT-D V3
 parameters
 s6 scaling factor         :     1.0000 
 a1 scaling factor         :     0.4145 
 s8 scaling factor         :     1.2177 
 a2 scaling factor         :     4.8593 
 ad hoc parameters k1-k3   :    16.0000     1.3333    -4.0000 

 Edisp/kcal,au: -1.505966046521  -0.002399909401 
 E6   /kcal   :  -0.986982960 
 E8   /kcal   :  -0.518983087 
 % E8         :  34.461805282 

-------------------------   ----------------
Dispersion correction           -0.002399909
-------------------------   ----------------


-------------------------   --------------------
FINAL SINGLE POINT ENERGY      -153.376077618604
-------------------------   --------------------



           ************************************************************
           *        Program running with 8 parallel MPI-processes     *
           *              working on a common directory               *
           ************************************************************
------------------------------------------------------------------------------
                         ORCA SCF GRADIENT CALCULATION
------------------------------------------------------------------------------


------------------------
TD-DFT GRADIENT XC SETUP
------------------------

Building densities                     ... done
Calculating rho(r) on the grid         ... done
Building xc-kernel on the grid         ... done
Building xc 3rd derivative on the grid      ... done
                *** TD-DFT GRADIENT CALCULATION INITIALIZED ***

-------------------
TD-DFT/TDA GRADIENT
-------------------

Reference wavefunction             ... RHF
State of interest                  ... 1
Basis dimension                    ... 117
DFT-XC contribution needed         ... YES
RI-approximation                   ... ON
CIS-vectors being read from        ... ox_es1_A_orca0023.cis

 => Number of Vectors found: 1
 => Orbital Window: 3...11 -> 12...116

Reading the CIS file                     ... done
Norm of the CI vector                    ... 1.000000000
Making the CIS (pseudo)densities         ... done
Making operators G(D) and Q(T)           ... done
Transforming the Fock operators          ... done
Making the frozen-core relaxed density   ... done
Constructing the G(H) operator           ... done
Transforming the G(H) operator           ... done
Calculating the CIS Lagrangian           ... done
Solving the Z-vector equations           ... done
Finalizing the relaxed density           ... done
Storing the relaxed density              ... done
Constructing the G(Z) operator           ... done
Transforming the G(Z) operator           ... done
Making the W-matrix                      ... done
Finalizing the W-matrix                  ... done
Transforming the W-matrix                ... done
Nuclear repulsion gradient               ... done
One-Electron gradient                    ... done
Dispersion correction                    ... done
Prescreening matrices                    ... done
COSX-gradient                            ... done
Coulomb gradient (RI)                    ... done
Exchange-Correlation gradient            ... done

                 ---------------------------
                 EXCITED STATE GRADIENT DONE
                 ---------------------------

------------------
CARTESIAN GRADIENT
------------------

   1   O   :   -0.060713845   -0.083473208    0.005614918
   2   C   :    0.052054481    0.105287806    0.031790174
   3   C   :    0.005661015    0.023189495    0.003972579
   4   H   :    0.011476689   -0.002383118   -0.009784452
   5   H   :    0.000211769   -0.016222323   -0.030273627
   6   H   :   -0.008081711   -0.006457549    0.000260055
   7   H   :   -0.000592221   -0.019899499   -0.001534094

Difference to translation invariance:
           :    0.0000161765    0.0000416047    0.0000455537

Difference to rotation invariance:
           :    0.0001423685   -0.0001341672   -0.0002415172

Norm of the cartesian gradient     ...    0.1673184636
RMS gradient                       ...    0.0365118821
MAX gradient                       ...    0.1052878063

------------------------------------------------------------------------------
                  RELAXED CIS/TDA DENSITY POPULATION ANALYSIS
                                   IROOT 1
------------------------------------------------------------------------------
------------------------------------------------------------------------------
                           ORCA POPULATION ANALYSIS
------------------------------------------------------------------------------
Input electron density              ... ox_es1_A_orca0023.cisp
BaseName (.gbw .S,...)              ... ox_es1_A_orca0023

                    ********************************
                    * MULLIKEN POPULATION ANALYSIS *
                    ********************************

-----------------------
MULLIKEN ATOMIC CHARGES
-----------------------
   0 O :    0.136922
   1 C :   -0.577823
   2 C :   -0.186523
   3 H :    0.189512
   4 H :    0.128373
   5 H :    0.152662
   6 H :    0.156877
Sum of atomic charges:   -0.0000000

--------------------------------
MULLIKEN REDUCED ORBITAL CHARGES
--------------------------------
  0 O s       :     3.780937  s :     3.780937
      pz      :     1.144965  p :     4.039191
      px      :     1.498307
      py      :     1.395920
      dz2     :     0.004533  d :     0.041384
      dxz     :     0.003478
      dyz     :     0.007113
      dx2y2   :     0.012258
      dxy     :     0.014002
      f0      :     0.000109  f :     0.001566
      f+1     :     0.000001
      f-1     :     0.000201
      f+2     :     0.000098
      f-2     :     0.000222
      f+3     :     0.000343
      f-3     :     0.000593
  1 C s       :     3.228191  s :     3.228191
      pz      :     1.059969  p :     3.254737
      px      :     0.885548
      py      :     1.309219
      dz2     :     0.013815  d :     0.085053
      dxz     :     0.013200
      dyz     :     0.005987
      dx2y2   :     0.029600
      dxy     :     0.022452
      f0      :     0.001110  f :     0.009842
      f+1     :     0.001340
      f-1     :     0.000725
      f+2     :     0.000790
      f-2     :     0.001082
      f+3     :     0.002621
      f-3     :     0.002174
  2 C s       :     3.200368  s :     3.200368
      pz      :     1.040757  p :     2.897070
      px      :     1.131831
      py      :     0.724482
      dz2     :     0.003983  d :     0.078630
      dxz     :     0.019447
      dyz     :     0.009284
      dx2y2   :     0.027402
      dxy     :     0.018514
      f0      :     0.000924  f :     0.010456
      f+1     :     0.001497
      f-1     :     0.000638
      f+2     :     0.000731
      f-2     :     0.001404
      f+3     :     0.002687
      f-3     :     0.002575
  3 H s       :     0.782031  s :     0.782031
      pz      :     0.010806  p :     0.028458
      px      :     0.006840
      py      :     0.010812
  4 H s       :     0.846988  s :     0.846988
      pz      :     0.011634  p :     0.024639
      px      :     0.005993
      py      :     0.007012
  5 H s       :     0.823937  s :     0.823937
      pz      :     0.011167  p :     0.023401
      px      :     0.007555
      py      :     0.004679
  6 H s       :     0.818904  s :     0.818904
      pz      :     0.009779  p :     0.024219
      px      :     0.010319
      py      :     0.004120


                     *******************************
                     * LOEWDIN POPULATION ANALYSIS *
                     *******************************

----------------------
LOEWDIN ATOMIC CHARGES
----------------------
   0 O :    0.413374
   1 C :   -0.608316
   2 C :   -0.341672
   3 H :    0.125157
   4 H :    0.132409
   5 H :    0.142274
   6 H :    0.136775

-------------------------------
LOEWDIN REDUCED ORBITAL CHARGES
-------------------------------
  0 O s       :     3.426945  s :     3.426945
      pz      :     1.087644  p :     4.048261
      px      :     1.490755
      py      :     1.469863
      dz2     :     0.010916  d :     0.105180
      dxz     :     0.010004
      dyz     :     0.015586
      dx2y2   :     0.036551
      dxy     :     0.032124
      f0      :     0.000607  f :     0.006240
      f+1     :     0.000182
      f-1     :     0.000642
      f+2     :     0.000216
      f-2     :     0.001015
      f+3     :     0.001062
      f-3     :     0.002514
  1 C s       :     2.849523  s :     2.849523
      pz      :     1.049096  p :     3.175242
      px      :     0.998553
      py      :     1.127593
      dz2     :     0.069536  d :     0.513578
      dxz     :     0.091857
      dyz     :     0.034068
      dx2y2   :     0.176698
      dxy     :     0.141418
      f0      :     0.007455  f :     0.069974
      f+1     :     0.005154
      f-1     :     0.007264
      f+2     :     0.004435
      f-2     :     0.004788
      f+3     :     0.024651
      f-3     :     0.016227
  2 C s       :     2.836939  s :     2.836939
      pz      :     1.044113  p :     3.002614
      px      :     1.110660
      py      :     0.847841
      dz2     :     0.063545  d :     0.433987
      dxz     :     0.104563
      dyz     :     0.044127
      dx2y2   :     0.122865
      dxy     :     0.098887
      f0      :     0.007116  f :     0.068132
      f+1     :     0.006480
      f-1     :     0.006086
      f+2     :     0.004860
      f-2     :     0.006820
      f+3     :     0.017367
      f-3     :     0.019403
  3 H s       :     0.792148  s :     0.792148
      pz      :     0.034470  p :     0.082695
      px      :     0.019206
      py      :     0.029018
  4 H s       :     0.800915  s :     0.800915
      pz      :     0.033077  p :     0.066676
      px      :     0.015473
      py      :     0.018126
  5 H s       :     0.790893  s :     0.790893
      pz      :     0.033066  p :     0.066833
      px      :     0.019694
      py      :     0.014074
  6 H s       :     0.793242  s :     0.793242
      pz      :     0.030335  p :     0.069983
      px      :     0.026806
      py      :     0.012842


                      *****************************
                      * MAYER POPULATION ANALYSIS *
                      *****************************

  NA   - Mulliken gross atomic population
  ZA   - Total nuclear charge
  QA   - Mulliken gross atomic charge
  VA   - Mayer's total valence
  BVA  - Mayer's bonded valence
  FA   - Mayer's free valence

  ATOM       NA         ZA         QA         VA         BVA        FA
  0 O      7.8631     8.0000     0.1369     1.9626     1.2726     0.6900
  1 C      6.5778     6.0000    -0.5778     3.8231     3.0361     0.7869
  2 C      6.1865     6.0000    -0.1865     3.5767     3.3606     0.2161
  3 H      0.8105     1.0000     0.1895     0.9849     0.9553     0.0296
  4 H      0.8716     1.0000     0.1284     1.0307     0.9515     0.0792
  5 H      0.8473     1.0000     0.1527     0.9750     0.9353     0.0397
  6 H      0.8431     1.0000     0.1569     1.0009     0.9483     0.0527

  Mayer bond orders larger than 0.100000
B(  0-O ,  1-C ) :   0.4358 B(  0-O ,  2-C ) :   0.8326 B(  1-C ,  2-C ) :   0.6856 
B(  1-C ,  3-H ) :   0.9533 B(  1-C ,  4-H ) :   0.9319 B(  2-C ,  5-H ) :   0.9229 
B(  2-C ,  6-H ) :   0.9062 


-------
TIMINGS
-------

Total TD-DFT gradient time         ...        5.042 sec

Fock matrix formation       ....       0.838 sec  ( 16.6%)
  Coulomb formation         ....       0.678 sec  ( 80.9% of F)
  RI-J                      ....       0.292 sec  ( 34.9% of F)
  Chain of spheres X        ....       0.385 sec  ( 45.9% of F)
  XC integration            ....       0.160 sec  ( 19.1% of F)
Z-vector equation           ....       1.391 sec  ( 27.6%)
One electron gradient       ....       0.032 sec  (  0.6%)
Prescreening matrices       ....       0.158 sec  (  3.1%)
RI-J Coulomb gradient       ....       0.244 sec  (  4.8%)
COSX gradient               ....       0.342 sec  (  6.8%)
XC gradient                 ....       1.728 sec  ( 34.3%)

Maximum memory used throughout the entire SCFGRAD-calculation: 130.3 MB

                            ***************************************
                            *     ORCA property calculations      *
                            ***************************************

                                    ---------------------
                                    Active property flags
                                    ---------------------
   (+) Dipole Moment


------------------------------------------------------------------------------
                       ORCA ELECTRIC PROPERTIES CALCULATION
------------------------------------------------------------------------------

Dipole Moment Calculation                       ... on
Quadrupole Moment Calculation                   ... off
Polarizability Calculation                      ... off
GBWName                                         ... ox_es1_A_orca0023.gbw
Electron density                                ... ox_es1_A_orca0023.scfp
The origin for moment calculation is the CENTER OF MASS  = ( 0.016605, -0.114019  0.038885)

-------------
DIPOLE MOMENT
-------------
                                X             Y             Z
Electronic contribution:     -0.04671       1.76572       0.05243
Nuclear contribution   :      0.04445      -2.48925       0.05380
                        -----------------------------------------
Total Dipole Moment    :     -0.00226      -0.72353       0.10622
                        -----------------------------------------
Magnitude (a.u.)       :      0.73129
Magnitude (Debye)      :      1.85880



--------------------
Rotational spectrum 
--------------------
 
Rotational constants in cm-1:     0.859597     0.696912     0.458216 
Rotational constants in MHz : 25770.067476 20892.901107 13736.972137 

 Dipole components along the rotational axes: 
x,y,z [a.u.] :    -0.073814    -0.727553     0.002385 
x,y,z [Debye]:    -0.187620    -1.849294     0.006061 

 

                        *** CIS RELAXED DENSITY ***

------------------------------------------------------------------------------
                       ORCA ELECTRIC PROPERTIES CALCULATION
------------------------------------------------------------------------------

Dipole Moment Calculation                       ... on
Quadrupole Moment Calculation                   ... off
Polarizability Calculation                      ... off
GBWName                                         ... ox_es1_A_orca0023.gbw
Electron density                                ... ox_es1_A_orca0023.cisp
The origin for moment calculation is the CENTER OF MASS  = ( 0.016605, -0.114019  0.038885)

-------------
DIPOLE MOMENT
-------------
                                X             Y             Z
Electronic contribution:      0.61729       2.34704      -0.00105
Nuclear contribution   :      0.04445      -2.48925       0.05380
                        -----------------------------------------
Total Dipole Moment    :      0.66174      -0.14221       0.05274
                        -----------------------------------------
Magnitude (a.u.)       :      0.67890
Magnitude (Debye)      :      1.72562



--------------------
Rotational spectrum 
--------------------
 
Rotational constants in cm-1:     0.859597     0.696912     0.458216 
Rotational constants in MHz : 25770.067476 20892.901107 13736.972137 

 Dipole components along the rotational axes: 
x,y,z [a.u.] :     0.644188    -0.212331     0.028969 
x,y,z [Debye]:     1.637395    -0.539703     0.073634 

 

Timings for individual modules:

Sum of individual times         ...        7.877 sec (=   0.131 min)
GTO integral calculation        ...        0.309 sec (=   0.005 min)   3.9 %
SCF iterations                  ...        1.194 sec (=   0.020 min)  15.2 %
CIS module                      ...        1.128 sec (=   0.019 min)  14.3 %
SCF Gradient evaluation         ...        5.246 sec (=   0.087 min)  66.6 %
                             ****ORCA TERMINATED NORMALLY****
TOTAL RUN TIME: 0 days 0 hours 0 minutes 8 seconds 286 msec
