
                                 *****************
                                 * O   R   C   A *
                                 *****************

                                            #,                                       
                                            ###                                      
                                            ####                                     
                                            #####                                    
                                            ######                                   
                                           ########,                                 
                                     ,,################,,,,,                         
                               ,,#################################,,                 
                          ,,##########################################,,             
                       ,#########################################, ''#####,          
                    ,#############################################,,   '####,        
                  ,##################################################,,,,####,       
                ,###########''''           ''''###############################       
              ,#####''   ,,,,##########,,,,          '''####'''          '####       
            ,##' ,,,,###########################,,,                        '##       
           ' ,,###''''                  '''############,,,                           
         ,,##''                                '''############,,,,        ,,,,,,###''
      ,#''                                            '''#######################'''  
     '                                                          ''''####''''         
             ,#######,   #######,   ,#######,      ##                                
            ,#'     '#,  ##    ##  ,#'     '#,    #''#        ######   ,####,        
            ##       ##  ##   ,#'  ##            #'  '#       #        #'  '#        
            ##       ##  #######   ##           ,######,      #####,   #    #        
            '#,     ,#'  ##    ##  '#,     ,#' ,#      #,         ##   #,  ,#        
             '#######'   ##     ##  '#######'  #'      '#     #####' # '####'        



                  #######################################################
                  #                        -***-                        #
                  #          Department of theory and spectroscopy      #
                  #    Directorship and core code : Frank Neese         #
                  #        Max Planck Institute fuer Kohlenforschung    #
                  #                Kaiser Wilhelm Platz 1               #
                  #                 D-45470 Muelheim/Ruhr               #
                  #                      Germany                        #
                  #                                                     #
                  #                  All rights reserved                #
                  #                        -***-                        #
                  #######################################################


                         Program Version 5.0.2 -  RELEASE  -


 With contributions from (in alphabetic order):
   Daniel Aravena         : Magnetic Suceptibility
   Michael Atanasov       : Ab Initio Ligand Field Theory (pilot matlab implementation)
   Alexander A. Auer      : GIAO ZORA, VPT2 properties, NMR spectrum
   Ute Becker             : Parallelization
   Giovanni Bistoni       : ED, misc. LED, open-shell LED, HFLD
   Martin Brehm           : Molecular dynamics
   Dmytro Bykov           : SCF Hessian
   Vijay G. Chilkuri      : MRCI spin determinant printing, contributions to CSF-ICE
   Dipayan Datta          : RHF DLPNO-CCSD density
   Achintya Kumar Dutta   : EOM-CC, STEOM-CC
   Dmitry Ganyushin       : Spin-Orbit,Spin-Spin,Magnetic field MRCI
   Miquel Garcia          : C-PCM and meta-GGA Hessian, CC/C-PCM, Gaussian charge scheme
   Yang Guo               : DLPNO-NEVPT2, F12-NEVPT2, CIM, IAO-localization
   Andreas Hansen         : Spin unrestricted coupled pair/coupled cluster methods
   Benjamin Helmich-Paris : MC-RPA, TRAH-SCF, COSX integrals
   Lee Huntington         : MR-EOM, pCC
   Robert Izsak           : Overlap fitted RIJCOSX, COSX-SCS-MP3, EOM
   Marcus Kettner         : VPT2
   Christian Kollmar      : KDIIS, OOCD, Brueckner-CCSD(T), CCSD density, CASPT2, CASPT2-K
   Simone Kossmann        : Meta GGA functionals, TD-DFT gradient, OOMP2, MP2 Hessian
   Martin Krupicka        : Initial AUTO-CI
   Lucas Lang             : DCDCAS
   Marvin Lechner         : AUTO-CI (C++ implementation), FIC-MRCC
   Dagmar Lenk            : GEPOL surface, SMD
   Dimitrios Liakos       : Extrapolation schemes; Compound Job, initial MDCI parallelization
   Dimitrios Manganas     : Further ROCIS development; embedding schemes
   Dimitrios Pantazis     : SARC Basis sets
   Anastasios Papadopoulos: AUTO-CI, single reference methods and gradients
   Taras Petrenko         : DFT Hessian,TD-DFT gradient, ASA, ECA, R-Raman, ABS, FL, XAS/XES, NRVS
   Peter Pinski           : DLPNO-MP2, DLPNO-MP2 Gradient
   Christoph Reimann      : Effective Core Potentials
   Marius Retegan         : Local ZFS, SOC
   Christoph Riplinger    : Optimizer, TS searches, QM/MM, DLPNO-CCSD(T), (RO)-DLPNO pert. Triples
   Tobias Risthaus        : Range-separated hybrids, TD-DFT gradient, RPA, STAB
   Michael Roemelt        : Original ROCIS implementation
   Masaaki Saitow         : Open-shell DLPNO-CCSD energy and density
   Barbara Sandhoefer     : DKH picture change effects
   Avijit Sen             : IP-ROCIS
   Kantharuban Sivalingam : CASSCF convergence, NEVPT2, FIC-MRCI
   Bernardo de Souza      : ESD, SOC TD-DFT
   Georgi Stoychev        : AutoAux, RI-MP2 NMR, DLPNO-MP2 response
   Willem Van den Heuvel  : Paramagnetic NMR
   Boris Wezisla          : Elementary symmetry handling
   Frank Wennmohs         : Technical directorship


 We gratefully acknowledge several colleagues who have allowed us to
 interface, adapt or use parts of their codes:
   Stefan Grimme, W. Hujo, H. Kruse, P. Pracht,  : VdW corrections, initial TS optimization,
                  C. Bannwarth, S. Ehlert          DFT functionals, gCP, sTDA/sTD-DF
   Ed Valeev, F. Pavosevic, A. Kumar             : LibInt (2-el integral package), F12 methods
   Garnet Chan, S. Sharma, J. Yang, R. Olivares  : DMRG
   Ulf Ekstrom                                   : XCFun DFT Library
   Mihaly Kallay                                 : mrcc  (arbitrary order and MRCC methods)
   Jiri Pittner, Ondrej Demel                    : Mk-CCSD
   Frank Weinhold                                : gennbo (NPA and NBO analysis)
   Christopher J. Cramer and Donald G. Truhlar   : smd solvation model
   Lars Goerigk                                  : TD-DFT with DH, B97 family of functionals
   V. Asgeirsson, H. Jonsson                     : NEB implementation
   FAccTs GmbH                                   : IRC, NEB, NEB-TS, DLPNO-Multilevel, CI-OPT
                                                   MM, QMMM, 2- and 3-layer-ONIOM, Crystal-QMMM,
                                                   LR-CPCM, SF, NACMEs, symmetry and pop. for TD-DFT,
                                                   nearIR, NL-DFT gradient (VV10), updates on ESD,
                                                   ML-optimized integration grids
   S Lehtola, MJT Oliveira, MAL Marques          : LibXC Library
   Liviu Ungur et al                             : ANISO software


 Your calculation uses the libint2 library for the computation of 2-el integrals
 For citations please refer to: http://libint.valeyev.net

 Your ORCA version has been built with support for libXC version: 5.1.0
 For citations please refer to: https://tddft.org/programs/libxc/

 This ORCA versions uses:
   CBLAS   interface :  Fast vector & matrix operations
   LAPACKE interface :  Fast linear algebra routines
   SCALAPACK package :  Parallel linear algebra routines
   Shared memory     :  Shared parallel matrices
   BLAS/LAPACK       :  OpenBLAS 0.3.15  USE64BITINT DYNAMIC_ARCH NO_AFFINITY SkylakeX SINGLE_THREADED
        Core in use  :  SkylakeX
   Copyright (c) 2011-2014, The OpenBLAS Project


Your calculation utilizes the atom-pairwise dispersion correction
with the Becke-Johnson damping scheme (D3BJ)
Cite in your paper:
S.Grimme, S.Ehrlich, L.Goerigk, J Comput Chem, (2011), 32, 1456–1465 
S.Grimme, J.Antony, S.Ehrlich and H.Krieg, J.Chem.Phys., 132, (2010), 154104 
   

================================================================================

----- Orbital basis set information -----
Your calculation utilizes the basis: def2-TZVP
   F. Weigend and R. Ahlrichs, Phys. Chem. Chem. Phys. 7, 3297 (2005).

----- AuxJ basis set information -----
Your calculation utilizes the auxiliary basis: def2/J
   F. Weigend, Phys. Chem. Chem. Phys. 8, 1057 (2006).

================================================================================
                                        WARNINGS
                       Please study these warnings very carefully!
================================================================================

INFO   : Checking CIS options ...

WARNING: CIS/ROCIS methods need fully converged wavefunctions
  ===> : Setting SCFConvForced true
         You can overwrite this default with %scf ConvForced false 


INFO   : the flag for use of the SHARK integral package has been found!

================================================================================
                                       INPUT FILE
================================================================================
NAME = ox_es1_D_orca0000.inp
|  1> ! engrad PBE0 D3BJ def2-TZVP  
|  2> %pal nprocs 8 end
|  3> %maxcore 3000
|  4> 
|  5> %tddft
|  6>   nroots 1
|  7>   tda true
|  8>   Iroot 1
|  9>   end 
| 10> *xyz 0 1 
| 11> O   -0.7565283845222538 1.0757943885058143 -0.017043889331135886
| 12> C   -0.7633393124075184 -0.4913744241213824 -0.03493508265808848
| 13> C   0.7605999590518834 -0.4750392905673034 -0.11522178287763468
| 14> H   -1.3404107083067083 -0.6672957068643552 0.907399203613131
| 15> H   -1.2995473984867376 -0.6591762707982423 -0.9364445531682778
| 16> H   1.2876437810157244 -0.5937609161094721 -0.9304020488272691
| 17> H   1.2888105454687797 -0.6709484601978182 0.9955930074968025
| 18> *
| 19> 
| 20>                          ****END OF INPUT****
================================================================================

                     *******************************
                     * Energy+Gradient Calculation *
                     *******************************

---------------------------------
CARTESIAN COORDINATES (ANGSTROEM)
---------------------------------
  O     -0.756528    1.075794   -0.017044
  C     -0.763339   -0.491374   -0.034935
  C      0.760600   -0.475039   -0.115222
  H     -1.340411   -0.667296    0.907399
  H     -1.299547   -0.659176   -0.936445
  H      1.287644   -0.593761   -0.930402
  H      1.288811   -0.670948    0.995593

----------------------------
CARTESIAN COORDINATES (A.U.)
----------------------------
  NO LB      ZA    FRAG     MASS         X           Y           Z
   0 O     8.0000    0    15.999   -1.429631    2.032957   -0.032208
   1 C     6.0000    0    12.011   -1.442502   -0.928563   -0.066018
   2 C     6.0000    0    12.011    1.437326   -0.897694   -0.217738
   3 H     1.0000    0     1.008   -2.533009   -1.261006    1.714736
   4 H     1.0000    0     1.008   -2.455789   -1.245663   -1.769624
   5 H     1.0000    0     1.008    2.433294   -1.122046   -1.758205
   6 H     1.0000    0     1.008    2.435499   -1.267909    1.881398

--------------------------------
INTERNAL COORDINATES (ANGSTROEM)
--------------------------------
 O      0   0   0     0.000000000000     0.00000000     0.00000000
 C      1   0   0     1.567285733620     0.00000000     0.00000000
 C      2   1   0     1.526140129188    89.17252615     0.00000000
 H      2   1   3     1.118907324477    98.61774416   124.42080082
 H      2   1   3     1.062259806613    99.77831967   242.26039889
 H      3   2   1     0.977951369259   125.49989354   260.31476442
 H      3   2   1     1.245510467585   112.01677547    99.35433430

---------------------------
INTERNAL COORDINATES (A.U.)
---------------------------
 O      0   0   0     0.000000000000     0.00000000     0.00000000
 C      1   0   0     2.961740810144     0.00000000     0.00000000
 C      2   1   0     2.883986886152    89.17252615     0.00000000
 H      2   1   3     2.114428412501    98.61774416   124.42080082
 H      2   1   3     2.007380117570    99.77831967   242.26039889
 H      3   2   1     1.848060260193   125.49989354   260.31476442
 H      3   2   1     2.353673680667   112.01677547    99.35433430

---------------------
BASIS SET INFORMATION
---------------------
There are 3 groups of distinct atoms

 Group   1 Type O   : 11s6p2d1f contracted to 5s3p2d1f pattern {62111/411/11/1}
 Group   2 Type C   : 11s6p2d1f contracted to 5s3p2d1f pattern {62111/411/11/1}
 Group   3 Type H   : 5s1p contracted to 3s1p pattern {311/1}

Atom   0O    basis set group =>   1
Atom   1C    basis set group =>   2
Atom   2C    basis set group =>   2
Atom   3H    basis set group =>   3
Atom   4H    basis set group =>   3
Atom   5H    basis set group =>   3
Atom   6H    basis set group =>   3
---------------------------------
AUXILIARY/J BASIS SET INFORMATION
---------------------------------
There are 3 groups of distinct atoms

 Group   1 Type O   : 12s5p4d2f1g contracted to 6s4p3d1f1g pattern {711111/2111/211/2/1}
 Group   2 Type C   : 12s5p4d2f1g contracted to 6s4p3d1f1g pattern {711111/2111/211/2/1}
 Group   3 Type H   : 5s2p1d contracted to 3s1p1d pattern {311/2/1}

Atom   0O    basis set group =>   1
Atom   1C    basis set group =>   2
Atom   2C    basis set group =>   2
Atom   3H    basis set group =>   3
Atom   4H    basis set group =>   3
Atom   5H    basis set group =>   3
Atom   6H    basis set group =>   3

Checking for AutoStart:
The File: ox_es1_D_orca0000.gbw exists
Trying to determine its content:
     ... Fine, the file contains calculation information
     ... Fine, the calculation information was read
     ... Fine, the file contains a basis set
     ... Fine, the basis set was read
     ... Fine, the file contains a geometry
     ... Fine, the geometry was read
     ... Fine, the file contains a set of orbitals
     ... Fine, the orbitals can be read
     => possible old guess file was deleted
     => GBW file was renamed to GES file
     => GES file is set as startup file
     => Guess is set to MORead
     ... now leaving AutoStart



           ************************************************************
           *        Program running with 8 parallel MPI-processes     *
           *              working on a common directory               *
           ************************************************************
------------------------------------------------------------------------------
                           ORCA GTO INTEGRAL CALCULATION
                           -- RI-GTO INTEGRALS CHOSEN --
------------------------------------------------------------------------------
------------------------------------------------------------------------------
                   ___                                                        
                  /   \      - P O W E R E D   B Y -                         
                 /     \                                                     
                 |  |  |   _    _      __       _____    __    __             
                 |  |  |  | |  | |    /  \     |  _  \  |  |  /  |          
                  \  \/   | |  | |   /    \    | | | |  |  | /  /          
                 / \  \   | |__| |  /  /\  \   | |_| |  |  |/  /          
                |  |  |   |  __  | /  /__\  \  |    /   |      \           
                |  |  |   | |  | | |   __   |  |    \   |  |\   \          
                \     /   | |  | | |  |  |  |  | |\  \  |  | \   \       
                 \___/    |_|  |_| |__|  |__|  |_| \__\ |__|  \__/        
                                                                              
                      - O R C A' S   B I G   F R I E N D -                    
                                      &                                       
                       - I N T E G R A L  F E E D E R -                       
                                                                              
 v1 FN, 2020, v2 2021                                                         
------------------------------------------------------------------------------


Reading SHARK input file ox_es1_D_orca0000.SHARKINP.tmp ... ok
----------------------
SHARK INTEGRAL PACKAGE
----------------------

Number of atoms                             ...      7
Number of basis functions                   ...    117
Number of shells                            ...     49
Maximum angular momentum                    ...      3
Integral batch strategy                     ... SHARK/LIBINT Hybrid
RI-J (if used) integral strategy            ... SPLIT-RIJ (Revised 2003 algorithm where possible)
Printlevel                                  ...      1
Contraction scheme used                     ... SEGMENTED contraction
Coulomb Range Separation                    ... NOT USED
Exchange Range Separation                   ... NOT USED
Finite Nucleus Model                        ... NOT USED
Auxiliary Coulomb fitting basis             ... AVAILABLE
   # of basis functions in Aux-J            ...    191
   # of shells in Aux-J                     ...     65
   Maximum angular momentum in Aux-J        ...      4
Auxiliary J/K fitting basis                 ... NOT available
Auxiliary Correlation fitting basis         ... NOT available
Auxiliary 'external' fitting basis          ... NOT available
Integral threshold                          ...     2.500000e-11
Primitive cut-off                           ...     2.500000e-12
Primitive pair pre-selection threshold      ...     2.500000e-12

Calculating pre-screening integrals         ... done (  0.0 sec) Dimension = 49
Organizing shell pair data                  ... done (  0.0 sec)
Shell pair information
Total number of shell pairs                 ...      1225
Shell pairs after pre-screening             ...      1213
Total number of primitive shell pairs       ...      3648
Primitive shell pairs kept                  ...      3069
          la=0 lb=0:    367 shell pairs
          la=1 lb=0:    351 shell pairs
          la=1 lb=1:     91 shell pairs
          la=2 lb=0:    161 shell pairs
          la=2 lb=1:     78 shell pairs
          la=2 lb=2:     21 shell pairs
          la=3 lb=0:     81 shell pairs
          la=3 lb=1:     39 shell pairs
          la=3 lb=2:     18 shell pairs
          la=3 lb=3:      6 shell pairs

Calculating one electron integrals          ... done (  0.0 sec)
Calculating RI/J V-Matrix + Cholesky decomp.... done (  0.0 sec)
Calculating Nuclear repulsion               ... done (  0.0 sec) ENN=     66.004619187371 Eh

SHARK setup successfully completed in   0.1 seconds

Maximum memory used throughout the entire GTOINT-calculation: 14.9 MB


           ************************************************************
           *        Program running with 8 parallel MPI-processes     *
           *              working on a common directory               *
           ************************************************************
-------------------------------------------------------------------------------
                                 ORCA SCF
-------------------------------------------------------------------------------

------------
SCF SETTINGS
------------
Hamiltonian:
 Density Functional     Method          .... DFT(GTOs)
 Exchange Functional    Exchange        .... PBE
   PBE kappa parameter   XKappa         ....  0.804000
   PBE mue parameter    XMuePBE         ....  0.219520
 Correlation Functional Correlation     .... PBE
   PBE beta parameter  CBetaPBE         ....  0.066725
 LDA part of GGA corr.  LDAOpt          .... PW91-LDA
 Gradients option       PostSCFGGA      .... off
 Hybrid DFT is turned on
   Fraction HF Exchange ScalHFX         ....  0.250000
   Scaling of DF-GGA-X  ScalDFX         ....  0.750000
   Scaling of DF-GGA-C  ScalDFC         ....  1.000000
   Scaling of DF-LDA-C  ScalLDAC        ....  1.000000
   Perturbative correction              ....  0.000000
   Density functional embedding theory  .... OFF
   NL short-range parameter             ....  6.900000
 RI-approximation to the Coulomb term is turned on
   Number of AuxJ basis functions       .... 191
   RIJ-COSX (HFX calculated with COS-X)).... on


General Settings:
 Integral files         IntName         .... ox_es1_D_orca0000
 Hartree-Fock type      HFTyp           .... RHF
 Total Charge           Charge          ....    0
 Multiplicity           Mult            ....    1
 Number of Electrons    NEL             ....   24
 Basis Dimension        Dim             ....  117
 Nuclear Repulsion      ENuc            ....     66.0046191874 Eh

Convergence Acceleration:
 DIIS                   CNVDIIS         .... on
   Start iteration      DIISMaxIt       ....    12
   Startup error        DIISStart       ....  0.200000
   # of expansion vecs  DIISMaxEq       ....     5
   Bias factor          DIISBfac        ....   1.050
   Max. coefficient     DIISMaxC        ....  10.000
 Trust-Rad. Augm. Hess. CNVTRAH         .... auto
   Auto Start mean grad. ratio tolernc. ....  1.125000
   Auto Start start iteration           ....     1
   Auto Start num. interpolation iter.  ....    10
   Max. Number of Micro iterations      ....    16
   Max. Number of Macro iterations      .... Maxiter - #DIIS iter
   Number of Davidson start vectors     ....     2
   Converg. threshold I  (grad. norm)   ....   1.000e-05
   Converg. threshold II (energy diff.) ....   1.000e-08
   Grad. Scal. Fac. for Micro threshold ....   0.100
   Minimum threshold for Micro iter.    ....   0.010
   NR start threshold (gradient norm)   ....   0.001
   Initial trust radius                 ....   0.400
   Minimum AH scaling param. (alpha)    ....   1.000
   Maximum AH scaling param. (alpha)    .... 1000.000
   Orbital update algorithm             .... Taylor
   White noise on init. David. guess    .... on
   Maximum white noise                  ....   0.010
   Quad. conv. algorithm                .... NR
 SOSCF                  CNVSOSCF        .... on
   Start iteration      SOSCFMaxIt      ....   150
   Startup grad/error   SOSCFStart      ....  0.003300
 Level Shifting         CNVShift        .... on
   Level shift para.    LevelShift      ....    0.2500
   Turn off err/grad.   ShiftErr        ....    0.0010
 Zerner damping         CNVZerner       .... off
 Static damping         CNVDamp         .... on
   Fraction old density DampFac         ....    0.7000
   Max. Damping (<1)    DampMax         ....    0.9800
   Min. Damping (>=0)   DampMin         ....    0.0000
   Turn off err/grad.   DampErr         ....    0.1000
 Fernandez-Rico         CNVRico         .... off

SCF Procedure:
 Maximum # iterations   MaxIter         ....   125
 SCF integral mode      SCFMode         .... Direct
   Integral package                     .... SHARK and LIBINT hybrid scheme
 Reset frequency        DirectResetFreq ....    20
 Integral Threshold     Thresh          ....  2.500e-11 Eh
 Primitive CutOff       TCut            ....  2.500e-12 Eh

Convergence Tolerance:
 Convergence Check Mode ConvCheckMode   .... Total+1el-Energy
 Convergence forced     ConvForced      .... 1
 Energy Change          TolE            ....  1.000e-08 Eh
 1-El. energy change                    ....  1.000e-05 Eh
 Orbital Gradient       TolG            ....  1.000e-05
 Orbital Rotation angle TolX            ....  1.000e-05
 DIIS Error             TolErr          ....  5.000e-07


Diagonalization of the overlap matrix:
Smallest eigenvalue                        ... 7.070e-04
Time for diagonalization                   ...    0.001 sec
Threshold for overlap eigenvalues          ... 1.000e-08
Number of eigenvalues below threshold      ... 0
Time for construction of square roots      ...    0.001 sec
Total time needed                          ...    0.003 sec

---------------------
INITIAL GUESS: MOREAD
---------------------
Guess MOs are being read from file: ox_es1_D_orca0000.ges
Input Geometry matches current geometry (good)
Input basis set matches current basis set (good)
MOs were renormalized
MOs were reorthogonalized (Cholesky)
                      ------------------
                      INITIAL GUESS DONE (   0.0 sec)
                      ------------------
-------------------
DFT GRID GENERATION
-------------------

General Integration Accuracy     IntAcc      ... 4.388
Radial Grid Type                 RadialGrid  ... OptM3 with GC (2021)
Angular Grid (max. ang.)         AngularGrid ... 4 (Lebedev-302)
Angular grid pruning method      GridPruning ... 4 (adaptive)
Weight generation scheme         WeightScheme... Becke
Basis function cutoff            BFCut       ... 1.0000e-11
Integration weight cutoff        WCut        ... 1.0000e-14
Angular grids for H and He will be reduced by one unit
Partially contracted basis set               ... off
Rotationally invariant grid construction     ... off

Total number of grid points                  ...    31361
Total number of batches                      ...      493
Average number of points per batch           ...       63
Average number of grid points per atom       ...     4480
Time for grid setup =    0.119 sec

--------------------
COSX GRID GENERATION
--------------------

GRIDX 1
-------
General Integration Accuracy     IntAcc      ... 3.816
Radial Grid Type                 RadialGrid  ... OptM3 with GC (2021)
Angular Grid (max. ang.)         AngularGrid ... 1 (Lebedev-50)
Angular grid pruning method      GridPruning ... 4 (adaptive)
Weight generation scheme         WeightScheme... Becke
Basis function cutoff            BFCut       ... 1.0000e-11
Integration weight cutoff        WCut        ... 1.0000e-14
Angular grids for H and He will be reduced by one unit
Partially contracted basis set               ... on
Rotationally invariant grid construction     ... off

Total number of grid points                  ...     4032
Total number of batches                      ...       68
Average number of points per batch           ...       59
Average number of grid points per atom       ...      576
UseSFitting                                  ... on

GRIDX 2
-------
General Integration Accuracy     IntAcc      ... 4.020
Radial Grid Type                 RadialGrid  ... OptM3 with GC (2021)
Angular Grid (max. ang.)         AngularGrid ... 2 (Lebedev-110)
Angular grid pruning method      GridPruning ... 4 (adaptive)
Weight generation scheme         WeightScheme... Becke
Basis function cutoff            BFCut       ... 1.0000e-11
Integration weight cutoff        WCut        ... 1.0000e-14
Angular grids for H and He will be reduced by one unit
Partially contracted basis set               ... on
Rotationally invariant grid construction     ... off

Total number of grid points                  ...     8732
Total number of batches                      ...      139
Average number of points per batch           ...       62
Average number of grid points per atom       ...     1247
UseSFitting                                  ... on

GRIDX 3
-------
General Integration Accuracy     IntAcc      ... 4.338
Radial Grid Type                 RadialGrid  ... OptM3 with GC (2021)
Angular Grid (max. ang.)         AngularGrid ... 3 (Lebedev-194)
Angular grid pruning method      GridPruning ... 4 (adaptive)
Weight generation scheme         WeightScheme... Becke
Basis function cutoff            BFCut       ... 1.0000e-11
Integration weight cutoff        WCut        ... 1.0000e-14
Angular grids for H and He will be reduced by one unit
Partially contracted basis set               ... on
Rotationally invariant grid construction     ... off

Total number of grid points                  ...    19266
Total number of batches                      ...      305
Average number of points per batch           ...       63
Average number of grid points per atom       ...     2752
UseSFitting                                  ... on

Time for X-Grid setup             =    0.072 sec

--------------
SCF ITERATIONS
--------------
ITER       Energy         Delta-E        Max-DP      RMS-DP      [F,P]     Damp
               ***  Starting incremental Fock matrix formation  ***
                      *** Initiating the SOSCF procedure ***
                      *** Re-Reading the Fockian *** 
                      *** Removing any level shift *** 
ITER      Energy       Delta-E        Grad      Rot      Max-DP    RMS-DP
  0   -153.53537630 -153.5353762970  0.000002  0.000002  0.000003  0.000000
               *** Restarting incremental Fock matrix formation ***
                  ***Gradient check signals convergence***
              ***Rediagonalizing the Fockian in SOSCF/NRSCF***

               *****************************************************
               *                     SUCCESS                       *
               *           SCF CONVERGED AFTER   1 CYCLES          *
               *****************************************************

Old exchange energy                            =     -4.930896707 Eh
New exchange energy                            =     -4.930903328 Eh
Exchange energy change after final integration =     -0.000006621 Eh
Total energy after final integration           =   -153.535382918 Eh
Final COS-X integration done in                =     0.255 sec

----------------
TOTAL SCF ENERGY
----------------

Total Energy       :         -153.53538292 Eh           -4177.91017 eV

Components:
Nuclear Repulsion  :           66.00461919 Eh            1796.07700 eV
Electronic Energy  :         -219.54000211 Eh           -5973.98717 eV
One Electron Energy:         -338.96638102 Eh           -9223.74415 eV
Two Electron Energy:          119.42637891 Eh            3249.75698 eV
Max COSX asymmetry :            0.00000125 Eh               0.00003 eV

Virial components:
Potential Energy   :         -305.96238803 Eh           -8325.65985 eV
Kinetic Energy     :          152.42700511 Eh            4147.74968 eV
Virial Ratio       :            2.00727153


DFT components:
N(Alpha)           :       12.000011864013 electrons
N(Beta)            :       12.000011864013 electrons
N(Total)           :       24.000023728027 electrons
E(X)               :      -14.815305226928 Eh       
E(C)               :       -0.764539341878 Eh       
E(XC)              :      -15.579844568806 Eh       
DFET-embed. en.    :        0.000000000000 Eh       

---------------
SCF CONVERGENCE
---------------

  Last Energy change         ...   -5.1301e-11  Tolerance :   1.0000e-08
  Last MAX-Density change    ...    1.5543e-15  Tolerance :   1.0000e-07
  Last RMS-Density change    ...    2.2700e-17  Tolerance :   5.0000e-09
  Last Orbital Gradient      ...    9.9515e-07  Tolerance :   1.0000e-05
  Last Orbital Rotation      ...    3.7772e-06  Tolerance :   1.0000e-05

             **** THE GBW FILE WAS UPDATED (ox_es1_D_orca0000.gbw) ****
             **** DENSITY ox_es1_D_orca0000.scfp WAS UPDATED ****
             **** ENERGY FILE WAS UPDATED (ox_es1_D_orca0000.en.tmp) ****
             **** THE GBW FILE WAS UPDATED (ox_es1_D_orca0000.gbw) ****
             **** DENSITY ox_es1_D_orca0000.scfp WAS UPDATED ****
----------------
ORBITAL ENERGIES
----------------

  NO   OCC          E(Eh)            E(eV) 
   0   2.0000     -19.204926      -522.5926 
   1   2.0000     -10.327011      -281.0122 
   2   2.0000     -10.287662      -279.9415 
   3   2.0000      -0.951262       -25.8852 
   4   2.0000      -0.762062       -20.7368 
   5   2.0000      -0.643332       -17.5060 
   6   2.0000      -0.513677       -13.9779 
   7   2.0000      -0.468392       -12.7456 
   8   2.0000      -0.415179       -11.2976 
   9   2.0000      -0.372239       -10.1291 
  10   2.0000      -0.282706        -7.6928 
  11   2.0000      -0.263145        -7.1605 
  12   0.0000      -0.119561        -3.2534 
  13   0.0000       0.038064         1.0358 
  14   0.0000       0.069042         1.8787 
  15   0.0000       0.087837         2.3902 
  16   0.0000       0.093718         2.5502 
  17   0.0000       0.139182         3.7873 
  18   0.0000       0.182374         4.9626 
  19   0.0000       0.187250         5.0953 
  20   0.0000       0.228371         6.2143 
  21   0.0000       0.245251         6.6736 
  22   0.0000       0.268340         7.3019 
  23   0.0000       0.298426         8.1206 
  24   0.0000       0.342485         9.3195 
  25   0.0000       0.379306        10.3214 
  26   0.0000       0.402733        10.9589 
  27   0.0000       0.422648        11.5008 
  28   0.0000       0.452688        12.3183 
  29   0.0000       0.470177        12.7942 
  30   0.0000       0.506566        13.7844 
  31   0.0000       0.532703        14.4956 
  32   0.0000       0.560774        15.2594 
  33   0.0000       0.619267        16.8511 
  34   0.0000       0.650894        17.7117 
  35   0.0000       0.718262        19.5449 
  36   0.0000       0.777763        21.1640 
  37   0.0000       0.812609        22.1122 
  38   0.0000       0.861075        23.4311 
  39   0.0000       0.913468        24.8567 
  40   0.0000       0.935975        25.4692 
  41   0.0000       1.020324        27.7644 
  42   0.0000       1.056060        28.7369 
  43   0.0000       1.056418        28.7466 
  44   0.0000       1.159860        31.5614 
  45   0.0000       1.329106        36.1668 
  46   0.0000       1.377089        37.4725 
  47   0.0000       1.465179        39.8696 
  48   0.0000       1.495754        40.7015 
  49   0.0000       1.509065        41.0637 
  50   0.0000       1.562856        42.5275 
  51   0.0000       1.591820        43.3156 
  52   0.0000       1.598621        43.5007 
  53   0.0000       1.666645        45.3517 
  54   0.0000       1.698918        46.2299 
  55   0.0000       1.723865        46.9088 
  56   0.0000       1.779980        48.4357 
  57   0.0000       1.813250        49.3410 
  58   0.0000       1.842360        50.1332 
  59   0.0000       1.903238        51.7897 
  60   0.0000       2.005554        54.5739 
  61   0.0000       2.091390        56.9096 
  62   0.0000       2.116322        57.5880 
  63   0.0000       2.145859        58.3918 
  64   0.0000       2.245912        61.1144 
  65   0.0000       2.328446        63.3602 
  66   0.0000       2.353924        64.0535 
  67   0.0000       2.440605        66.4122 
  68   0.0000       2.445346        66.5412 
  69   0.0000       2.502044        68.0841 
  70   0.0000       2.549726        69.3816 
  71   0.0000       2.603304        70.8395 
  72   0.0000       2.639943        71.8365 
  73   0.0000       2.677112        72.8479 
  74   0.0000       2.752495        74.8992 
  75   0.0000       2.808865        76.4331 
  76   0.0000       2.845475        77.4293 
  77   0.0000       2.887468        78.5720 
  78   0.0000       2.920923        79.4823 
  79   0.0000       2.933279        79.8186 
  80   0.0000       2.992432        81.4282 
  81   0.0000       3.055577        83.1465 
  82   0.0000       3.095206        84.2248 
  83   0.0000       3.107623        84.5627 
  84   0.0000       3.140432        85.4555 
  85   0.0000       3.223600        87.7186 
  86   0.0000       3.282043        89.3089 
  87   0.0000       3.316557        90.2481 
  88   0.0000       3.339210        90.8645 
  89   0.0000       3.433077        93.4188 
  90   0.0000       3.463169        94.2376 
  91   0.0000       3.583674        97.5167 
  92   0.0000       3.637487        98.9810 
  93   0.0000       3.748483       102.0014 
  94   0.0000       3.947100       107.4061 
  95   0.0000       3.993286       108.6628 
  96   0.0000       4.115728       111.9947 
  97   0.0000       4.209436       114.5446 
  98   0.0000       4.354486       118.4916 
  99   0.0000       4.444980       120.9541 
 100   0.0000       4.580015       124.6285 
 101   0.0000       4.749723       129.2465 
 102   0.0000       5.208042       141.7180 
 103   0.0000       5.243763       142.6900 
 104   0.0000       5.296714       144.1309 
 105   0.0000       5.305908       144.3811 
 106   0.0000       5.557274       151.2211 
 107   0.0000       5.569305       151.5485 
 108   0.0000       5.744737       156.3223 
 109   0.0000       6.352511       172.8606 
 110   0.0000       6.401886       174.2042 
 111   0.0000       6.685571       181.9236 
 112   0.0000       6.710398       182.5992 
 113   0.0000       7.007481       190.6833 
 114   0.0000      22.025207       599.3364 
 115   0.0000      22.210209       604.3705 
 116   0.0000      43.597478      1186.3477 

                    ********************************
                    * MULLIKEN POPULATION ANALYSIS *
                    ********************************

-----------------------
MULLIKEN ATOMIC CHARGES
-----------------------
   0 O :   -0.396522
   1 C :   -0.058042
   2 C :   -0.156257
   3 H :    0.144540
   4 H :    0.130403
   5 H :    0.171412
   6 H :    0.164465
Sum of atomic charges:    0.0000000

--------------------------------
MULLIKEN REDUCED ORBITAL CHARGES
--------------------------------
  0 O s       :     3.934375  s :     3.934375
      pz      :     1.939822  p :     4.444760
      px      :     1.319611
      py      :     1.185327
      dz2     :     0.002542  d :     0.016566
      dxz     :     0.000168
      dyz     :     0.003214
      dx2y2   :     0.006280
      dxy     :     0.004362
      f0      :     0.000091  f :     0.000820
      f+1     :     0.000041
      f-1     :     0.000225
      f+2     :     0.000085
      f-2     :     0.000016
      f+3     :     0.000140
      f-3     :     0.000224
  1 C s       :     3.213498  s :     3.213498
      pz      :     1.071594  p :     2.710257
      px      :     0.902864
      py      :     0.735798
      dz2     :     0.011472  d :     0.126529
      dxz     :     0.017066
      dyz     :     0.033526
      dx2y2   :     0.023148
      dxy     :     0.041316
      f0      :     0.001178  f :     0.007757
      f+1     :     0.001209
      f-1     :     0.000557
      f+2     :     0.002016
      f-2     :     0.000053
      f+3     :     0.001671
      f-3     :     0.001074
  2 C s       :     3.323719  s :     3.323719
      pz      :     1.047343  p :     2.777914
      px      :     0.985057
      py      :     0.745514
      dz2     :     0.007213  d :     0.050078
      dxz     :     0.020761
      dyz     :     0.004059
      dx2y2   :     0.006700
      dxy     :     0.011344
      f0      :     0.000561  f :     0.004546
      f+1     :     0.001150
      f-1     :     0.000075
      f+2     :     0.000700
      f-2     :     0.000176
      f+3     :     0.000874
      f-3     :     0.001011
  3 H s       :     0.835009  s :     0.835009
      pz      :     0.010337  p :     0.020450
      px      :     0.006264
      py      :     0.003849
  4 H s       :     0.847428  s :     0.847428
      pz      :     0.010951  p :     0.022169
      px      :     0.006772
      py      :     0.004446
  5 H s       :     0.802817  s :     0.802817
      pz      :     0.011775  p :     0.025772
      px      :     0.008593
      py      :     0.005404
  6 H s       :     0.818591  s :     0.818591
      pz      :     0.010067  p :     0.016944
      px      :     0.004165
      py      :     0.002712


                     *******************************
                     * LOEWDIN POPULATION ANALYSIS *
                     *******************************

----------------------
LOEWDIN ATOMIC CHARGES
----------------------
   0 O :   -0.165902
   1 C :   -0.316230
   2 C :   -0.017690
   3 H :    0.131400
   4 H :    0.113340
   5 H :    0.084647
   6 H :    0.170435

-------------------------------
LOEWDIN REDUCED ORBITAL CHARGES
-------------------------------
  0 O s       :     3.669354  s :     3.669354
      pz      :     1.890187  p :     4.459361
      px      :     1.288654
      py      :     1.280520
      dz2     :     0.005559  d :     0.035242
      dxz     :     0.000213
      dyz     :     0.007387
      dx2y2   :     0.014015
      dxy     :     0.008067
      f0      :     0.000172  f :     0.001946
      f+1     :     0.000050
      f-1     :     0.000406
      f+2     :     0.000319
      f-2     :     0.000014
      f+3     :     0.000469
      f-3     :     0.000516
  1 C s       :     2.871842  s :     2.871842
      pz      :     1.082700  p :     2.931697
      px      :     1.038415
      py      :     0.810582
      dz2     :     0.059467  d :     0.464630
      dxz     :     0.092529
      dyz     :     0.081402
      dx2y2   :     0.114034
      dxy     :     0.117197
      f0      :     0.006409  f :     0.048062
      f+1     :     0.004738
      f-1     :     0.005066
      f+2     :     0.010363
      f-2     :     0.000718
      f+3     :     0.009656
      f-3     :     0.011114
  2 C s       :     2.936070  s :     2.936070
      pz      :     1.079868  p :     2.857754
      px      :     1.085257
      py      :     0.692630
      dz2     :     0.033000  d :     0.203776
      dxz     :     0.091319
      dyz     :     0.008207
      dx2y2   :     0.036339
      dxy     :     0.034911
      f0      :     0.003045  f :     0.020090
      f+1     :     0.003281
      f-1     :     0.000736
      f+2     :     0.003696
      f-2     :     0.000734
      f+3     :     0.004121
      f-3     :     0.004477
  3 H s       :     0.810095  s :     0.810095
      pz      :     0.030830  p :     0.058506
      px      :     0.016991
      py      :     0.010685
  4 H s       :     0.819567  s :     0.819567
      pz      :     0.034402  p :     0.067093
      px      :     0.019501
      py      :     0.013190
  5 H s       :     0.828689  s :     0.828689
      pz      :     0.041987  p :     0.086664
      px      :     0.027887
      py      :     0.016790
  6 H s       :     0.785604  s :     0.785604
      pz      :     0.027257  p :     0.043961
      px      :     0.010177
      py      :     0.006527


                      *****************************
                      * MAYER POPULATION ANALYSIS *
                      *****************************

  NA   - Mulliken gross atomic population
  ZA   - Total nuclear charge
  QA   - Mulliken gross atomic charge
  VA   - Mayer's total valence
  BVA  - Mayer's bonded valence
  FA   - Mayer's free valence

  ATOM       NA         ZA         QA         VA         BVA        FA
  0 O      8.3965     8.0000    -0.3965     1.7871     1.7871    -0.0000
  1 C      6.0580     6.0000    -0.0580     3.9689     3.9689     0.0000
  2 C      6.1563     6.0000    -0.1563     3.8275     3.8275     0.0000
  3 H      0.8555     1.0000     0.1445     0.9648     0.9648    -0.0000
  4 H      0.8696     1.0000     0.1304     0.9697     0.9697    -0.0000
  5 H      0.8286     1.0000     0.1714     0.9509     0.9509     0.0000
  6 H      0.8355     1.0000     0.1645     0.9589     0.9589     0.0000

  Mayer bond orders larger than 0.100000
B(  0-O ,  1-C ) :   0.9414 B(  0-O ,  2-C ) :   0.8456 B(  1-C ,  2-C ) :   1.0918 
B(  1-C ,  3-H ) :   0.9582 B(  1-C ,  4-H ) :   0.9670 B(  2-C ,  5-H ) :   0.9404 
B(  2-C ,  6-H ) :   0.9417 

-------
TIMINGS
-------

Total SCF time: 0 days 0 hours 0 min 0 sec 

Total time                  ....       0.988 sec
Sum of individual times     ....       0.899 sec  ( 91.0%)

Fock matrix formation       ....       0.690 sec  ( 69.8%)
  Split-RI-J                ....       0.112 sec  ( 16.2% of F)
  Chain of spheres X        ....       0.514 sec  ( 74.5% of F)
  XC integration            ....       0.062 sec  (  9.0% of F)
    Basis function eval.    ....       0.017 sec  ( 27.6% of XC)
    Density eval.           ....       0.013 sec  ( 21.3% of XC)
    XC-Functional eval.     ....       0.004 sec  (  6.2% of XC)
    XC-Potential eval.      ....       0.021 sec  ( 33.2% of XC)
Diagonalization             ....       0.002 sec  (  0.2%)
Density matrix formation    ....       0.000 sec  (  0.0%)
Population analysis         ....       0.003 sec  (  0.3%)
Initial guess               ....       0.009 sec  (  0.9%)
Orbital Transformation      ....       0.000 sec  (  0.0%)
Orbital Orthonormalization  ....       0.001 sec  (  0.1%)
DIIS solution               ....       0.001 sec  (  0.1%)
SOSCF solution              ....       0.002 sec  (  0.2%)
Grid generation             ....       0.191 sec  ( 19.3%)

Maximum memory used throughout the entire SCF-calculation: 61.1 MB


           ************************************************************
           *        Program running with 8 parallel MPI-processes     *
           *              working on a common directory               *
           ************************************************************
------------------------------------------------------------------------------
                        ORCA TD-DFT/TDA CALCULATION
------------------------------------------------------------------------------

Input orbitals are from        ... ox_es1_D_orca0000.gbw
CI-vector output               ... ox_es1_D_orca0000.cis
Tamm-Dancoff approximation     ... operative
CIS-Integral strategy          ... AO-integrals
Integral handling              ... AO integral Direct
Max. core memory used          ... 3000 MB
Reference state                ... RHF
Generation of triplets         ... off
Follow IRoot                   ... off
Number of operators            ... 1
Orbital ranges used for CIS calculation:
 Operator 0:  Orbitals   3... 11  to  12...116
XAS localization array:
 Operator 0:  Orbitals  -1... -1

-------------------
XC-INTEGRATION GRID
-------------------

General Integration Accuracy     IntAcc      ... 3.467
Radial Grid Type                 RadialGrid  ... OptM3 with GC (2021)
Angular Grid (max. ang.)         AngularGrid ... 1 (Lebedev-50)
Angular grid pruning method      GridPruning ... 4 (adaptive)
Weight generation scheme         WeightScheme... Becke
Basis function cutoff            BFCut       ... 1.0000e-11
Integration weight cutoff        WCut        ... 1.0000e-14
Angular grids for H and He will be reduced by one unit
Partially contracted basis set               ... off
Rotationally invariant grid construction     ... off

Total number of grid points                  ...     4535
Total number of batches                      ...       74
Average number of points per batch           ...       61
Average number of grid points per atom       ...      648

---------------------
COSX-INTEGRATION GRID
---------------------

General Integration Accuracy     IntAcc      ... 3.067
Radial Grid Type                 RadialGrid  ... OptM3 with GC (2021)
Angular Grid (max. ang.)         AngularGrid ... 1 (Lebedev-50)
Angular grid pruning method      GridPruning ... 4 (adaptive)
Weight generation scheme         WeightScheme... Becke
Basis function cutoff            BFCut       ... 1.0000e-11
Integration weight cutoff        WCut        ... 1.0000e-14
Angular grids for H and He will be reduced by one unit
Partially contracted basis set               ... on
Rotationally invariant grid construction     ... off

Total number of grid points                  ...     2083
Total number of batches                      ...       38
Average number of points per batch           ...       54
Average number of grid points per atom       ...      298

---------------
TD-DFT XC SETUP
---------------

DFT calculation                         ... on
Name of the grid file                   ... ox_es1_D_orca0000.grid_cis.tmp
Exchange functional (TD-DFT)            ... PBE
   PBE kappa parameter  XKappa (TD-DFT) ...  0.804000
   PBE mue parameter   XMuePBE (TD-DFT) ...  0.219520
Correlation functional (TD-DFT)         ... PBE
   PBE beta parameter CBetaPBE (TD-DFT) ...  0.066725
 LDA part of GGA corr.  LDAOpt (TD-DFT) ... PW91-LDA
Hybrid DFT                              ... on
   Exchange mixing (TD-DFT)             ...  0.250
   GGA exch. scaling (TD-DFT)           ...  0.750
   GGA corr. scaling (TD-DFT)           ...  1.000

Building densities             ... done
Calculating rho(r) on the grid ... done
Building xc-kernel on the grid ... done
                    *** TD-DFT CALCULATION INITIALIZED ***

------------------------
DAVIDSON-DIAGONALIZATION
------------------------

Dimension of the eigenvalue problem            ...    945
Number of roots to be determined               ...      1
Maximum size of the expansion space            ...     10
Maximum number of iterations                   ...    100
Convergence tolerance for the residual         ...    2.500e-07
Convergence tolerance for the energies         ...    2.500e-07
Orthogonality tolerance                        ...    1.000e-14
Level Shift                                    ...    0.000e+00
Constructing the preconditioner                ... o.k.
Building the initial guess                     ... o.k.
Number of trial vectors determined             ...     10


                       ****Iteration    0****

   Memory handling for direct AO based CIS:
   Memory per vector needed      ...     1 MB
   Memory needed                 ...     1 MB
   Memory available              ...  3000 MB
   Number of vectors per batch   ...  3000
   Number of batches             ...     1
   Time for densities:            0.001
   Time for RI-J (Direct):        0.015
   Time for K (COSX):             0.053
   Time for XC-Integration:       0.015
   Time for Sigma-Completion:     0.000
   Size of expansion space: 3
   Lowest Energy          :     0.059838648593
   Maximum Energy change  :     0.059838648593 (vector 0)
   Maximum residual norm  :     0.002909771286

                       ****Iteration    1****
   Time for densities:            0.000
   Time for RI-J (Direct):        0.012
   Time for K (COSX):             0.047
   Time for XC-Integration:       0.006
   Time for Sigma-Completion:     0.000
   Size of expansion space: 4
   Lowest Energy          :     0.057765422483
   Maximum Energy change  :     0.002073226109 (vector 0)
   Maximum residual norm  :     0.000048239016

                       ****Iteration    2****
   Time for densities:            0.000
   Time for RI-J (Direct):        0.012
   Time for K (COSX):             0.048
   Time for XC-Integration:       0.006
   Time for Sigma-Completion:     0.000
   Size of expansion space: 5
   Lowest Energy          :     0.057730227271
   Maximum Energy change  :     0.000035195213 (vector 0)
   Maximum residual norm  :     0.000001518759

                       ****Iteration    3****
   Time for densities:            0.000
   Time for RI-J (Direct):        0.012
   Time for K (COSX):             0.048
   Time for XC-Integration:       0.006
   Time for Sigma-Completion:     0.000
   Size of expansion space: 6
   Lowest Energy          :     0.057728752726
   Maximum Energy change  :     0.000001474544 (vector 0)
   Maximum residual norm  :     0.000000058904

      *** CONVERGENCE OF RESIDUAL NORM REACHED ***

Storing the converged CI vectors               ... ox_es1_D_orca0000.cis1

                 *** DAVIDSON DONE ***

Total time for solving the CIS problem:     0.287sec

------------------------------------
TD-DFT/TDA EXCITED STATES (SINGLETS)
------------------------------------

the weight of the individual excitations are printed if larger than 1.0e-02

STATE  1:  E=   0.057729 au      1.571 eV    12670.0 cm**-1 <S**2> =   0.000000
    11a ->  12a  :     0.995519 (c=  0.99775713)


-----------------------------
TD-DFT/TDA-EXCITATION SPECTRA
-----------------------------

Center of mass = ( -0.5234,  0.1284, -0.0875)
Calculating the Dipole integrals                  ... done
Transforming integrals                            ... done
Calculating the Linear Momentum integrals         ... done
Transforming integrals                            ... done
Calculating angular momentum integrals            ... done
Transforming integrals                            ... done

-----------------------------------------------------------------------------
         ABSORPTION SPECTRUM VIA TRANSITION ELECTRIC DIPOLE MOMENTS
-----------------------------------------------------------------------------
State   Energy    Wavelength  fosc         T2        TX        TY        TZ  
        (cm-1)      (nm)                 (au**2)    (au)      (au)      (au) 
-----------------------------------------------------------------------------
   1   12670.0    789.3   0.000207963   0.00540  -0.00997   0.00354  -0.07274

-----------------------------------------------------------------------------
         ABSORPTION SPECTRUM VIA TRANSITION VELOCITY DIPOLE MOMENTS
-----------------------------------------------------------------------------
State   Energy    Wavelength   fosc        P2         PX        PY        PZ  
        (cm-1)      (nm)                 (au**2)     (au)      (au)      (au) 
-----------------------------------------------------------------------------
   1   12670.0    789.3   0.009930908   0.00086   0.00125   0.00022   0.02930

-------------------------------------------------------------------
                             CD SPECTRUM
-------------------------------------------------------------------
State  Energy     Wavelength     R         MX        MY        MZ   
       (cm-1)       (nm)     (1e40*cgs)   (au)      (au)      (au)  
-------------------------------------------------------------------
   1   12670.0    789.3      0.35816   0.08775   0.29243  -0.00823

-------------------------------------------------------------------
         CD SPECTRUM VIA TRANSITION VELOCITY DIPOLE MOMENTS        
-------------------------------------------------------------------
State  Energy     Wavelength     R         MX        MY        MZ   
       (cm-1)       (nm)     (1e40*cgs)   (au)      (au)      (au)  
-------------------------------------------------------------------
   1   12670.0    789.3     -0.55283   0.08775   0.29243  -0.00823

Total run time:        0.881 sec

           *** ORCA-CIS/TD-DFT FINISHED WITHOUT ERROR ***

Maximum memory used throughout the entire CIS-calculation: 49.4 MB

-----------------------
CIS/TD-DFT TOTAL ENERGY
-----------------------

    E(SCF)  =   -153.535382918 Eh
    DE(CIS) =      0.057728753 Eh (Root  1)
    ----------------------------- ---------
    E(tot)  =   -153.477654165 Eh



-------------------------------------------------------------------------------
                          DFT DISPERSION CORRECTION                            
                                                                               
                              DFTD3 V3.1  Rev 1                                
                          USING Becke-Johnson damping                          
-------------------------------------------------------------------------------
The PBE0 functional is recognized
Active option DFTDOPT                   ...         4   

molecular C6(AA) [au] = 396.137750 


            DFT-D V3
 parameters
 s6 scaling factor         :     1.0000 
 a1 scaling factor         :     0.4145 
 s8 scaling factor         :     1.2177 
 a2 scaling factor         :     4.8593 
 ad hoc parameters k1-k3   :    16.0000     1.3333    -4.0000 

 Edisp/kcal,au: -1.647359786525  -0.002625234644 
 E6   /kcal   :  -1.073905376 
 E8   /kcal   :  -0.573454411 
 % E8         :  34.810514087 

-------------------------   ----------------
Dispersion correction           -0.002625235
-------------------------   ----------------


-------------------------   --------------------
FINAL SINGLE POINT ENERGY      -153.480279399606
-------------------------   --------------------



           ************************************************************
           *        Program running with 8 parallel MPI-processes     *
           *              working on a common directory               *
           ************************************************************
------------------------------------------------------------------------------
                         ORCA SCF GRADIENT CALCULATION
------------------------------------------------------------------------------


------------------------
TD-DFT GRADIENT XC SETUP
------------------------

Building densities                     ... done
Calculating rho(r) on the grid         ... done
Building xc-kernel on the grid         ... done
Building xc 3rd derivative on the grid      ... done
                *** TD-DFT GRADIENT CALCULATION INITIALIZED ***

-------------------
TD-DFT/TDA GRADIENT
-------------------

Reference wavefunction             ... RHF
State of interest                  ... 1
Basis dimension                    ... 117
DFT-XC contribution needed         ... YES
RI-approximation                   ... ON
CIS-vectors being read from        ... ox_es1_D_orca0000.cis

 => Number of Vectors found: 1
 => Orbital Window: 3...11 -> 12...116

Reading the CIS file                     ... done
Norm of the CI vector                    ... 1.000000000
Making the CIS (pseudo)densities         ... done
Making operators G(D) and Q(T)           ... done
Transforming the Fock operators          ... done
Making the frozen-core relaxed density   ... done
Constructing the G(H) operator           ... done
Transforming the G(H) operator           ... done
Calculating the CIS Lagrangian           ... done
Solving the Z-vector equations           ... done
Finalizing the relaxed density           ... done
Storing the relaxed density              ... done
Constructing the G(Z) operator           ... done
Transforming the G(Z) operator           ... done
Making the W-matrix                      ... done
Finalizing the W-matrix                  ... done
Transforming the W-matrix                ... done
Nuclear repulsion gradient               ... done
One-Electron gradient                    ... done
Dispersion correction                    ... done
Prescreening matrices                    ... done
COSX-gradient                            ... done
Coulomb gradient (RI)                    ... done
Exchange-Correlation gradient            ... done

                 ---------------------------
                 EXCITED STATE GRADIENT DONE
                 ---------------------------

------------------
CARTESIAN GRADIENT
------------------

   1   O   :    0.015970192    0.039046342    0.000412373
   2   C   :   -0.062230340   -0.094053714   -0.014301600
   3   C   :    0.071132732    0.039542502   -0.166487285
   4   H   :   -0.013821227    0.011234067    0.015063799
   5   H   :    0.013735903    0.013854916    0.015041795
   6   H   :   -0.048903771    0.006997902    0.083303636
   7   H   :    0.024113709   -0.016611635    0.066970105

Difference to translation invariance:
           :   -0.0000028024    0.0000103805    0.0000028237

Difference to rotation invariance:
           :   -0.0000723988   -0.0000068957   -0.0002368324

Norm of the cartesian gradient     ...    0.2547902519
RMS gradient                       ...    0.0555997912
MAX gradient                       ...    0.1664872845

------------------------------------------------------------------------------
                  RELAXED CIS/TDA DENSITY POPULATION ANALYSIS
                                   IROOT 1
------------------------------------------------------------------------------
------------------------------------------------------------------------------
                           ORCA POPULATION ANALYSIS
------------------------------------------------------------------------------
Input electron density              ... ox_es1_D_orca0000.cisp
BaseName (.gbw .S,...)              ... ox_es1_D_orca0000

                    ********************************
                    * MULLIKEN POPULATION ANALYSIS *
                    ********************************

-----------------------
MULLIKEN ATOMIC CHARGES
-----------------------
   0 O :   -0.239828
   1 C :   -0.095334
   2 C :   -0.274833
   3 H :    0.165957
   4 H :    0.152660
   5 H :    0.155804
   6 H :    0.135574
Sum of atomic charges:    0.0000000

--------------------------------
MULLIKEN REDUCED ORBITAL CHARGES
--------------------------------
  0 O s       :     3.921688  s :     3.921688
      pz      :     1.042317  p :     4.302046
      px      :     1.951845
      py      :     1.307885
      dz2     :     0.002100  d :     0.015604
      dxz     :     0.000202
      dyz     :     0.003518
      dx2y2   :     0.006194
      dxy     :     0.003590
      f0      :    -0.000032  f :     0.000489
      f+1     :    -0.000039
      f-1     :     0.000036
      f+2     :     0.000112
      f-2     :    -0.000007
      f+3     :     0.000153
      f-3     :     0.000266
  1 C s       :     3.222939  s :     3.222939
      pz      :     1.058282  p :     2.752183
      px      :     0.967938
      py      :     0.725963
      dz2     :     0.010403  d :     0.112597
      dxz     :     0.020185
      dyz     :     0.014403
      dx2y2   :     0.025853
      dxy     :     0.041753
      f0      :     0.000633  f :     0.007616
      f+1     :     0.001261
      f-1     :     0.000429
      f+2     :     0.001043
      f-2     :     0.000046
      f+3     :     0.002352
      f-3     :     0.001852
  2 C s       :     3.318393  s :     3.318393
      pz      :     1.026907  p :     2.907667
      px      :     0.929319
      py      :     0.951442
      dz2     :     0.006773  d :     0.044225
      dxz     :     0.015325
      dyz     :     0.001682
      dx2y2   :     0.008419
      dxy     :     0.012026
      f0      :     0.000542  f :     0.004547
      f+1     :     0.001061
      f-1     :     0.000175
      f+2     :     0.000692
      f-2     :     0.000105
      f+3     :     0.001070
      f-3     :     0.000903
  3 H s       :     0.813426  s :     0.813426
      pz      :     0.010566  p :     0.020617
      px      :     0.006444
      py      :     0.003607
  4 H s       :     0.824986  s :     0.824986
      pz      :     0.011172  p :     0.022354
      px      :     0.006967
      py      :     0.004215
  5 H s       :     0.817059  s :     0.817059
      pz      :     0.010938  p :     0.027137
      px      :     0.008151
      py      :     0.008048
  6 H s       :     0.847160  s :     0.847160
      pz      :     0.009121  p :     0.017266
      px      :     0.004041
      py      :     0.004105


                     *******************************
                     * LOEWDIN POPULATION ANALYSIS *
                     *******************************

----------------------
LOEWDIN ATOMIC CHARGES
----------------------
   0 O :   -0.029275
   1 C :   -0.294243
   2 C :   -0.178596
   3 H :    0.148373
   4 H :    0.130462
   5 H :    0.072907
   6 H :    0.150372

-------------------------------
LOEWDIN REDUCED ORBITAL CHARGES
-------------------------------
  0 O s       :     3.679726  s :     3.679726
      pz      :     1.024993  p :     4.311680
      px      :     1.899340
      py      :     1.387347
      dz2     :     0.005786  d :     0.036173
      dxz     :     0.000267
      dyz     :     0.007399
      dx2y2   :     0.013142
      dxy     :     0.009579
      f0      :     0.000158  f :     0.001696
      f+1     :     0.000004
      f-1     :     0.000222
      f+2     :     0.000286
      f-2     :    -0.000001
      f+3     :     0.000481
      f-3     :     0.000546
  1 C s       :     2.876097  s :     2.876097
      pz      :     1.054556  p :     2.938076
      px      :     1.080807
      py      :     0.802713
      dz2     :     0.058154  d :     0.428195
      dxz     :     0.094641
      dyz     :     0.038032
      dx2y2   :     0.129892
      dxy     :     0.107476
      f0      :     0.004213  f :     0.051876
      f+1     :     0.004681
      f-1     :     0.005061
      f+2     :     0.006562
      f-2     :     0.000701
      f+3     :     0.014151
      f-3     :     0.016506
  2 C s       :     2.939590  s :     2.939590
      pz      :     1.069838  p :     3.008277
      px      :     1.057135
      py      :     0.881304
      dz2     :     0.035535  d :     0.209870
      dxz     :     0.085100
      dyz     :     0.004739
      dx2y2   :     0.037860
      dxy     :     0.046635
      f0      :     0.002989  f :     0.020859
      f+1     :     0.003550
      f-1     :     0.000945
      f+2     :     0.003503
      f-2     :     0.000605
      f+3     :     0.004905
      f-3     :     0.004363
  3 H s       :     0.792984  s :     0.792984
      pz      :     0.031089  p :     0.058642
      px      :     0.017433
      py      :     0.010121
  4 H s       :     0.802027  s :     0.802027
      pz      :     0.034682  p :     0.067511
      px      :     0.020191
      py      :     0.012639
  5 H s       :     0.835964  s :     0.835964
      pz      :     0.039304  p :     0.091129
      px      :     0.026632
      py      :     0.025192
  6 H s       :     0.804839  s :     0.804839
      pz      :     0.024659  p :     0.044789
      px      :     0.009877
      py      :     0.010252


                      *****************************
                      * MAYER POPULATION ANALYSIS *
                      *****************************

  NA   - Mulliken gross atomic population
  ZA   - Total nuclear charge
  QA   - Mulliken gross atomic charge
  VA   - Mayer's total valence
  BVA  - Mayer's bonded valence
  FA   - Mayer's free valence

  ATOM       NA         ZA         QA         VA         BVA        FA
  0 O      8.2398     8.0000    -0.2398     1.8539     1.0422     0.8117
  1 C      6.0953     6.0000    -0.0953     3.9839     3.9297     0.0541
  2 C      6.2748     6.0000    -0.2748     3.8823     3.1217     0.7605
  3 H      0.8340     1.0000     0.1660     0.9599     0.9316     0.0283
  4 H      0.8473     1.0000     0.1527     0.9662     0.9396     0.0267
  5 H      0.8442     1.0000     0.1558     0.9697     0.9611     0.0086
  6 H      0.8644     1.0000     0.1356     0.9730     0.9667     0.0063

  Mayer bond orders larger than 0.100000
B(  0-O ,  1-C ) :   0.9459 B(  1-C ,  2-C ) :   1.1218 B(  1-C ,  3-H ) :   0.9226 
B(  1-C ,  4-H ) :   0.9318 B(  2-C ,  5-H ) :   0.9524 B(  2-C ,  6-H ) :   0.9513 



-------
TIMINGS
-------

Total TD-DFT gradient time         ...        5.198 sec

Fock matrix formation       ....       0.811 sec  ( 15.6%)
  Coulomb formation         ....       0.661 sec  ( 81.5% of F)
  RI-J                      ....       0.293 sec  ( 36.2% of F)
  Chain of spheres X        ....       0.368 sec  ( 45.3% of F)
  XC integration            ....       0.150 sec  ( 18.5% of F)
Z-vector equation           ....       1.812 sec  ( 34.9%)
One electron gradient       ....       0.031 sec  (  0.6%)
Prescreening matrices       ....       0.149 sec  (  2.9%)
RI-J Coulomb gradient       ....       0.243 sec  (  4.7%)
COSX gradient               ....       0.344 sec  (  6.6%)
XC gradient                 ....       1.498 sec  ( 28.8%)

Maximum memory used throughout the entire SCFGRAD-calculation: 130.2 MB

                            ***************************************
                            *     ORCA property calculations      *
                            ***************************************

                                    ---------------------
                                    Active property flags
                                    ---------------------
   (+) Dipole Moment


------------------------------------------------------------------------------
                       ORCA ELECTRIC PROPERTIES CALCULATION
------------------------------------------------------------------------------

Dipole Moment Calculation                       ... on
Quadrupole Moment Calculation                   ... off
Polarizability Calculation                      ... off
GBWName                                         ... ox_es1_D_orca0000.gbw
Electron density                                ... ox_es1_D_orca0000.scfp
The origin for moment calculation is the CENTER OF MASS  = (-0.523365,  0.128352 -0.087500)

-------------
DIPOLE MOMENT
-------------
                                X             Y             Z
Electronic contribution:     -0.43385       1.37121      -0.23945
Nuclear contribution   :      0.97265      -2.67097       0.20811
                        -----------------------------------------
Total Dipole Moment    :      0.53881      -1.29976      -0.03134
                        -----------------------------------------
Magnitude (a.u.)       :      1.40736
Magnitude (Debye)      :      3.57723



--------------------
Rotational spectrum 
--------------------
 
Rotational constants in cm-1:     0.946016     0.404461     0.322648 
Rotational constants in MHz : 28360.844505 12125.450520  9672.747342 

 Dipole components along the rotational axes: 
x,y,z [a.u.] :    -1.289029    -0.564862    -0.002393 
x,y,z [Debye]:    -3.276451    -1.435765    -0.006082 

 

                        *** CIS RELAXED DENSITY ***

------------------------------------------------------------------------------
                       ORCA ELECTRIC PROPERTIES CALCULATION
------------------------------------------------------------------------------

Dipole Moment Calculation                       ... on
Quadrupole Moment Calculation                   ... off
Polarizability Calculation                      ... off
GBWName                                         ... ox_es1_D_orca0000.gbw
Electron density                                ... ox_es1_D_orca0000.cisp
The origin for moment calculation is the CENTER OF MASS  = (-0.523365,  0.128352 -0.087500)

-------------
DIPOLE MOMENT
-------------
                                X             Y             Z
Electronic contribution:     -0.99438       1.77141      -0.23943
Nuclear contribution   :      0.97265      -2.67097       0.20811
                        -----------------------------------------
Total Dipole Moment    :     -0.02173      -0.89956      -0.03132
                        -----------------------------------------
Magnitude (a.u.)       :      0.90037
Magnitude (Debye)      :      2.28856



--------------------
Rotational spectrum 
--------------------
 
Rotational constants in cm-1:     0.946016     0.404461     0.322648 
Rotational constants in MHz : 28360.844505 12125.450520  9672.747342 

 Dipole components along the rotational axes: 
x,y,z [a.u.] :    -0.607873    -0.663628    -0.027451 
x,y,z [Debye]:    -1.545090    -1.686808    -0.069774 

 

Timings for individual modules:

Sum of individual times         ...        7.895 sec (=   0.132 min)
GTO integral calculation        ...        0.250 sec (=   0.004 min)   3.2 %
SCF iterations                  ...        1.159 sec (=   0.019 min)  14.7 %
CIS module                      ...        1.098 sec (=   0.018 min)  13.9 %
SCF Gradient evaluation         ...        5.387 sec (=   0.090 min)  68.2 %
                             ****ORCA TERMINATED NORMALLY****
TOTAL RUN TIME: 0 days 0 hours 0 minutes 8 seconds 248 msec
