
                                 *****************
                                 * O   R   C   A *
                                 *****************

                                            #,                                       
                                            ###                                      
                                            ####                                     
                                            #####                                    
                                            ######                                   
                                           ########,                                 
                                     ,,################,,,,,                         
                               ,,#################################,,                 
                          ,,##########################################,,             
                       ,#########################################, ''#####,          
                    ,#############################################,,   '####,        
                  ,##################################################,,,,####,       
                ,###########''''           ''''###############################       
              ,#####''   ,,,,##########,,,,          '''####'''          '####       
            ,##' ,,,,###########################,,,                        '##       
           ' ,,###''''                  '''############,,,                           
         ,,##''                                '''############,,,,        ,,,,,,###''
      ,#''                                            '''#######################'''  
     '                                                          ''''####''''         
             ,#######,   #######,   ,#######,      ##                                
            ,#'     '#,  ##    ##  ,#'     '#,    #''#        ######   ,####,        
            ##       ##  ##   ,#'  ##            #'  '#       #        #'  '#        
            ##       ##  #######   ##           ,######,      #####,   #    #        
            '#,     ,#'  ##    ##  '#,     ,#' ,#      #,         ##   #,  ,#        
             '#######'   ##     ##  '#######'  #'      '#     #####' # '####'        



                  #######################################################
                  #                        -***-                        #
                  #          Department of theory and spectroscopy      #
                  #    Directorship and core code : Frank Neese         #
                  #        Max Planck Institute fuer Kohlenforschung    #
                  #                Kaiser Wilhelm Platz 1               #
                  #                 D-45470 Muelheim/Ruhr               #
                  #                      Germany                        #
                  #                                                     #
                  #                  All rights reserved                #
                  #                        -***-                        #
                  #######################################################


                         Program Version 5.0.2 -  RELEASE  -


 With contributions from (in alphabetic order):
   Daniel Aravena         : Magnetic Suceptibility
   Michael Atanasov       : Ab Initio Ligand Field Theory (pilot matlab implementation)
   Alexander A. Auer      : GIAO ZORA, VPT2 properties, NMR spectrum
   Ute Becker             : Parallelization
   Giovanni Bistoni       : ED, misc. LED, open-shell LED, HFLD
   Martin Brehm           : Molecular dynamics
   Dmytro Bykov           : SCF Hessian
   Vijay G. Chilkuri      : MRCI spin determinant printing, contributions to CSF-ICE
   Dipayan Datta          : RHF DLPNO-CCSD density
   Achintya Kumar Dutta   : EOM-CC, STEOM-CC
   Dmitry Ganyushin       : Spin-Orbit,Spin-Spin,Magnetic field MRCI
   Miquel Garcia          : C-PCM and meta-GGA Hessian, CC/C-PCM, Gaussian charge scheme
   Yang Guo               : DLPNO-NEVPT2, F12-NEVPT2, CIM, IAO-localization
   Andreas Hansen         : Spin unrestricted coupled pair/coupled cluster methods
   Benjamin Helmich-Paris : MC-RPA, TRAH-SCF, COSX integrals
   Lee Huntington         : MR-EOM, pCC
   Robert Izsak           : Overlap fitted RIJCOSX, COSX-SCS-MP3, EOM
   Marcus Kettner         : VPT2
   Christian Kollmar      : KDIIS, OOCD, Brueckner-CCSD(T), CCSD density, CASPT2, CASPT2-K
   Simone Kossmann        : Meta GGA functionals, TD-DFT gradient, OOMP2, MP2 Hessian
   Martin Krupicka        : Initial AUTO-CI
   Lucas Lang             : DCDCAS
   Marvin Lechner         : AUTO-CI (C++ implementation), FIC-MRCC
   Dagmar Lenk            : GEPOL surface, SMD
   Dimitrios Liakos       : Extrapolation schemes; Compound Job, initial MDCI parallelization
   Dimitrios Manganas     : Further ROCIS development; embedding schemes
   Dimitrios Pantazis     : SARC Basis sets
   Anastasios Papadopoulos: AUTO-CI, single reference methods and gradients
   Taras Petrenko         : DFT Hessian,TD-DFT gradient, ASA, ECA, R-Raman, ABS, FL, XAS/XES, NRVS
   Peter Pinski           : DLPNO-MP2, DLPNO-MP2 Gradient
   Christoph Reimann      : Effective Core Potentials
   Marius Retegan         : Local ZFS, SOC
   Christoph Riplinger    : Optimizer, TS searches, QM/MM, DLPNO-CCSD(T), (RO)-DLPNO pert. Triples
   Tobias Risthaus        : Range-separated hybrids, TD-DFT gradient, RPA, STAB
   Michael Roemelt        : Original ROCIS implementation
   Masaaki Saitow         : Open-shell DLPNO-CCSD energy and density
   Barbara Sandhoefer     : DKH picture change effects
   Avijit Sen             : IP-ROCIS
   Kantharuban Sivalingam : CASSCF convergence, NEVPT2, FIC-MRCI
   Bernardo de Souza      : ESD, SOC TD-DFT
   Georgi Stoychev        : AutoAux, RI-MP2 NMR, DLPNO-MP2 response
   Willem Van den Heuvel  : Paramagnetic NMR
   Boris Wezisla          : Elementary symmetry handling
   Frank Wennmohs         : Technical directorship


 We gratefully acknowledge several colleagues who have allowed us to
 interface, adapt or use parts of their codes:
   Stefan Grimme, W. Hujo, H. Kruse, P. Pracht,  : VdW corrections, initial TS optimization,
                  C. Bannwarth, S. Ehlert          DFT functionals, gCP, sTDA/sTD-DF
   Ed Valeev, F. Pavosevic, A. Kumar             : LibInt (2-el integral package), F12 methods
   Garnet Chan, S. Sharma, J. Yang, R. Olivares  : DMRG
   Ulf Ekstrom                                   : XCFun DFT Library
   Mihaly Kallay                                 : mrcc  (arbitrary order and MRCC methods)
   Jiri Pittner, Ondrej Demel                    : Mk-CCSD
   Frank Weinhold                                : gennbo (NPA and NBO analysis)
   Christopher J. Cramer and Donald G. Truhlar   : smd solvation model
   Lars Goerigk                                  : TD-DFT with DH, B97 family of functionals
   V. Asgeirsson, H. Jonsson                     : NEB implementation
   FAccTs GmbH                                   : IRC, NEB, NEB-TS, DLPNO-Multilevel, CI-OPT
                                                   MM, QMMM, 2- and 3-layer-ONIOM, Crystal-QMMM,
                                                   LR-CPCM, SF, NACMEs, symmetry and pop. for TD-DFT,
                                                   nearIR, NL-DFT gradient (VV10), updates on ESD,
                                                   ML-optimized integration grids
   S Lehtola, MJT Oliveira, MAL Marques          : LibXC Library
   Liviu Ungur et al                             : ANISO software


 Your calculation uses the libint2 library for the computation of 2-el integrals
 For citations please refer to: http://libint.valeyev.net

 Your ORCA version has been built with support for libXC version: 5.1.0
 For citations please refer to: https://tddft.org/programs/libxc/

 This ORCA versions uses:
   CBLAS   interface :  Fast vector & matrix operations
   LAPACKE interface :  Fast linear algebra routines
   SCALAPACK package :  Parallel linear algebra routines
   Shared memory     :  Shared parallel matrices
   BLAS/LAPACK       :  OpenBLAS 0.3.15  USE64BITINT DYNAMIC_ARCH NO_AFFINITY SkylakeX SINGLE_THREADED
        Core in use  :  SkylakeX
   Copyright (c) 2011-2014, The OpenBLAS Project


Your calculation utilizes the atom-pairwise dispersion correction
with the Becke-Johnson damping scheme (D3BJ)
Cite in your paper:
S.Grimme, S.Ehrlich, L.Goerigk, J Comput Chem, (2011), 32, 1456–1465 
S.Grimme, J.Antony, S.Ehrlich and H.Krieg, J.Chem.Phys., 132, (2010), 154104 
   

================================================================================

----- Orbital basis set information -----
Your calculation utilizes the basis: def2-TZVP
   F. Weigend and R. Ahlrichs, Phys. Chem. Chem. Phys. 7, 3297 (2005).

----- AuxJ basis set information -----
Your calculation utilizes the auxiliary basis: def2/J
   F. Weigend, Phys. Chem. Chem. Phys. 8, 1057 (2006).

================================================================================
                                        WARNINGS
                       Please study these warnings very carefully!
================================================================================

INFO   : Checking CIS options ...

WARNING: CIS/ROCIS methods need fully converged wavefunctions
  ===> : Setting SCFConvForced true
         You can overwrite this default with %scf ConvForced false 


INFO   : the flag for use of the SHARK integral package has been found!

================================================================================
                                       INPUT FILE
================================================================================
NAME = ox_es1_B_orca0003.inp
|  1> ! engrad PBE0 D3BJ def2-TZVP  
|  2> %pal nprocs 8 end
|  3> %maxcore 3000
|  4> 
|  5> %tddft
|  6>   nroots 1
|  7>   tda true
|  8>   Iroot 1
|  9>   end 
| 10> *xyz 0 1 
| 11> O   -0.2550277629267585 0.9352364986338921 -0.12002256112305297
| 12> C   -0.62735940895806 -0.5041520544511382 0.010594169338885052
| 13> C   0.7641255712158553 -0.48629225058815984 0.023102986858102435
| 14> H   -1.2286115187268911 -0.6420954116053095 0.8736635043234887
| 15> H   -1.1634306224611 -0.6569227829064553 -0.9776091754625477
| 16> H   1.2954217922904563 -0.6662952256653317 -0.8967566037474552
| 17> H   1.0856470369687632 -0.6022155292264897 0.9276076976102267
| 18> *
| 19> 
| 20>                          ****END OF INPUT****
================================================================================

                     *******************************
                     * Energy+Gradient Calculation *
                     *******************************

---------------------------------
CARTESIAN COORDINATES (ANGSTROEM)
---------------------------------
  O     -0.255028    0.935236   -0.120023
  C     -0.627359   -0.504152    0.010594
  C      0.764126   -0.486292    0.023103
  H     -1.228612   -0.642095    0.873664
  H     -1.163431   -0.656923   -0.977609
  H      1.295422   -0.666295   -0.896757
  H      1.085647   -0.602216    0.927608

----------------------------
CARTESIAN COORDINATES (A.U.)
----------------------------
  NO LB      ZA    FRAG     MASS         X           Y           Z
   0 O     8.0000    0    15.999   -0.481933    1.767341   -0.226810
   1 C     6.0000    0    12.011   -1.185537   -0.952709    0.020020
   2 C     6.0000    0    12.011    1.443988   -0.918959    0.043658
   3 H     1.0000    0     1.008   -2.321739   -1.213384    1.650985
   4 H     1.0000    0     1.008   -2.198565   -1.241404   -1.847414
   5 H     1.0000    0     1.008    2.447992   -1.259116   -1.694624
   6 H     1.0000    0     1.008    2.051576   -1.138022    1.752925

--------------------------------
INTERNAL COORDINATES (ANGSTROEM)
--------------------------------
 O      0   0   0     0.000000000000     0.00000000     0.00000000
 C      1   0   0     1.492491538222     0.00000000     0.00000000
 C      2   1   0     1.391655809875    74.86884372     0.00000000
 H      2   1   3     1.060858683461   109.75459055   121.36105440
 H      2   1   3     1.134573528731    99.87534511   242.63017985
 H      3   2   1     1.077412832666   118.89746034   263.91899137
 H      3   2   1     0.966924521999   109.83718612   102.92548125

---------------------------
INTERNAL COORDINATES (A.U.)
---------------------------
 O      0   0   0     0.000000000000     0.00000000     0.00000000
 C      1   0   0     2.820400264435     0.00000000     0.00000000
 C      2   1   0     2.629848353344    74.86884372     0.00000000
 H      2   1   3     2.004732378534   109.75459055   121.36105440
 H      2   1   3     2.144033248097    99.87534511   242.63017985
 H      3   2   1     2.036015186911   118.89746034   263.91899137
 H      3   2   1     1.827222538751   109.83718612   102.92548125

---------------------
BASIS SET INFORMATION
---------------------
There are 3 groups of distinct atoms

 Group   1 Type O   : 11s6p2d1f contracted to 5s3p2d1f pattern {62111/411/11/1}
 Group   2 Type C   : 11s6p2d1f contracted to 5s3p2d1f pattern {62111/411/11/1}
 Group   3 Type H   : 5s1p contracted to 3s1p pattern {311/1}

Atom   0O    basis set group =>   1
Atom   1C    basis set group =>   2
Atom   2C    basis set group =>   2
Atom   3H    basis set group =>   3
Atom   4H    basis set group =>   3
Atom   5H    basis set group =>   3
Atom   6H    basis set group =>   3
---------------------------------
AUXILIARY/J BASIS SET INFORMATION
---------------------------------
There are 3 groups of distinct atoms

 Group   1 Type O   : 12s5p4d2f1g contracted to 6s4p3d1f1g pattern {711111/2111/211/2/1}
 Group   2 Type C   : 12s5p4d2f1g contracted to 6s4p3d1f1g pattern {711111/2111/211/2/1}
 Group   3 Type H   : 5s2p1d contracted to 3s1p1d pattern {311/2/1}

Atom   0O    basis set group =>   1
Atom   1C    basis set group =>   2
Atom   2C    basis set group =>   2
Atom   3H    basis set group =>   3
Atom   4H    basis set group =>   3
Atom   5H    basis set group =>   3
Atom   6H    basis set group =>   3

Checking for AutoStart:
The File: ox_es1_B_orca0003.gbw exists
Trying to determine its content:
     ... Fine, the file contains calculation information
     ... Fine, the calculation information was read
     ... Fine, the file contains a basis set
     ... Fine, the basis set was read
     ... Fine, the file contains a geometry
     ... Fine, the geometry was read
     ... Fine, the file contains a set of orbitals
     ... Fine, the orbitals can be read
     => possible old guess file was deleted
     => GBW file was renamed to GES file
     => GES file is set as startup file
     => Guess is set to MORead
     ... now leaving AutoStart



           ************************************************************
           *        Program running with 8 parallel MPI-processes     *
           *              working on a common directory               *
           ************************************************************
------------------------------------------------------------------------------
                           ORCA GTO INTEGRAL CALCULATION
                           -- RI-GTO INTEGRALS CHOSEN --
------------------------------------------------------------------------------
------------------------------------------------------------------------------
                   ___                                                        
                  /   \      - P O W E R E D   B Y -                         
                 /     \                                                     
                 |  |  |   _    _      __       _____    __    __             
                 |  |  |  | |  | |    /  \     |  _  \  |  |  /  |          
                  \  \/   | |  | |   /    \    | | | |  |  | /  /          
                 / \  \   | |__| |  /  /\  \   | |_| |  |  |/  /          
                |  |  |   |  __  | /  /__\  \  |    /   |      \           
                |  |  |   | |  | | |   __   |  |    \   |  |\   \          
                \     /   | |  | | |  |  |  |  | |\  \  |  | \   \       
                 \___/    |_|  |_| |__|  |__|  |_| \__\ |__|  \__/        
                                                                              
                      - O R C A' S   B I G   F R I E N D -                    
                                      &                                       
                       - I N T E G R A L  F E E D E R -                       
                                                                              
 v1 FN, 2020, v2 2021                                                         
------------------------------------------------------------------------------


Reading SHARK input file ox_es1_B_orca0003.SHARKINP.tmp ... ok
----------------------
SHARK INTEGRAL PACKAGE
----------------------

Number of atoms                             ...      7
Number of basis functions                   ...    117
Number of shells                            ...     49
Maximum angular momentum                    ...      3
Integral batch strategy                     ... SHARK/LIBINT Hybrid
RI-J (if used) integral strategy            ... SPLIT-RIJ (Revised 2003 algorithm where possible)
Printlevel                                  ...      1
Contraction scheme used                     ... SEGMENTED contraction
Coulomb Range Separation                    ... NOT USED
Exchange Range Separation                   ... NOT USED
Finite Nucleus Model                        ... NOT USED
Auxiliary Coulomb fitting basis             ... AVAILABLE
   # of basis functions in Aux-J            ...    191
   # of shells in Aux-J                     ...     65
   Maximum angular momentum in Aux-J        ...      4
Auxiliary J/K fitting basis                 ... NOT available
Auxiliary Correlation fitting basis         ... NOT available
Auxiliary 'external' fitting basis          ... NOT available
Integral threshold                          ...     2.500000e-11
Primitive cut-off                           ...     2.500000e-12
Primitive pair pre-selection threshold      ...     2.500000e-12

Calculating pre-screening integrals         ... done (  0.0 sec) Dimension = 49
Organizing shell pair data                  ... done (  0.0 sec)
Shell pair information
Total number of shell pairs                 ...      1225
Shell pairs after pre-screening             ...      1219
Total number of primitive shell pairs       ...      3648
Primitive shell pairs kept                  ...      3137
          la=0 lb=0:    372 shell pairs
          la=1 lb=0:    351 shell pairs
          la=1 lb=1:     91 shell pairs
          la=2 lb=0:    162 shell pairs
          la=2 lb=1:     78 shell pairs
          la=2 lb=2:     21 shell pairs
          la=3 lb=0:     81 shell pairs
          la=3 lb=1:     39 shell pairs
          la=3 lb=2:     18 shell pairs
          la=3 lb=3:      6 shell pairs

Calculating one electron integrals          ... done (  0.0 sec)
Calculating RI/J V-Matrix + Cholesky decomp.... done (  0.0 sec)
Calculating Nuclear repulsion               ... done (  0.0 sec) ENN=     72.356169872479 Eh

SHARK setup successfully completed in   0.1 seconds

Maximum memory used throughout the entire GTOINT-calculation: 14.9 MB


           ************************************************************
           *        Program running with 8 parallel MPI-processes     *
           *              working on a common directory               *
           ************************************************************
-------------------------------------------------------------------------------
                                 ORCA SCF
-------------------------------------------------------------------------------

------------
SCF SETTINGS
------------
Hamiltonian:
 Density Functional     Method          .... DFT(GTOs)
 Exchange Functional    Exchange        .... PBE
   PBE kappa parameter   XKappa         ....  0.804000
   PBE mue parameter    XMuePBE         ....  0.219520
 Correlation Functional Correlation     .... PBE
   PBE beta parameter  CBetaPBE         ....  0.066725
 LDA part of GGA corr.  LDAOpt          .... PW91-LDA
 Gradients option       PostSCFGGA      .... off
 Hybrid DFT is turned on
   Fraction HF Exchange ScalHFX         ....  0.250000
   Scaling of DF-GGA-X  ScalDFX         ....  0.750000
   Scaling of DF-GGA-C  ScalDFC         ....  1.000000
   Scaling of DF-LDA-C  ScalLDAC        ....  1.000000
   Perturbative correction              ....  0.000000
   Density functional embedding theory  .... OFF
   NL short-range parameter             ....  6.900000
 RI-approximation to the Coulomb term is turned on
   Number of AuxJ basis functions       .... 191
   RIJ-COSX (HFX calculated with COS-X)).... on


General Settings:
 Integral files         IntName         .... ox_es1_B_orca0003
 Hartree-Fock type      HFTyp           .... RHF
 Total Charge           Charge          ....    0
 Multiplicity           Mult            ....    1
 Number of Electrons    NEL             ....   24
 Basis Dimension        Dim             ....  117
 Nuclear Repulsion      ENuc            ....     72.3561698725 Eh

Convergence Acceleration:
 DIIS                   CNVDIIS         .... on
   Start iteration      DIISMaxIt       ....    12
   Startup error        DIISStart       ....  0.200000
   # of expansion vecs  DIISMaxEq       ....     5
   Bias factor          DIISBfac        ....   1.050
   Max. coefficient     DIISMaxC        ....  10.000
 Trust-Rad. Augm. Hess. CNVTRAH         .... auto
   Auto Start mean grad. ratio tolernc. ....  1.125000
   Auto Start start iteration           ....     1
   Auto Start num. interpolation iter.  ....    10
   Max. Number of Micro iterations      ....    16
   Max. Number of Macro iterations      .... Maxiter - #DIIS iter
   Number of Davidson start vectors     ....     2
   Converg. threshold I  (grad. norm)   ....   1.000e-05
   Converg. threshold II (energy diff.) ....   1.000e-08
   Grad. Scal. Fac. for Micro threshold ....   0.100
   Minimum threshold for Micro iter.    ....   0.010
   NR start threshold (gradient norm)   ....   0.001
   Initial trust radius                 ....   0.400
   Minimum AH scaling param. (alpha)    ....   1.000
   Maximum AH scaling param. (alpha)    .... 1000.000
   Orbital update algorithm             .... Taylor
   White noise on init. David. guess    .... on
   Maximum white noise                  ....   0.010
   Quad. conv. algorithm                .... NR
 SOSCF                  CNVSOSCF        .... on
   Start iteration      SOSCFMaxIt      ....   150
   Startup grad/error   SOSCFStart      ....  0.003300
 Level Shifting         CNVShift        .... on
   Level shift para.    LevelShift      ....    0.2500
   Turn off err/grad.   ShiftErr        ....    0.0010
 Zerner damping         CNVZerner       .... off
 Static damping         CNVDamp         .... on
   Fraction old density DampFac         ....    0.7000
   Max. Damping (<1)    DampMax         ....    0.9800
   Min. Damping (>=0)   DampMin         ....    0.0000
   Turn off err/grad.   DampErr         ....    0.1000
 Fernandez-Rico         CNVRico         .... off

SCF Procedure:
 Maximum # iterations   MaxIter         ....   125
 SCF integral mode      SCFMode         .... Direct
   Integral package                     .... SHARK and LIBINT hybrid scheme
 Reset frequency        DirectResetFreq ....    20
 Integral Threshold     Thresh          ....  2.500e-11 Eh
 Primitive CutOff       TCut            ....  2.500e-12 Eh

Convergence Tolerance:
 Convergence Check Mode ConvCheckMode   .... Total+1el-Energy
 Convergence forced     ConvForced      .... 1
 Energy Change          TolE            ....  1.000e-08 Eh
 1-El. energy change                    ....  1.000e-05 Eh
 Orbital Gradient       TolG            ....  1.000e-05
 Orbital Rotation angle TolX            ....  1.000e-05
 DIIS Error             TolErr          ....  5.000e-07


Diagonalization of the overlap matrix:
Smallest eigenvalue                        ... 2.664e-04
Time for diagonalization                   ...    0.001 sec
Threshold for overlap eigenvalues          ... 1.000e-08
Number of eigenvalues below threshold      ... 0
Time for construction of square roots      ...    0.001 sec
Total time needed                          ...    0.003 sec

---------------------
INITIAL GUESS: MOREAD
---------------------
Guess MOs are being read from file: ox_es1_B_orca0003.ges
Input Geometry matches current geometry (good)
Input basis set matches current basis set (good)
MOs were renormalized
MOs were reorthogonalized (Cholesky)
                      ------------------
                      INITIAL GUESS DONE (   0.0 sec)
                      ------------------
-------------------
DFT GRID GENERATION
-------------------

General Integration Accuracy     IntAcc      ... 4.388
Radial Grid Type                 RadialGrid  ... OptM3 with GC (2021)
Angular Grid (max. ang.)         AngularGrid ... 4 (Lebedev-302)
Angular grid pruning method      GridPruning ... 4 (adaptive)
Weight generation scheme         WeightScheme... Becke
Basis function cutoff            BFCut       ... 1.0000e-11
Integration weight cutoff        WCut        ... 1.0000e-14
Angular grids for H and He will be reduced by one unit
Partially contracted basis set               ... off
Rotationally invariant grid construction     ... off

Total number of grid points                  ...    31285
Total number of batches                      ...      492
Average number of points per batch           ...       63
Average number of grid points per atom       ...     4469
Time for grid setup =    0.118 sec

--------------------
COSX GRID GENERATION
--------------------

GRIDX 1
-------
General Integration Accuracy     IntAcc      ... 3.816
Radial Grid Type                 RadialGrid  ... OptM3 with GC (2021)
Angular Grid (max. ang.)         AngularGrid ... 1 (Lebedev-50)
Angular grid pruning method      GridPruning ... 4 (adaptive)
Weight generation scheme         WeightScheme... Becke
Basis function cutoff            BFCut       ... 1.0000e-11
Integration weight cutoff        WCut        ... 1.0000e-14
Angular grids for H and He will be reduced by one unit
Partially contracted basis set               ... on
Rotationally invariant grid construction     ... off

Total number of grid points                  ...     4039
Total number of batches                      ...       67
Average number of points per batch           ...       60
Average number of grid points per atom       ...      577
UseSFitting                                  ... on

GRIDX 2
-------
General Integration Accuracy     IntAcc      ... 4.020
Radial Grid Type                 RadialGrid  ... OptM3 with GC (2021)
Angular Grid (max. ang.)         AngularGrid ... 2 (Lebedev-110)
Angular grid pruning method      GridPruning ... 4 (adaptive)
Weight generation scheme         WeightScheme... Becke
Basis function cutoff            BFCut       ... 1.0000e-11
Integration weight cutoff        WCut        ... 1.0000e-14
Angular grids for H and He will be reduced by one unit
Partially contracted basis set               ... on
Rotationally invariant grid construction     ... off

Total number of grid points                  ...     8728
Total number of batches                      ...      139
Average number of points per batch           ...       62
Average number of grid points per atom       ...     1247
UseSFitting                                  ... on

GRIDX 3
-------
General Integration Accuracy     IntAcc      ... 4.338
Radial Grid Type                 RadialGrid  ... OptM3 with GC (2021)
Angular Grid (max. ang.)         AngularGrid ... 3 (Lebedev-194)
Angular grid pruning method      GridPruning ... 4 (adaptive)
Weight generation scheme         WeightScheme... Becke
Basis function cutoff            BFCut       ... 1.0000e-11
Integration weight cutoff        WCut        ... 1.0000e-14
Angular grids for H and He will be reduced by one unit
Partially contracted basis set               ... on
Rotationally invariant grid construction     ... off

Total number of grid points                  ...    19231
Total number of batches                      ...      303
Average number of points per batch           ...       63
Average number of grid points per atom       ...     2747
UseSFitting                                  ... on

Time for X-Grid setup             =    0.072 sec

--------------
SCF ITERATIONS
--------------
ITER       Energy         Delta-E        Max-DP      RMS-DP      [F,P]     Damp
               ***  Starting incremental Fock matrix formation  ***
                      *** Initiating the SOSCF procedure ***
                      *** Re-Reading the Fockian *** 
                      *** Removing any level shift *** 
ITER      Energy       Delta-E        Grad      Rot      Max-DP    RMS-DP
  0   -153.61236212 -153.6123621200  0.000001  0.000001  0.000002  0.000000
               *** Restarting incremental Fock matrix formation ***
                  ***Gradient check signals convergence***
              ***Rediagonalizing the Fockian in SOSCF/NRSCF***

               *****************************************************
               *                     SUCCESS                       *
               *           SCF CONVERGED AFTER   1 CYCLES          *
               *****************************************************

Old exchange energy                            =     -4.985330752 Eh
New exchange energy                            =     -4.985338969 Eh
Exchange energy change after final integration =     -0.000008216 Eh
Total energy after final integration           =   -153.612370336 Eh
Final COS-X integration done in                =     0.251 sec

----------------
TOTAL SCF ENERGY
----------------

Total Energy       :         -153.61237034 Eh           -4180.00510 eV

Components:
Nuclear Repulsion  :           72.35616987 Eh            1968.91148 eV
Electronic Energy  :         -225.96854021 Eh           -6148.91658 eV
One Electron Energy:         -351.51508954 Eh           -9565.21187 eV
Two Electron Energy:          125.54654933 Eh            3416.29529 eV
Max COSX asymmetry :            0.00000158 Eh               0.00004 eV

Virial components:
Potential Energy   :         -306.62104687 Eh           -8343.58287 eV
Kinetic Energy     :          153.00867654 Eh            4163.57776 eV
Virial Ratio       :            2.00394549


DFT components:
N(Alpha)           :       11.999997724959 electrons
N(Beta)            :       11.999997724959 electrons
N(Total)           :       23.999995449919 electrons
E(X)               :      -14.942823658647 Eh       
E(C)               :       -0.782257821307 Eh       
E(XC)              :      -15.725081479954 Eh       
DFET-embed. en.    :        0.000000000000 Eh       

---------------
SCF CONVERGENCE
---------------

  Last Energy change         ...    1.0289e-11  Tolerance :   1.0000e-08
  Last MAX-Density change    ...    6.6613e-16  Tolerance :   1.0000e-07
  Last RMS-Density change    ...    1.6249e-17  Tolerance :   5.0000e-09
  Last Orbital Gradient      ...    5.1869e-07  Tolerance :   1.0000e-05
  Last Orbital Rotation      ...    1.7147e-06  Tolerance :   1.0000e-05

             **** THE GBW FILE WAS UPDATED (ox_es1_B_orca0003.gbw) ****
             **** DENSITY ox_es1_B_orca0003.scfp WAS UPDATED ****
             **** ENERGY FILE WAS UPDATED (ox_es1_B_orca0003.en.tmp) ****
             **** THE GBW FILE WAS UPDATED (ox_es1_B_orca0003.gbw) ****
             **** DENSITY ox_es1_B_orca0003.scfp WAS UPDATED ****
----------------
ORBITAL ENERGIES
----------------

  NO   OCC          E(Eh)            E(eV) 
   0   2.0000     -19.211530      -522.7723 
   1   2.0000     -10.279217      -279.7117 
   2   2.0000     -10.271119      -279.4913 
   3   2.0000      -1.017924       -27.6991 
   4   2.0000      -0.759461       -20.6660 
   5   2.0000      -0.637403       -17.3446 
   6   2.0000      -0.543928       -14.8010 
   7   2.0000      -0.483345       -13.1525 
   8   2.0000      -0.413800       -11.2601 
   9   2.0000      -0.378716       -10.3054 
  10   2.0000      -0.325794        -8.8653 
  11   2.0000      -0.274341        -7.4652 
  12   0.0000      -0.023306        -0.6342 
  13   0.0000       0.059740         1.6256 
  14   0.0000       0.086227         2.3464 
  15   0.0000       0.089632         2.4390 
  16   0.0000       0.103330         2.8117 
  17   0.0000       0.152373         4.1463 
  18   0.0000       0.177241         4.8230 
  19   0.0000       0.210293         5.7224 
  20   0.0000       0.246946         6.7197 
  21   0.0000       0.273157         7.4330 
  22   0.0000       0.297691         8.1006 
  23   0.0000       0.298761         8.1297 
  24   0.0000       0.394103        10.7241 
  25   0.0000       0.408537        11.1169 
  26   0.0000       0.412399        11.2219 
  27   0.0000       0.433948        11.8083 
  28   0.0000       0.464081        12.6283 
  29   0.0000       0.499898        13.6029 
  30   0.0000       0.503911        13.7121 
  31   0.0000       0.523717        14.2511 
  32   0.0000       0.583226        15.8704 
  33   0.0000       0.660215        17.9654 
  34   0.0000       0.678806        18.4712 
  35   0.0000       0.764723        20.8092 
  36   0.0000       0.824497        22.4357 
  37   0.0000       0.843983        22.9659 
  38   0.0000       0.863295        23.4915 
  39   0.0000       0.925767        25.1914 
  40   0.0000       0.978993        26.6397 
  41   0.0000       1.036872        28.2147 
  42   0.0000       1.055193        28.7133 
  43   0.0000       1.097603        29.8673 
  44   0.0000       1.186354        32.2823 
  45   0.0000       1.351354        36.7722 
  46   0.0000       1.441575        39.2273 
  47   0.0000       1.452286        39.5187 
  48   0.0000       1.499056        40.7914 
  49   0.0000       1.528766        41.5998 
  50   0.0000       1.618551        44.0430 
  51   0.0000       1.624819        44.2136 
  52   0.0000       1.668418        45.4000 
  53   0.0000       1.675267        45.5863 
  54   0.0000       1.729353        47.0581 
  55   0.0000       1.797311        48.9073 
  56   0.0000       1.814416        49.3728 
  57   0.0000       1.851332        50.3773 
  58   0.0000       1.940962        52.8163 
  59   0.0000       1.972407        53.6719 
  60   0.0000       2.101104        57.1739 
  61   0.0000       2.142161        58.2912 
  62   0.0000       2.189400        59.5766 
  63   0.0000       2.240369        60.9635 
  64   0.0000       2.334325        63.5202 
  65   0.0000       2.397614        65.2424 
  66   0.0000       2.448320        66.6222 
  67   0.0000       2.474361        67.3308 
  68   0.0000       2.508304        68.2544 
  69   0.0000       2.542228        69.1776 
  70   0.0000       2.620978        71.3204 
  71   0.0000       2.651501        72.1510 
  72   0.0000       2.691461        73.2384 
  73   0.0000       2.739451        74.5443 
  74   0.0000       2.793961        76.0275 
  75   0.0000       2.859764        77.8181 
  76   0.0000       2.867409        78.0262 
  77   0.0000       2.885138        78.5086 
  78   0.0000       2.973383        80.9099 
  79   0.0000       3.044841        82.8543 
  80   0.0000       3.073134        83.6242 
  81   0.0000       3.103818        84.4592 
  82   0.0000       3.142842        85.5211 
  83   0.0000       3.184677        86.6595 
  84   0.0000       3.209198        87.3267 
  85   0.0000       3.306055        89.9623 
  86   0.0000       3.429136        93.3115 
  87   0.0000       3.442817        93.6838 
  88   0.0000       3.508266        95.4648 
  89   0.0000       3.563067        96.9560 
  90   0.0000       3.652451        99.3882 
  91   0.0000       3.747510       101.9749 
  92   0.0000       3.885899       105.7407 
  93   0.0000       3.961251       107.7911 
  94   0.0000       4.039712       109.9262 
  95   0.0000       4.130085       112.3853 
  96   0.0000       4.222302       114.8947 
  97   0.0000       4.364719       118.7700 
  98   0.0000       4.544340       123.6578 
  99   0.0000       4.628683       125.9529 
 100   0.0000       4.667077       126.9976 
 101   0.0000       4.912531       133.6768 
 102   0.0000       5.256459       143.0355 
 103   0.0000       5.273702       143.5047 
 104   0.0000       5.383930       146.5042 
 105   0.0000       5.508339       149.8895 
 106   0.0000       5.656417       153.9189 
 107   0.0000       5.658429       153.9737 
 108   0.0000       5.874367       159.8497 
 109   0.0000       6.472854       176.1353 
 110   0.0000       6.480198       176.3351 
 111   0.0000       6.735032       183.2695 
 112   0.0000       6.963270       189.4802 
 113   0.0000       7.055015       191.9767 
 114   0.0000      22.278130       606.2187 
 115   0.0000      22.550524       613.6310 
 116   0.0000      43.692986      1188.9466 

                    ********************************
                    * MULLIKEN POPULATION ANALYSIS *
                    ********************************

-----------------------
MULLIKEN ATOMIC CHARGES
-----------------------
   0 O :   -0.365531
   1 C :   -0.059677
   2 C :   -0.105449
   3 H :    0.125595
   4 H :    0.117896
   5 H :    0.149590
   6 H :    0.137575
Sum of atomic charges:   -0.0000000

--------------------------------
MULLIKEN REDUCED ORBITAL CHARGES
--------------------------------
  0 O s       :     3.909703  s :     3.909703
      pz      :     1.900023  p :     4.428406
      px      :     1.393207
      py      :     1.135175
      dz2     :     0.003905  d :     0.026080
      dxz     :     0.001052
      dyz     :     0.004504
      dx2y2   :     0.007984
      dxy     :     0.008634
      f0      :     0.000146  f :     0.001342
      f+1     :     0.000083
      f-1     :     0.000329
      f+2     :     0.000111
      f-2     :     0.000079
      f+3     :     0.000317
      f-3     :     0.000276
  1 C s       :     3.201630  s :     3.201630
      pz      :     1.060529  p :     2.718042
      px      :     0.931436
      py      :     0.726077
      dz2     :     0.008353  d :     0.129429
      dxz     :     0.025418
      dyz     :     0.035010
      dx2y2   :     0.029607
      dxy     :     0.031042
      f0      :     0.001565  f :     0.010575
      f+1     :     0.001196
      f-1     :     0.000675
      f+2     :     0.002618
      f-2     :     0.000474
      f+3     :     0.001409
      f-3     :     0.002638
  2 C s       :     3.244006  s :     3.244006
      pz      :     1.047170  p :     2.775406
      px      :     0.954884
      py      :     0.773352
      dz2     :     0.009370  d :     0.078668
      dxz     :     0.022148
      dyz     :     0.013329
      dx2y2   :     0.014863
      dxy     :     0.018959
      f0      :     0.001206  f :     0.007368
      f+1     :     0.001076
      f-1     :     0.000222
      f+2     :     0.000992
      f-2     :     0.000630
      f+3     :     0.001319
      f-3     :     0.001923
  3 H s       :     0.852746  s :     0.852746
      pz      :     0.010377  p :     0.021659
      px      :     0.007433
      py      :     0.003849
  4 H s       :     0.862275  s :     0.862275
      pz      :     0.010720  p :     0.019829
      px      :     0.005409
      py      :     0.003700
  5 H s       :     0.828296  s :     0.828296
      pz      :     0.011627  p :     0.022114
      px      :     0.006415
      py      :     0.004072
  6 H s       :     0.837254  s :     0.837254
      pz      :     0.012966  p :     0.025170
      px      :     0.006784
      py      :     0.005421


                     *******************************
                     * LOEWDIN POPULATION ANALYSIS *
                     *******************************

----------------------
LOEWDIN ATOMIC CHARGES
----------------------
   0 O :   -0.055257
   1 C :   -0.327315
   2 C :   -0.102329
   3 H :    0.114361
   4 H :    0.134507
   5 H :    0.135717
   6 H :    0.100317

-------------------------------
LOEWDIN REDUCED ORBITAL CHARGES
-------------------------------
  0 O s       :     3.560899  s :     3.560899
      pz      :     1.828846  p :     4.438283
      px      :     1.370431
      py      :     1.239006
      dz2     :     0.008588  d :     0.052849
      dxz     :     0.002364
      dyz     :     0.009553
      dx2y2   :     0.017738
      dxy     :     0.014605
      f0      :     0.000283  f :     0.003227
      f+1     :     0.000104
      f-1     :     0.000630
      f+2     :     0.000336
      f-2     :     0.000238
      f+3     :     0.000775
      f-3     :     0.000861
  1 C s       :     2.825476  s :     2.825476
      pz      :     1.043314  p :     2.899234
      px      :     1.069386
      py      :     0.786535
      dz2     :     0.057687  d :     0.532085
      dxz     :     0.139221
      dyz     :     0.088021
      dx2y2   :     0.127875
      dxy     :     0.119281
      f0      :     0.009597  f :     0.070520
      f+1     :     0.005319
      f-1     :     0.006330
      f+2     :     0.014603
      f-2     :     0.001837
      f+3     :     0.011739
      f-3     :     0.021096
  2 C s       :     2.832844  s :     2.832844
      pz      :     1.058834  p :     2.891324
      px      :     1.100634
      py      :     0.731856
      dz2     :     0.051229  d :     0.334810
      dxz     :     0.114030
      dyz     :     0.030909
      dx2y2   :     0.067361
      dxy     :     0.071281
      f0      :     0.007753  f :     0.043351
      f+1     :     0.004788
      f-1     :     0.002676
      f+2     :     0.006236
      f-2     :     0.002068
      f+3     :     0.008372
      f-3     :     0.011457
  3 H s       :     0.820685  s :     0.820685
      pz      :     0.032320  p :     0.064954
      px      :     0.020901
      py      :     0.011733
  4 H s       :     0.811930  s :     0.811930
      pz      :     0.029910  p :     0.053563
      px      :     0.013833
      py      :     0.009820
  5 H s       :     0.800461  s :     0.800461
      pz      :     0.033882  p :     0.063822
      px      :     0.017966
      py      :     0.011974
  6 H s       :     0.815392  s :     0.815392
      pz      :     0.043373  p :     0.084291
      px      :     0.023230
      py      :     0.017689


                      *****************************
                      * MAYER POPULATION ANALYSIS *
                      *****************************

  NA   - Mulliken gross atomic population
  ZA   - Total nuclear charge
  QA   - Mulliken gross atomic charge
  VA   - Mayer's total valence
  BVA  - Mayer's bonded valence
  FA   - Mayer's free valence

  ATOM       NA         ZA         QA         VA         BVA        FA
  0 O      8.3655     8.0000    -0.3655     1.8792     1.8792     0.0000
  1 C      6.0597     6.0000    -0.0597     3.9786     3.9786    -0.0000
  2 C      6.1054     6.0000    -0.1054     3.9642     3.9642    -0.0000
  3 H      0.8744     1.0000     0.1256     0.9624     0.9624     0.0000
  4 H      0.8821     1.0000     0.1179     0.9704     0.9704    -0.0000
  5 H      0.8504     1.0000     0.1496     0.9596     0.9596    -0.0000
  6 H      0.8624     1.0000     0.1376     0.9606     0.9606     0.0000

  Mayer bond orders larger than 0.100000
B(  0-O ,  1-C ) :   0.9496 B(  0-O ,  2-C ) :   0.9326 B(  1-C ,  2-C ) :   1.1061 
B(  1-C ,  3-H ) :   0.9541 B(  1-C ,  4-H ) :   0.9616 B(  2-C ,  5-H ) :   0.9491 
B(  2-C ,  6-H ) :   0.9603 

-------
TIMINGS
-------

Total SCF time: 0 days 0 hours 0 min 1 sec 

Total time                  ....       1.006 sec
Sum of individual times     ....       0.899 sec  ( 89.3%)

Fock matrix formation       ....       0.689 sec  ( 68.5%)
  Split-RI-J                ....       0.113 sec  ( 16.4% of F)
  Chain of spheres X        ....       0.506 sec  ( 73.3% of F)
  XC integration            ....       0.061 sec  (  8.8% of F)
    Basis function eval.    ....       0.017 sec  ( 28.1% of XC)
    Density eval.           ....       0.013 sec  ( 22.1% of XC)
    XC-Functional eval.     ....       0.004 sec  (  5.9% of XC)
    XC-Potential eval.      ....       0.020 sec  ( 33.2% of XC)
Diagonalization             ....       0.002 sec  (  0.2%)
Density matrix formation    ....       0.000 sec  (  0.0%)
Population analysis         ....       0.003 sec  (  0.3%)
Initial guess               ....       0.010 sec  (  1.0%)
Orbital Transformation      ....       0.000 sec  (  0.0%)
Orbital Orthonormalization  ....       0.001 sec  (  0.1%)
DIIS solution               ....       0.001 sec  (  0.1%)
SOSCF solution              ....       0.002 sec  (  0.2%)
Grid generation             ....       0.190 sec  ( 18.9%)

Maximum memory used throughout the entire SCF-calculation: 61.1 MB


           ************************************************************
           *        Program running with 8 parallel MPI-processes     *
           *              working on a common directory               *
           ************************************************************
------------------------------------------------------------------------------
                        ORCA TD-DFT/TDA CALCULATION
------------------------------------------------------------------------------

Input orbitals are from        ... ox_es1_B_orca0003.gbw
CI-vector output               ... ox_es1_B_orca0003.cis
Tamm-Dancoff approximation     ... operative
CIS-Integral strategy          ... AO-integrals
Integral handling              ... AO integral Direct
Max. core memory used          ... 3000 MB
Reference state                ... RHF
Generation of triplets         ... off
Follow IRoot                   ... off
Number of operators            ... 1
Orbital ranges used for CIS calculation:
 Operator 0:  Orbitals   3... 11  to  12...116
XAS localization array:
 Operator 0:  Orbitals  -1... -1

-------------------
XC-INTEGRATION GRID
-------------------

General Integration Accuracy     IntAcc      ... 3.467
Radial Grid Type                 RadialGrid  ... OptM3 with GC (2021)
Angular Grid (max. ang.)         AngularGrid ... 1 (Lebedev-50)
Angular grid pruning method      GridPruning ... 4 (adaptive)
Weight generation scheme         WeightScheme... Becke
Basis function cutoff            BFCut       ... 1.0000e-11
Integration weight cutoff        WCut        ... 1.0000e-14
Angular grids for H and He will be reduced by one unit
Partially contracted basis set               ... off
Rotationally invariant grid construction     ... off

Total number of grid points                  ...     4538
Total number of batches                      ...       75
Average number of points per batch           ...       60
Average number of grid points per atom       ...      648

---------------------
COSX-INTEGRATION GRID
---------------------

General Integration Accuracy     IntAcc      ... 3.067
Radial Grid Type                 RadialGrid  ... OptM3 with GC (2021)
Angular Grid (max. ang.)         AngularGrid ... 1 (Lebedev-50)
Angular grid pruning method      GridPruning ... 4 (adaptive)
Weight generation scheme         WeightScheme... Becke
Basis function cutoff            BFCut       ... 1.0000e-11
Integration weight cutoff        WCut        ... 1.0000e-14
Angular grids for H and He will be reduced by one unit
Partially contracted basis set               ... on
Rotationally invariant grid construction     ... off

Total number of grid points                  ...     2086
Total number of batches                      ...       38
Average number of points per batch           ...       54
Average number of grid points per atom       ...      298

---------------
TD-DFT XC SETUP
---------------

DFT calculation                         ... on
Name of the grid file                   ... ox_es1_B_orca0003.grid_cis.tmp
Exchange functional (TD-DFT)            ... PBE
   PBE kappa parameter  XKappa (TD-DFT) ...  0.804000
   PBE mue parameter   XMuePBE (TD-DFT) ...  0.219520
Correlation functional (TD-DFT)         ... PBE
   PBE beta parameter CBetaPBE (TD-DFT) ...  0.066725
 LDA part of GGA corr.  LDAOpt (TD-DFT) ... PW91-LDA
Hybrid DFT                              ... on
   Exchange mixing (TD-DFT)             ...  0.250
   GGA exch. scaling (TD-DFT)           ...  0.750
   GGA corr. scaling (TD-DFT)           ...  1.000

Building densities             ... done
Calculating rho(r) on the grid ... done
Building xc-kernel on the grid ... done
                    *** TD-DFT CALCULATION INITIALIZED ***

------------------------
DAVIDSON-DIAGONALIZATION
------------------------

Dimension of the eigenvalue problem            ...    945
Number of roots to be determined               ...      1
Maximum size of the expansion space            ...     10
Maximum number of iterations                   ...    100
Convergence tolerance for the residual         ...    2.500e-07
Convergence tolerance for the energies         ...    2.500e-07
Orthogonality tolerance                        ...    1.000e-14
Level Shift                                    ...    0.000e+00
Constructing the preconditioner                ... o.k.
Building the initial guess                     ... o.k.
Number of trial vectors determined             ...     10


                       ****Iteration    0****

   Memory handling for direct AO based CIS:
   Memory per vector needed      ...     1 MB
   Memory needed                 ...     1 MB
   Memory available              ...  3000 MB
   Number of vectors per batch   ...  3000
   Number of batches             ...     1
   Time for densities:            0.001
   Time for RI-J (Direct):        0.736
   Time for K (COSX):             0.073
   Time for XC-Integration:       0.015
   Time for Sigma-Completion:     0.000
   Size of expansion space: 3
   Lowest Energy          :     0.167670391436
   Maximum Energy change  :     0.167670391436 (vector 0)
   Maximum residual norm  :     0.004004574149

                       ****Iteration    1****
   Time for densities:            0.000
   Time for RI-J (Direct):        0.708
   Time for K (COSX):             0.055
   Time for XC-Integration:       0.006
   Time for Sigma-Completion:     0.000
   Size of expansion space: 4
   Lowest Energy          :     0.164441752901
   Maximum Energy change  :     0.003228638535 (vector 0)
   Maximum residual norm  :     0.000134235687

                       ****Iteration    2****
   Time for densities:            0.000
   Time for RI-J (Direct):        0.012
   Time for K (COSX):             0.047
   Time for XC-Integration:       0.006
   Time for Sigma-Completion:     0.000
   Size of expansion space: 5
   Lowest Energy          :     0.164341121221
   Maximum Energy change  :     0.000100631681 (vector 0)
   Maximum residual norm  :     0.000003771359

                       ****Iteration    3****
   Time for densities:            0.000
   Time for RI-J (Direct):        0.012
   Time for K (COSX):             0.047
   Time for XC-Integration:       0.006
   Time for Sigma-Completion:     0.000
   Size of expansion space: 6
   Lowest Energy          :     0.164337136731
   Maximum Energy change  :     0.000003984490 (vector 0)
   Maximum residual norm  :     0.000000302008

                       ****Iteration    4****
   Time for densities:            0.000
   Time for RI-J (Direct):        0.012
   Time for K (COSX):             0.049
   Time for XC-Integration:       0.006
   Time for Sigma-Completion:     0.000
   Size of expansion space: 7
   Lowest Energy          :     0.164336847211
   Maximum Energy change  :     0.000000289520 (vector 0)
   Maximum residual norm  :     0.000000027772

      *** CONVERGENCE OF RESIDUAL NORM REACHED ***

Storing the converged CI vectors               ... ox_es1_B_orca0003.cis1

                 *** DAVIDSON DONE ***

Total time for solving the CIS problem:     1.810sec

------------------------------------
TD-DFT/TDA EXCITED STATES (SINGLETS)
------------------------------------

the weight of the individual excitations are printed if larger than 1.0e-02

STATE  1:  E=   0.164337 au      4.472 eV    36067.8 cm**-1 <S**2> =   0.000000
    11a ->  12a  :     0.990034 (c=  0.99500456)


-----------------------------
TD-DFT/TDA-EXCITATION SPECTRA
-----------------------------

Center of mass = ( -0.1050,  0.0205, -0.0682)
Calculating the Dipole integrals                  ... done
Transforming integrals                            ... done
Calculating the Linear Momentum integrals         ... done
Transforming integrals                            ... done
Calculating angular momentum integrals            ... done
Transforming integrals                            ... done

-----------------------------------------------------------------------------
         ABSORPTION SPECTRUM VIA TRANSITION ELECTRIC DIPOLE MOMENTS
-----------------------------------------------------------------------------
State   Energy    Wavelength  fosc         T2        TX        TY        TZ  
        (cm-1)      (nm)                 (au**2)    (au)      (au)      (au) 
-----------------------------------------------------------------------------
   1   36067.8    277.3   0.001243894   0.01135   0.00192  -0.01441  -0.10556

-----------------------------------------------------------------------------
         ABSORPTION SPECTRUM VIA TRANSITION VELOCITY DIPOLE MOMENTS
-----------------------------------------------------------------------------
State   Energy    Wavelength   fosc        P2         PX        PY        PZ  
        (cm-1)      (nm)                 (au**2)     (au)      (au)      (au) 
-----------------------------------------------------------------------------
   1   36067.8    277.3   0.013653160   0.00337  -0.00087   0.00891   0.05732

-------------------------------------------------------------------
                             CD SPECTRUM
-------------------------------------------------------------------
State  Energy     Wavelength     R         MX        MY        MZ   
       (cm-1)       (nm)     (1e40*cgs)   (au)      (au)      (au)  
-------------------------------------------------------------------
   1   36067.8    277.3     -0.46602   0.01396   0.20094  -0.01781

-------------------------------------------------------------------
         CD SPECTRUM VIA TRANSITION VELOCITY DIPOLE MOMENTS        
-------------------------------------------------------------------
State  Energy     Wavelength     R         MX        MY        MZ   
       (cm-1)       (nm)     (1e40*cgs)   (au)      (au)      (au)  
-------------------------------------------------------------------
   1   36067.8    277.3      2.17057   0.01396   0.20094  -0.01781

Total run time:        2.226 sec

           *** ORCA-CIS/TD-DFT FINISHED WITHOUT ERROR ***

Maximum memory used throughout the entire CIS-calculation: 49.4 MB

-----------------------
CIS/TD-DFT TOTAL ENERGY
-----------------------

    E(SCF)  =   -153.612370336 Eh
    DE(CIS) =      0.164336847 Eh (Root  1)
    ----------------------------- ---------
    E(tot)  =   -153.448033489 Eh



-------------------------------------------------------------------------------
                          DFT DISPERSION CORRECTION                            
                                                                               
                              DFTD3 V3.1  Rev 1                                
                          USING Becke-Johnson damping                          
-------------------------------------------------------------------------------
The PBE0 functional is recognized
Active option DFTDOPT                   ...         4   

molecular C6(AA) [au] = 358.036878 


            DFT-D V3
 parameters
 s6 scaling factor         :     1.0000 
 a1 scaling factor         :     0.4145 
 s8 scaling factor         :     1.2177 
 a2 scaling factor         :     4.8593 
 ad hoc parameters k1-k3   :    16.0000     1.3333    -4.0000 

 Edisp/kcal,au: -1.546272021120  -0.002464141053 
 E6   /kcal   :  -1.013789034 
 E8   /kcal   :  -0.532482987 
 % E8         :  34.436566107 

-------------------------   ----------------
Dispersion correction           -0.002464141
-------------------------   ----------------


-------------------------   --------------------
FINAL SINGLE POINT ENERGY      -153.450497630104
-------------------------   --------------------



           ************************************************************
           *        Program running with 8 parallel MPI-processes     *
           *              working on a common directory               *
           ************************************************************
------------------------------------------------------------------------------
                         ORCA SCF GRADIENT CALCULATION
------------------------------------------------------------------------------


------------------------
TD-DFT GRADIENT XC SETUP
------------------------

Building densities                     ... done
Calculating rho(r) on the grid         ... done
Building xc-kernel on the grid         ... done
Building xc 3rd derivative on the grid      ... done
                *** TD-DFT GRADIENT CALCULATION INITIALIZED ***

-------------------
TD-DFT/TDA GRADIENT
-------------------

Reference wavefunction             ... RHF
State of interest                  ... 1
Basis dimension                    ... 117
DFT-XC contribution needed         ... YES
RI-approximation                   ... ON
CIS-vectors being read from        ... ox_es1_B_orca0003.cis

 => Number of Vectors found: 1
 => Orbital Window: 3...11 -> 12...116

Reading the CIS file                     ... done
Norm of the CI vector                    ... 1.000000000
Making the CIS (pseudo)densities         ... done
Making operators G(D) and Q(T)           ... done
Transforming the Fock operators          ... done
Making the frozen-core relaxed density   ... done
Constructing the G(H) operator           ... done
Transforming the G(H) operator           ... done
Calculating the CIS Lagrangian           ... done
Solving the Z-vector equations           ... done
Finalizing the relaxed density           ... done
Storing the relaxed density              ... done
Constructing the G(Z) operator           ... done
Transforming the G(Z) operator           ... done
Making the W-matrix                      ... done
Finalizing the W-matrix                  ... done
Transforming the W-matrix                ... done
Nuclear repulsion gradient               ... done
One-Electron gradient                    ... done
Dispersion correction                    ... done
Prescreening matrices                    ... done
COSX-gradient                            ... done
Coulomb gradient (RI)                    ... done
Exchange-Correlation gradient            ... done

                 ---------------------------
                 EXCITED STATE GRADIENT DONE
                 ---------------------------

------------------
CARTESIAN GRADIENT
------------------

   1   O   :    0.080299912   -0.055536282    0.000658265
   2   C   :    0.008240969   -0.062452616    0.059512967
   3   C   :   -0.030179512    0.101615157    0.079391654
   4   H   :    0.012903994    0.006331411   -0.015356820
   5   H   :   -0.003887797    0.005365193   -0.021888256
   6   H   :   -0.007040157   -0.002883789   -0.005937889
   7   H   :   -0.060354119    0.007532419   -0.096380760

Difference to translation invariance:
           :   -0.0000167107   -0.0000285085   -0.0000008394

Difference to rotation invariance:
           :    0.0000587406   -0.0000220136    0.0009166188

Norm of the cartesian gradient     ...    0.2205209200
RMS gradient                       ...    0.0481216099
MAX gradient                       ...    0.1016151567

------------------------------------------------------------------------------
                  RELAXED CIS/TDA DENSITY POPULATION ANALYSIS
                                   IROOT 1
------------------------------------------------------------------------------
------------------------------------------------------------------------------
                           ORCA POPULATION ANALYSIS
------------------------------------------------------------------------------
Input electron density              ... ox_es1_B_orca0003.cisp
BaseName (.gbw .S,...)              ... ox_es1_B_orca0003

                    ********************************
                    * MULLIKEN POPULATION ANALYSIS *
                    ********************************

-----------------------
MULLIKEN ATOMIC CHARGES
-----------------------
   0 O :   -0.087735
   1 C :   -0.077646
   2 C :   -0.414888
   3 H :    0.152831
   4 H :    0.146552
   5 H :    0.144879
   6 H :    0.136007
Sum of atomic charges:   -0.0000000

--------------------------------
MULLIKEN REDUCED ORBITAL CHARGES
--------------------------------
  0 O s       :     3.867078  s :     3.867078
      pz      :     1.065422  p :     4.196570
      px      :     1.757382
      py      :     1.373766
      dz2     :     0.002707  d :     0.023339
      dxz     :     0.001146
      dyz     :     0.004476
      dx2y2   :     0.007039
      dxy     :     0.007970
      f0      :    -0.000003  f :     0.000749
      f+1     :    -0.000070
      f-1     :     0.000063
      f+2     :     0.000113
      f-2     :     0.000053
      f+3     :     0.000345
      f-3     :     0.000247
  1 C s       :     3.207066  s :     3.207066
      pz      :     1.036879  p :     2.747878
      px      :     0.990448
      py      :     0.720551
      dz2     :     0.010285  d :     0.112846
      dxz     :     0.027693
      dyz     :     0.014402
      dx2y2   :     0.029480
      dxy     :     0.030986
      f0      :     0.000968  f :     0.009857
      f+1     :     0.001240
      f-1     :     0.000530
      f+2     :     0.001522
      f-2     :     0.000327
      f+3     :     0.002438
      f-3     :     0.002832
  2 C s       :     3.275570  s :     3.275570
      pz      :     1.048907  p :     3.065311
      px      :     0.894666
      py      :     1.121737
      dz2     :     0.008867  d :     0.066999
      dxz     :     0.013551
      dyz     :     0.002515
      dx2y2   :     0.020962
      dxy     :     0.021105
      f0      :     0.001024  f :     0.007008
      f+1     :     0.000903
      f-1     :     0.000475
      f+2     :     0.000841
      f-2     :     0.000305
      f+3     :     0.001869
      f-3     :     0.001593
  3 H s       :     0.825239  s :     0.825239
      pz      :     0.010765  p :     0.021929
      px      :     0.007561
      py      :     0.003604
  4 H s       :     0.833372  s :     0.833372
      pz      :     0.011066  p :     0.020077
      px      :     0.005660
      py      :     0.003351
  5 H s       :     0.830638  s :     0.830638
      pz      :     0.010387  p :     0.024482
      px      :     0.006274
      py      :     0.007821
  6 H s       :     0.835701  s :     0.835701
      pz      :     0.011655  p :     0.028292
      px      :     0.006502
      py      :     0.010135


                     *******************************
                     * LOEWDIN POPULATION ANALYSIS *
                     *******************************

----------------------
LOEWDIN ATOMIC CHARGES
----------------------
   0 O :    0.163738
   1 C :   -0.310691
   2 C :   -0.357624
   3 H :    0.134308
   4 H :    0.160232
   5 H :    0.122918
   6 H :    0.087119

-------------------------------
LOEWDIN REDUCED ORBITAL CHARGES
-------------------------------
  0 O s       :     3.596351  s :     3.596351
      pz      :     1.034246  p :     4.174419
      px      :     1.703160
      py      :     1.437014
      dz2     :     0.010430  d :     0.062439
      dxz     :     0.002657
      dyz     :     0.009647
      dx2y2   :     0.017192
      dxy     :     0.022513
      f0      :     0.000278  f :     0.003053
      f+1     :     0.000042
      f-1     :     0.000462
      f+2     :     0.000309
      f-2     :     0.000217
      f+3     :     0.000959
      f-3     :     0.000786
  1 C s       :     2.830900  s :     2.830900
      pz      :     1.012029  p :     2.916816
      px      :     1.115225
      py      :     0.789562
      dz2     :     0.059378  d :     0.488556
      dxz     :     0.137037
      dyz     :     0.040672
      dx2y2   :     0.142557
      dxy     :     0.108911
      f0      :     0.006988  f :     0.074419
      f+1     :     0.005199
      f-1     :     0.006235
      f+2     :     0.010093
      f-2     :     0.001469
      f+3     :     0.020646
      f-3     :     0.023789
  2 C s       :     2.841146  s :     2.841146
      pz      :     1.054495  p :     3.101070
      px      :     1.071978
      py      :     0.974597
      dz2     :     0.061996  d :     0.368311
      dxz     :     0.104569
      dyz     :     0.013192
      dx2y2   :     0.082403
      dxy     :     0.106151
      f0      :     0.007432  f :     0.047097
      f+1     :     0.005119
      f-1     :     0.003992
      f+2     :     0.005330
      f-2     :     0.001361
      f+3     :     0.013073
      f-3     :     0.010788
  3 H s       :     0.800073  s :     0.800073
      pz      :     0.033065  p :     0.065618
      px      :     0.021454
      py      :     0.011100
  4 H s       :     0.785669  s :     0.785669
      pz      :     0.030517  p :     0.054099
      px      :     0.014616
      py      :     0.008966
  5 H s       :     0.807336  s :     0.807336
      pz      :     0.030525  p :     0.069747
      px      :     0.017622
      py      :     0.021600
  6 H s       :     0.819513  s :     0.819513
      pz      :     0.039861  p :     0.093368
      px      :     0.022583
      py      :     0.030924


                      *****************************
                      * MAYER POPULATION ANALYSIS *
                      *****************************

  NA   - Mulliken gross atomic population
  ZA   - Total nuclear charge
  QA   - Mulliken gross atomic charge
  VA   - Mayer's total valence
  BVA  - Mayer's bonded valence
  FA   - Mayer's free valence

  ATOM       NA         ZA         QA         VA         BVA        FA
  0 O      8.0877     8.0000    -0.0877     1.9126     1.0058     0.9069
  1 C      6.0776     6.0000    -0.0776     3.9525     3.8687     0.0838
  2 C      6.4149     6.0000    -0.4149     3.9688     3.1929     0.7760
  3 H      0.8472     1.0000     0.1528     0.9636     0.9378     0.0258
  4 H      0.8534     1.0000     0.1466     0.9649     0.9237     0.0413
  5 H      0.8551     1.0000     0.1449     0.9816     0.9749     0.0067
  6 H      0.8640     1.0000     0.1360     0.9894     0.9778     0.0117

  Mayer bond orders larger than 0.100000
B(  0-O ,  1-C ) :   0.9122 B(  1-C ,  2-C ) :   1.1407 B(  1-C ,  3-H ) :   0.9241 
B(  1-C ,  4-H ) :   0.9021 B(  2-C ,  5-H ) :   0.9668 B(  2-C ,  6-H ) :   0.9797 



-------
TIMINGS
-------

Total TD-DFT gradient time         ...        5.329 sec

Fock matrix formation       ....       0.865 sec  ( 16.2%)
  Coulomb formation         ....       0.713 sec  ( 82.4% of F)
  RI-J                      ....       0.331 sec  ( 38.3% of F)
  Chain of spheres X        ....       0.381 sec  ( 44.1% of F)
  XC integration            ....       0.152 sec  ( 17.6% of F)
Z-vector equation           ....       1.575 sec  ( 29.6%)
One electron gradient       ....       0.034 sec  (  0.6%)
Prescreening matrices       ....       0.157 sec  (  2.9%)
RI-J Coulomb gradient       ....       0.265 sec  (  5.0%)
COSX gradient               ....       0.337 sec  (  6.3%)
XC gradient                 ....       1.641 sec  ( 30.8%)

Maximum memory used throughout the entire SCFGRAD-calculation: 130.3 MB

                            ***************************************
                            *     ORCA property calculations      *
                            ***************************************

                                    ---------------------
                                    Active property flags
                                    ---------------------
   (+) Dipole Moment


------------------------------------------------------------------------------
                       ORCA ELECTRIC PROPERTIES CALCULATION
------------------------------------------------------------------------------

Dipole Moment Calculation                       ... on
Quadrupole Moment Calculation                   ... off
Polarizability Calculation                      ... off
GBWName                                         ... ox_es1_B_orca0003.gbw
Electron density                                ... ox_es1_B_orca0003.scfp
The origin for moment calculation is the CENTER OF MASS  = (-0.105035,  0.020528 -0.068171)

-------------
DIPOLE MOMENT
-------------
                                X             Y             Z
Electronic contribution:      0.01954       1.36052       0.03925
Nuclear contribution   :      0.19534      -2.43589       0.06556
                        -----------------------------------------
Total Dipole Moment    :      0.21488      -1.07537       0.10481
                        -----------------------------------------
Magnitude (a.u.)       :      1.10162
Magnitude (Debye)      :      2.80010



--------------------
Rotational spectrum 
--------------------
 
Rotational constants in cm-1:     0.899828     0.597476     0.419910 
Rotational constants in MHz : 26976.173779 17911.876062 12588.592110 

 Dipole components along the rotational axes: 
x,y,z [a.u.] :    -1.010351    -0.439018    -0.005232 
x,y,z [Debye]:    -2.568109    -1.115896    -0.013299 

 

                        *** CIS RELAXED DENSITY ***

------------------------------------------------------------------------------
                       ORCA ELECTRIC PROPERTIES CALCULATION
------------------------------------------------------------------------------

Dipole Moment Calculation                       ... on
Quadrupole Moment Calculation                   ... off
Polarizability Calculation                      ... off
GBWName                                         ... ox_es1_B_orca0003.gbw
Electron density                                ... ox_es1_B_orca0003.cisp
The origin for moment calculation is the CENTER OF MASS  = (-0.105035,  0.020528 -0.068171)

-------------
DIPOLE MOMENT
-------------
                                X             Y             Z
Electronic contribution:     -0.66117       1.96601      -0.02836
Nuclear contribution   :      0.19534      -2.43589       0.06556
                        -----------------------------------------
Total Dipole Moment    :     -0.46584      -0.46988       0.03720
                        -----------------------------------------
Magnitude (a.u.)       :      0.66270
Magnitude (Debye)      :      1.68445



--------------------
Rotational spectrum 
--------------------
 
Rotational constants in cm-1:     0.899828     0.597476     0.419910 
Rotational constants in MHz : 26976.173779 17911.876062 12588.592110 

 Dipole components along the rotational axes: 
x,y,z [a.u.] :    -0.121837    -0.651307    -0.011234 
x,y,z [Debye]:    -0.309685    -1.655491    -0.028554 

 

Timings for individual modules:

Sum of individual times         ...        9.415 sec (=   0.157 min)
GTO integral calculation        ...        0.263 sec (=   0.004 min)   2.8 %
SCF iterations                  ...        1.169 sec (=   0.019 min)  12.4 %
CIS module                      ...        2.470 sec (=   0.041 min)  26.2 %
SCF Gradient evaluation         ...        5.513 sec (=   0.092 min)  58.6 %
                             ****ORCA TERMINATED NORMALLY****
TOTAL RUN TIME: 0 days 0 hours 0 minutes 9 seconds 781 msec
