
                                 *****************
                                 * O   R   C   A *
                                 *****************

                                            #,                                       
                                            ###                                      
                                            ####                                     
                                            #####                                    
                                            ######                                   
                                           ########,                                 
                                     ,,################,,,,,                         
                               ,,#################################,,                 
                          ,,##########################################,,             
                       ,#########################################, ''#####,          
                    ,#############################################,,   '####,        
                  ,##################################################,,,,####,       
                ,###########''''           ''''###############################       
              ,#####''   ,,,,##########,,,,          '''####'''          '####       
            ,##' ,,,,###########################,,,                        '##       
           ' ,,###''''                  '''############,,,                           
         ,,##''                                '''############,,,,        ,,,,,,###''
      ,#''                                            '''#######################'''  
     '                                                          ''''####''''         
             ,#######,   #######,   ,#######,      ##                                
            ,#'     '#,  ##    ##  ,#'     '#,    #''#        ######   ,####,        
            ##       ##  ##   ,#'  ##            #'  '#       #        #'  '#        
            ##       ##  #######   ##           ,######,      #####,   #    #        
            '#,     ,#'  ##    ##  '#,     ,#' ,#      #,         ##   #,  ,#        
             '#######'   ##     ##  '#######'  #'      '#     #####' # '####'        



                  #######################################################
                  #                        -***-                        #
                  #          Department of theory and spectroscopy      #
                  #    Directorship and core code : Frank Neese         #
                  #        Max Planck Institute fuer Kohlenforschung    #
                  #                Kaiser Wilhelm Platz 1               #
                  #                 D-45470 Muelheim/Ruhr               #
                  #                      Germany                        #
                  #                                                     #
                  #                  All rights reserved                #
                  #                        -***-                        #
                  #######################################################


                         Program Version 5.0.2 -  RELEASE  -


 With contributions from (in alphabetic order):
   Daniel Aravena         : Magnetic Suceptibility
   Michael Atanasov       : Ab Initio Ligand Field Theory (pilot matlab implementation)
   Alexander A. Auer      : GIAO ZORA, VPT2 properties, NMR spectrum
   Ute Becker             : Parallelization
   Giovanni Bistoni       : ED, misc. LED, open-shell LED, HFLD
   Martin Brehm           : Molecular dynamics
   Dmytro Bykov           : SCF Hessian
   Vijay G. Chilkuri      : MRCI spin determinant printing, contributions to CSF-ICE
   Dipayan Datta          : RHF DLPNO-CCSD density
   Achintya Kumar Dutta   : EOM-CC, STEOM-CC
   Dmitry Ganyushin       : Spin-Orbit,Spin-Spin,Magnetic field MRCI
   Miquel Garcia          : C-PCM and meta-GGA Hessian, CC/C-PCM, Gaussian charge scheme
   Yang Guo               : DLPNO-NEVPT2, F12-NEVPT2, CIM, IAO-localization
   Andreas Hansen         : Spin unrestricted coupled pair/coupled cluster methods
   Benjamin Helmich-Paris : MC-RPA, TRAH-SCF, COSX integrals
   Lee Huntington         : MR-EOM, pCC
   Robert Izsak           : Overlap fitted RIJCOSX, COSX-SCS-MP3, EOM
   Marcus Kettner         : VPT2
   Christian Kollmar      : KDIIS, OOCD, Brueckner-CCSD(T), CCSD density, CASPT2, CASPT2-K
   Simone Kossmann        : Meta GGA functionals, TD-DFT gradient, OOMP2, MP2 Hessian
   Martin Krupicka        : Initial AUTO-CI
   Lucas Lang             : DCDCAS
   Marvin Lechner         : AUTO-CI (C++ implementation), FIC-MRCC
   Dagmar Lenk            : GEPOL surface, SMD
   Dimitrios Liakos       : Extrapolation schemes; Compound Job, initial MDCI parallelization
   Dimitrios Manganas     : Further ROCIS development; embedding schemes
   Dimitrios Pantazis     : SARC Basis sets
   Anastasios Papadopoulos: AUTO-CI, single reference methods and gradients
   Taras Petrenko         : DFT Hessian,TD-DFT gradient, ASA, ECA, R-Raman, ABS, FL, XAS/XES, NRVS
   Peter Pinski           : DLPNO-MP2, DLPNO-MP2 Gradient
   Christoph Reimann      : Effective Core Potentials
   Marius Retegan         : Local ZFS, SOC
   Christoph Riplinger    : Optimizer, TS searches, QM/MM, DLPNO-CCSD(T), (RO)-DLPNO pert. Triples
   Tobias Risthaus        : Range-separated hybrids, TD-DFT gradient, RPA, STAB
   Michael Roemelt        : Original ROCIS implementation
   Masaaki Saitow         : Open-shell DLPNO-CCSD energy and density
   Barbara Sandhoefer     : DKH picture change effects
   Avijit Sen             : IP-ROCIS
   Kantharuban Sivalingam : CASSCF convergence, NEVPT2, FIC-MRCI
   Bernardo de Souza      : ESD, SOC TD-DFT
   Georgi Stoychev        : AutoAux, RI-MP2 NMR, DLPNO-MP2 response
   Willem Van den Heuvel  : Paramagnetic NMR
   Boris Wezisla          : Elementary symmetry handling
   Frank Wennmohs         : Technical directorship


 We gratefully acknowledge several colleagues who have allowed us to
 interface, adapt or use parts of their codes:
   Stefan Grimme, W. Hujo, H. Kruse, P. Pracht,  : VdW corrections, initial TS optimization,
                  C. Bannwarth, S. Ehlert          DFT functionals, gCP, sTDA/sTD-DF
   Ed Valeev, F. Pavosevic, A. Kumar             : LibInt (2-el integral package), F12 methods
   Garnet Chan, S. Sharma, J. Yang, R. Olivares  : DMRG
   Ulf Ekstrom                                   : XCFun DFT Library
   Mihaly Kallay                                 : mrcc  (arbitrary order and MRCC methods)
   Jiri Pittner, Ondrej Demel                    : Mk-CCSD
   Frank Weinhold                                : gennbo (NPA and NBO analysis)
   Christopher J. Cramer and Donald G. Truhlar   : smd solvation model
   Lars Goerigk                                  : TD-DFT with DH, B97 family of functionals
   V. Asgeirsson, H. Jonsson                     : NEB implementation
   FAccTs GmbH                                   : IRC, NEB, NEB-TS, DLPNO-Multilevel, CI-OPT
                                                   MM, QMMM, 2- and 3-layer-ONIOM, Crystal-QMMM,
                                                   LR-CPCM, SF, NACMEs, symmetry and pop. for TD-DFT,
                                                   nearIR, NL-DFT gradient (VV10), updates on ESD,
                                                   ML-optimized integration grids
   S Lehtola, MJT Oliveira, MAL Marques          : LibXC Library
   Liviu Ungur et al                             : ANISO software


 Your calculation uses the libint2 library for the computation of 2-el integrals
 For citations please refer to: http://libint.valeyev.net

 Your ORCA version has been built with support for libXC version: 5.1.0
 For citations please refer to: https://tddft.org/programs/libxc/

 This ORCA versions uses:
   CBLAS   interface :  Fast vector & matrix operations
   LAPACKE interface :  Fast linear algebra routines
   SCALAPACK package :  Parallel linear algebra routines
   Shared memory     :  Shared parallel matrices
   BLAS/LAPACK       :  OpenBLAS 0.3.15  USE64BITINT DYNAMIC_ARCH NO_AFFINITY SkylakeX SINGLE_THREADED
        Core in use  :  SkylakeX
   Copyright (c) 2011-2014, The OpenBLAS Project


Your calculation utilizes the atom-pairwise dispersion correction
with the Becke-Johnson damping scheme (D3BJ)
Cite in your paper:
S.Grimme, S.Ehrlich, L.Goerigk, J Comput Chem, (2011), 32, 1456–1465 
S.Grimme, J.Antony, S.Ehrlich and H.Krieg, J.Chem.Phys., 132, (2010), 154104 
   

================================================================================

----- Orbital basis set information -----
Your calculation utilizes the basis: def2-TZVP
   F. Weigend and R. Ahlrichs, Phys. Chem. Chem. Phys. 7, 3297 (2005).

----- AuxJ basis set information -----
Your calculation utilizes the auxiliary basis: def2/J
   F. Weigend, Phys. Chem. Chem. Phys. 8, 1057 (2006).

================================================================================
                                        WARNINGS
                       Please study these warnings very carefully!
================================================================================

INFO   : Checking CIS options ...

WARNING: CIS/ROCIS methods need fully converged wavefunctions
  ===> : Setting SCFConvForced true
         You can overwrite this default with %scf ConvForced false 


INFO   : the flag for use of the SHARK integral package has been found!

================================================================================
                                       INPUT FILE
================================================================================
NAME = ox_es1_A_orca0021.inp
|  1> ! engrad PBE0 D3BJ def2-TZVP  
|  2> %pal nprocs 8 end
|  3> %maxcore 3000
|  4> 
|  5> %tddft
|  6>   nroots 1
|  7>   tda true
|  8>   Iroot 1
|  9>   end 
| 10> *xyz 0 1 
| 11> O   -0.0016346874047046558 0.6635522049980063 -0.00445589197563942
| 12> C   -0.7941130650252426 -0.4135368625584981 0.018329912304842415
| 13> C   0.6818955506836322 -0.4727138358668347 -0.05296067609444758
| 14> H   -1.2669568848636585 -0.620513693974938 0.8706899176832228
| 15> H   -1.2386204442241078 -0.6947837909186221 -0.9596198616131172
| 16> H   1.258471302002272 -0.7200329761209687 -0.9476586852673591
| 17> H   1.2039289753705575 -0.5700345533541805 0.9217393475985864
| 18> *
| 19> 
| 20>                          ****END OF INPUT****
================================================================================

                     *******************************
                     * Energy+Gradient Calculation *
                     *******************************

---------------------------------
CARTESIAN COORDINATES (ANGSTROEM)
---------------------------------
  O     -0.001635    0.663552   -0.004456
  C     -0.794113   -0.413537    0.018330
  C      0.681896   -0.472714   -0.052961
  H     -1.266957   -0.620514    0.870690
  H     -1.238620   -0.694784   -0.959620
  H      1.258471   -0.720033   -0.947659
  H      1.203929   -0.570035    0.921739

----------------------------
CARTESIAN COORDINATES (A.U.)
----------------------------
  NO LB      ZA    FRAG     MASS         X           Y           Z
   0 O     8.0000    0    15.999   -0.003089    1.253932   -0.008420
   1 C     6.0000    0    12.011   -1.500656   -0.781471    0.034639
   2 C     6.0000    0    12.011    1.288596   -0.893300   -0.100081
   3 H     1.0000    0     1.008   -2.394202   -1.172601    1.645365
   4 H     1.0000    0     1.008   -2.340653   -1.312951   -1.813419
   5 H     1.0000    0     1.008    2.378166   -1.360665   -1.790815
   6 H     1.0000    0     1.008    2.275096   -1.077209    1.741835

--------------------------------
INTERNAL COORDINATES (ANGSTROEM)
--------------------------------
 O      0   0   0     0.000000000000     0.00000000     0.00000000
 C      1   0   0     1.337408700182     0.00000000     0.00000000
 C      1   2   0     1.326901208111    67.43155668     0.00000000
 H      2   1   3     0.996462877116   117.58293443   109.67360665
 H      2   1   3     1.110437933961   115.22466006   261.69352600
 H      3   1   2     1.092744655335   119.70578219   114.64915891
 H      3   1   2     1.109968627813   106.57414620   250.00822871

---------------------------
INTERNAL COORDINATES (A.U.)
---------------------------
 O      0   0   0     0.000000000000     0.00000000     0.00000000
 C      1   0   0     2.527336172468     0.00000000     0.00000000
 C      1   2   0     2.507479890099    67.43155668     0.00000000
 H      2   1   3     1.883041940369   117.58293443   109.67360665
 H      2   1   3     2.098423583904   115.22466006   261.69352600
 H      3   1   2     2.064988132889   119.70578219   114.64915891
 H      3   1   2     2.097536723812   106.57414620   250.00822871

---------------------
BASIS SET INFORMATION
---------------------
There are 3 groups of distinct atoms

 Group   1 Type O   : 11s6p2d1f contracted to 5s3p2d1f pattern {62111/411/11/1}
 Group   2 Type C   : 11s6p2d1f contracted to 5s3p2d1f pattern {62111/411/11/1}
 Group   3 Type H   : 5s1p contracted to 3s1p pattern {311/1}

Atom   0O    basis set group =>   1
Atom   1C    basis set group =>   2
Atom   2C    basis set group =>   2
Atom   3H    basis set group =>   3
Atom   4H    basis set group =>   3
Atom   5H    basis set group =>   3
Atom   6H    basis set group =>   3
---------------------------------
AUXILIARY/J BASIS SET INFORMATION
---------------------------------
There are 3 groups of distinct atoms

 Group   1 Type O   : 12s5p4d2f1g contracted to 6s4p3d1f1g pattern {711111/2111/211/2/1}
 Group   2 Type C   : 12s5p4d2f1g contracted to 6s4p3d1f1g pattern {711111/2111/211/2/1}
 Group   3 Type H   : 5s2p1d contracted to 3s1p1d pattern {311/2/1}

Atom   0O    basis set group =>   1
Atom   1C    basis set group =>   2
Atom   2C    basis set group =>   2
Atom   3H    basis set group =>   3
Atom   4H    basis set group =>   3
Atom   5H    basis set group =>   3
Atom   6H    basis set group =>   3

Checking for AutoStart:
The File: ox_es1_A_orca0021.gbw exists
Trying to determine its content:
     ... Fine, the file contains calculation information
     ... Fine, the calculation information was read
     ... Fine, the file contains a basis set
     ... Fine, the basis set was read
     ... Fine, the file contains a geometry
     ... Fine, the geometry was read
     ... Fine, the file contains a set of orbitals
     ... Fine, the orbitals can be read
     => possible old guess file was deleted
     => GBW file was renamed to GES file
     => GES file is set as startup file
     => Guess is set to MORead
     ... now leaving AutoStart



           ************************************************************
           *        Program running with 8 parallel MPI-processes     *
           *              working on a common directory               *
           ************************************************************
------------------------------------------------------------------------------
                           ORCA GTO INTEGRAL CALCULATION
                           -- RI-GTO INTEGRALS CHOSEN --
------------------------------------------------------------------------------
------------------------------------------------------------------------------
                   ___                                                        
                  /   \      - P O W E R E D   B Y -                         
                 /     \                                                     
                 |  |  |   _    _      __       _____    __    __             
                 |  |  |  | |  | |    /  \     |  _  \  |  |  /  |          
                  \  \/   | |  | |   /    \    | | | |  |  | /  /          
                 / \  \   | |__| |  /  /\  \   | |_| |  |  |/  /          
                |  |  |   |  __  | /  /__\  \  |    /   |      \           
                |  |  |   | |  | | |   __   |  |    \   |  |\   \          
                \     /   | |  | | |  |  |  |  | |\  \  |  | \   \       
                 \___/    |_|  |_| |__|  |__|  |_| \__\ |__|  \__/        
                                                                              
                      - O R C A' S   B I G   F R I E N D -                    
                                      &                                       
                       - I N T E G R A L  F E E D E R -                       
                                                                              
 v1 FN, 2020, v2 2021                                                         
------------------------------------------------------------------------------


Reading SHARK input file ox_es1_A_orca0021.SHARKINP.tmp ... ok
----------------------
SHARK INTEGRAL PACKAGE
----------------------

Number of atoms                             ...      7
Number of basis functions                   ...    117
Number of shells                            ...     49
Maximum angular momentum                    ...      3
Integral batch strategy                     ... SHARK/LIBINT Hybrid
RI-J (if used) integral strategy            ... SPLIT-RIJ (Revised 2003 algorithm where possible)
Printlevel                                  ...      1
Contraction scheme used                     ... SEGMENTED contraction
Coulomb Range Separation                    ... NOT USED
Exchange Range Separation                   ... NOT USED
Finite Nucleus Model                        ... NOT USED
Auxiliary Coulomb fitting basis             ... AVAILABLE
   # of basis functions in Aux-J            ...    191
   # of shells in Aux-J                     ...     65
   Maximum angular momentum in Aux-J        ...      4
Auxiliary J/K fitting basis                 ... NOT available
Auxiliary Correlation fitting basis         ... NOT available
Auxiliary 'external' fitting basis          ... NOT available
Integral threshold                          ...     2.500000e-11
Primitive cut-off                           ...     2.500000e-12
Primitive pair pre-selection threshold      ...     2.500000e-12

Calculating pre-screening integrals         ... done (  0.0 sec) Dimension = 49
Organizing shell pair data                  ... done (  0.0 sec)
Shell pair information
Total number of shell pairs                 ...      1225
Shell pairs after pre-screening             ...      1222
Total number of primitive shell pairs       ...      3648
Primitive shell pairs kept                  ...      3167
          la=0 lb=0:    375 shell pairs
          la=1 lb=0:    351 shell pairs
          la=1 lb=1:     91 shell pairs
          la=2 lb=0:    162 shell pairs
          la=2 lb=1:     78 shell pairs
          la=2 lb=2:     21 shell pairs
          la=3 lb=0:     81 shell pairs
          la=3 lb=1:     39 shell pairs
          la=3 lb=2:     18 shell pairs
          la=3 lb=3:      6 shell pairs

Calculating one electron integrals          ... done (  0.0 sec)
Calculating RI/J V-Matrix + Cholesky decomp.... done (  0.0 sec)
Calculating Nuclear repulsion               ... done (  0.0 sec) ENN=     78.292871575177 Eh

SHARK setup successfully completed in   0.1 seconds

Maximum memory used throughout the entire GTOINT-calculation: 14.9 MB


           ************************************************************
           *        Program running with 8 parallel MPI-processes     *
           *              working on a common directory               *
           ************************************************************
-------------------------------------------------------------------------------
                                 ORCA SCF
-------------------------------------------------------------------------------

------------
SCF SETTINGS
------------
Hamiltonian:
 Density Functional     Method          .... DFT(GTOs)
 Exchange Functional    Exchange        .... PBE
   PBE kappa parameter   XKappa         ....  0.804000
   PBE mue parameter    XMuePBE         ....  0.219520
 Correlation Functional Correlation     .... PBE
   PBE beta parameter  CBetaPBE         ....  0.066725
 LDA part of GGA corr.  LDAOpt          .... PW91-LDA
 Gradients option       PostSCFGGA      .... off
 Hybrid DFT is turned on
   Fraction HF Exchange ScalHFX         ....  0.250000
   Scaling of DF-GGA-X  ScalDFX         ....  0.750000
   Scaling of DF-GGA-C  ScalDFC         ....  1.000000
   Scaling of DF-LDA-C  ScalLDAC        ....  1.000000
   Perturbative correction              ....  0.000000
   Density functional embedding theory  .... OFF
   NL short-range parameter             ....  6.900000
 RI-approximation to the Coulomb term is turned on
   Number of AuxJ basis functions       .... 191
   RIJ-COSX (HFX calculated with COS-X)).... on


General Settings:
 Integral files         IntName         .... ox_es1_A_orca0021
 Hartree-Fock type      HFTyp           .... RHF
 Total Charge           Charge          ....    0
 Multiplicity           Mult            ....    1
 Number of Electrons    NEL             ....   24
 Basis Dimension        Dim             ....  117
 Nuclear Repulsion      ENuc            ....     78.2928715752 Eh

Convergence Acceleration:
 DIIS                   CNVDIIS         .... on
   Start iteration      DIISMaxIt       ....    12
   Startup error        DIISStart       ....  0.200000
   # of expansion vecs  DIISMaxEq       ....     5
   Bias factor          DIISBfac        ....   1.050
   Max. coefficient     DIISMaxC        ....  10.000
 Trust-Rad. Augm. Hess. CNVTRAH         .... auto
   Auto Start mean grad. ratio tolernc. ....  1.125000
   Auto Start start iteration           ....     1
   Auto Start num. interpolation iter.  ....    10
   Max. Number of Micro iterations      ....    16
   Max. Number of Macro iterations      .... Maxiter - #DIIS iter
   Number of Davidson start vectors     ....     2
   Converg. threshold I  (grad. norm)   ....   1.000e-05
   Converg. threshold II (energy diff.) ....   1.000e-08
   Grad. Scal. Fac. for Micro threshold ....   0.100
   Minimum threshold for Micro iter.    ....   0.010
   NR start threshold (gradient norm)   ....   0.001
   Initial trust radius                 ....   0.400
   Minimum AH scaling param. (alpha)    ....   1.000
   Maximum AH scaling param. (alpha)    .... 1000.000
   Orbital update algorithm             .... Taylor
   White noise on init. David. guess    .... on
   Maximum white noise                  ....   0.010
   Quad. conv. algorithm                .... NR
 SOSCF                  CNVSOSCF        .... on
   Start iteration      SOSCFMaxIt      ....   150
   Startup grad/error   SOSCFStart      ....  0.003300
 Level Shifting         CNVShift        .... on
   Level shift para.    LevelShift      ....    0.2500
   Turn off err/grad.   ShiftErr        ....    0.0010
 Zerner damping         CNVZerner       .... off
 Static damping         CNVDamp         .... on
   Fraction old density DampFac         ....    0.7000
   Max. Damping (<1)    DampMax         ....    0.9800
   Min. Damping (>=0)   DampMin         ....    0.0000
   Turn off err/grad.   DampErr         ....    0.1000
 Fernandez-Rico         CNVRico         .... off

SCF Procedure:
 Maximum # iterations   MaxIter         ....   125
 SCF integral mode      SCFMode         .... Direct
   Integral package                     .... SHARK and LIBINT hybrid scheme
 Reset frequency        DirectResetFreq ....    20
 Integral Threshold     Thresh          ....  2.500e-11 Eh
 Primitive CutOff       TCut            ....  2.500e-12 Eh

Convergence Tolerance:
 Convergence Check Mode ConvCheckMode   .... Total+1el-Energy
 Convergence forced     ConvForced      .... 1
 Energy Change          TolE            ....  1.000e-08 Eh
 1-El. energy change                    ....  1.000e-05 Eh
 Orbital Gradient       TolG            ....  1.000e-05
 Orbital Rotation angle TolX            ....  1.000e-05
 DIIS Error             TolErr          ....  5.000e-07


Diagonalization of the overlap matrix:
Smallest eigenvalue                        ... 3.848e-04
Time for diagonalization                   ...    0.001 sec
Threshold for overlap eigenvalues          ... 1.000e-08
Number of eigenvalues below threshold      ... 0
Time for construction of square roots      ...    0.001 sec
Total time needed                          ...    0.003 sec

---------------------
INITIAL GUESS: MOREAD
---------------------
Guess MOs are being read from file: ox_es1_A_orca0021.ges
Input Geometry matches current geometry (good)
Input basis set matches current basis set (good)
MOs were renormalized
MOs were reorthogonalized (Cholesky)
                      ------------------
                      INITIAL GUESS DONE (   0.0 sec)
                      ------------------
-------------------
DFT GRID GENERATION
-------------------

General Integration Accuracy     IntAcc      ... 4.388
Radial Grid Type                 RadialGrid  ... OptM3 with GC (2021)
Angular Grid (max. ang.)         AngularGrid ... 4 (Lebedev-302)
Angular grid pruning method      GridPruning ... 4 (adaptive)
Weight generation scheme         WeightScheme... Becke
Basis function cutoff            BFCut       ... 1.0000e-11
Integration weight cutoff        WCut        ... 1.0000e-14
Angular grids for H and He will be reduced by one unit
Partially contracted basis set               ... off
Rotationally invariant grid construction     ... off

Total number of grid points                  ...    31285
Total number of batches                      ...      493
Average number of points per batch           ...       63
Average number of grid points per atom       ...     4469
Time for grid setup =    0.117 sec

--------------------
COSX GRID GENERATION
--------------------

GRIDX 1
-------
General Integration Accuracy     IntAcc      ... 3.816
Radial Grid Type                 RadialGrid  ... OptM3 with GC (2021)
Angular Grid (max. ang.)         AngularGrid ... 1 (Lebedev-50)
Angular grid pruning method      GridPruning ... 4 (adaptive)
Weight generation scheme         WeightScheme... Becke
Basis function cutoff            BFCut       ... 1.0000e-11
Integration weight cutoff        WCut        ... 1.0000e-14
Angular grids for H and He will be reduced by one unit
Partially contracted basis set               ... on
Rotationally invariant grid construction     ... off

Total number of grid points                  ...     4029
Total number of batches                      ...       66
Average number of points per batch           ...       61
Average number of grid points per atom       ...      576
UseSFitting                                  ... on

GRIDX 2
-------
General Integration Accuracy     IntAcc      ... 4.020
Radial Grid Type                 RadialGrid  ... OptM3 with GC (2021)
Angular Grid (max. ang.)         AngularGrid ... 2 (Lebedev-110)
Angular grid pruning method      GridPruning ... 4 (adaptive)
Weight generation scheme         WeightScheme... Becke
Basis function cutoff            BFCut       ... 1.0000e-11
Integration weight cutoff        WCut        ... 1.0000e-14
Angular grids for H and He will be reduced by one unit
Partially contracted basis set               ... on
Rotationally invariant grid construction     ... off

Total number of grid points                  ...     8690
Total number of batches                      ...      139
Average number of points per batch           ...       62
Average number of grid points per atom       ...     1241
UseSFitting                                  ... on

GRIDX 3
-------
General Integration Accuracy     IntAcc      ... 4.338
Radial Grid Type                 RadialGrid  ... OptM3 with GC (2021)
Angular Grid (max. ang.)         AngularGrid ... 3 (Lebedev-194)
Angular grid pruning method      GridPruning ... 4 (adaptive)
Weight generation scheme         WeightScheme... Becke
Basis function cutoff            BFCut       ... 1.0000e-11
Integration weight cutoff        WCut        ... 1.0000e-14
Angular grids for H and He will be reduced by one unit
Partially contracted basis set               ... on
Rotationally invariant grid construction     ... off

Total number of grid points                  ...    19236
Total number of batches                      ...      305
Average number of points per batch           ...       63
Average number of grid points per atom       ...     2748
UseSFitting                                  ... on

Time for X-Grid setup             =    0.073 sec

--------------
SCF ITERATIONS
--------------
ITER       Energy         Delta-E        Max-DP      RMS-DP      [F,P]     Damp
               ***  Starting incremental Fock matrix formation  ***
                      *** Initiating the SOSCF procedure ***
                      *** Re-Reading the Fockian *** 
                      *** Removing any level shift *** 
ITER      Energy       Delta-E        Grad      Rot      Max-DP    RMS-DP
  0   -153.65258990 -153.6525899041  0.000000  0.000000  0.000000  0.000000
               *** Restarting incremental Fock matrix formation ***
                 **** Energy Check signals convergence ****
              ***Rediagonalizing the Fockian in SOSCF/NRSCF***

               *****************************************************
               *                     SUCCESS                       *
               *           SCF CONVERGED AFTER   1 CYCLES          *
               *****************************************************

Old exchange energy                            =     -5.023561828 Eh
New exchange energy                            =     -5.023550557 Eh
Exchange energy change after final integration =      0.000011271 Eh
Total energy after final integration           =   -153.652578633 Eh
Final COS-X integration done in                =     0.254 sec

----------------
TOTAL SCF ENERGY
----------------

Total Energy       :         -153.65257863 Eh           -4181.09923 eV

Components:
Nuclear Repulsion  :           78.29287158 Eh            2130.45735 eV
Electronic Energy  :         -231.94545021 Eh           -6311.55657 eV
One Electron Energy:         -362.98002546 Eh           -9877.18864 eV
Two Electron Energy:          131.03457525 Eh            3565.63207 eV
Max COSX asymmetry :            0.00000286 Eh               0.00008 eV

Virial components:
Potential Energy   :         -307.01788831 Eh           -8354.38147 eV
Kinetic Energy     :          153.36530968 Eh            4173.28224 eV
Virial Ratio       :            2.00187310


DFT components:
N(Alpha)           :       12.000002640152 electrons
N(Beta)            :       12.000002640152 electrons
N(Total)           :       24.000005280303 electrons
E(X)               :      -15.028805620836 Eh       
E(C)               :       -0.797585588387 Eh       
E(XC)              :      -15.826391209223 Eh       
DFET-embed. en.    :        0.000000000000 Eh       

---------------
SCF CONVERGENCE
---------------

  Last Energy change         ...   -7.4465e-12  Tolerance :   1.0000e-08
  Last MAX-Density change    ...    1.2212e-15  Tolerance :   1.0000e-07
  Last RMS-Density change    ...    2.4333e-17  Tolerance :   5.0000e-09
  Last Orbital Gradient      ...    3.8416e-08  Tolerance :   1.0000e-05
  Last Orbital Rotation      ...    4.6808e-08  Tolerance :   1.0000e-05

             **** THE GBW FILE WAS UPDATED (ox_es1_A_orca0021.gbw) ****
             **** DENSITY ox_es1_A_orca0021.scfp WAS UPDATED ****
             **** ENERGY FILE WAS UPDATED (ox_es1_A_orca0021.en.tmp) ****
             **** THE GBW FILE WAS UPDATED (ox_es1_A_orca0021.gbw) ****
             **** DENSITY ox_es1_A_orca0021.scfp WAS UPDATED ****
----------------
ORBITAL ENERGIES
----------------

  NO   OCC          E(Eh)            E(eV) 
   0   2.0000     -19.222183      -523.0622 
   1   2.0000     -10.270500      -279.4745 
   2   2.0000     -10.265944      -279.3505 
   3   2.0000      -1.169642       -31.8276 
   4   2.0000      -0.688396       -18.7322 
   5   2.0000      -0.669929       -18.2297 
   6   2.0000      -0.555949       -15.1281 
   7   2.0000      -0.514930       -14.0120 
   8   2.0000      -0.445514       -12.1230 
   9   2.0000      -0.401412       -10.9230 
  10   2.0000      -0.315081        -8.5738 
  11   2.0000      -0.288177        -7.8417 
  12   0.0000       0.064268         1.7488 
  13   0.0000       0.082068         2.2332 
  14   0.0000       0.095900         2.6096 
  15   0.0000       0.107826         2.9341 
  16   0.0000       0.123233         3.3533 
  17   0.0000       0.154333         4.1996 
  18   0.0000       0.193180         5.2567 
  19   0.0000       0.213947         5.8218 
  20   0.0000       0.273398         7.4395 
  21   0.0000       0.277470         7.5503 
  22   0.0000       0.302302         8.2261 
  23   0.0000       0.371441        10.1074 
  24   0.0000       0.395118        10.7517 
  25   0.0000       0.396257        10.7827 
  26   0.0000       0.412965        11.2373 
  27   0.0000       0.441371        12.0103 
  28   0.0000       0.465358        12.6630 
  29   0.0000       0.467119        12.7109 
  30   0.0000       0.487260        13.2590 
  31   0.0000       0.539292        14.6749 
  32   0.0000       0.548161        14.9162 
  33   0.0000       0.705820        19.2063 
  34   0.0000       0.719794        19.5866 
  35   0.0000       0.733815        19.9681 
  36   0.0000       0.844905        22.9910 
  37   0.0000       0.860710        23.4211 
  38   0.0000       0.906756        24.6741 
  39   0.0000       0.935410        25.4538 
  40   0.0000       1.040969        28.3262 
  41   0.0000       1.044178        28.4135 
  42   0.0000       1.054118        28.6840 
  43   0.0000       1.081783        29.4368 
  44   0.0000       1.169704        31.8293 
  45   0.0000       1.362566        37.0773 
  46   0.0000       1.423099        38.7245 
  47   0.0000       1.513295        41.1789 
  48   0.0000       1.525217        41.5033 
  49   0.0000       1.540916        41.9304 
  50   0.0000       1.607685        43.7473 
  51   0.0000       1.639683        44.6180 
  52   0.0000       1.646473        44.8028 
  53   0.0000       1.687832        45.9282 
  54   0.0000       1.762034        47.9474 
  55   0.0000       1.800886        49.0046 
  56   0.0000       1.836264        49.9673 
  57   0.0000       1.928126        52.4670 
  58   0.0000       1.976861        53.7931 
  59   0.0000       2.004523        54.5459 
  60   0.0000       2.125030        57.8250 
  61   0.0000       2.184763        59.4504 
  62   0.0000       2.213291        60.2267 
  63   0.0000       2.260845        61.5207 
  64   0.0000       2.301039        62.6145 
  65   0.0000       2.433137        66.2090 
  66   0.0000       2.479560        67.4723 
  67   0.0000       2.503547        68.1250 
  68   0.0000       2.566467        69.8371 
  69   0.0000       2.598049        70.6965 
  70   0.0000       2.642591        71.9086 
  71   0.0000       2.714077        73.8538 
  72   0.0000       2.739554        74.5470 
  73   0.0000       2.769313        75.3568 
  74   0.0000       2.790437        75.9316 
  75   0.0000       2.867349        78.0245 
  76   0.0000       2.919562        79.4453 
  77   0.0000       2.972083        80.8745 
  78   0.0000       2.997677        81.5709 
  79   0.0000       3.037990        82.6679 
  80   0.0000       3.092039        84.1386 
  81   0.0000       3.103903        84.4615 
  82   0.0000       3.153145        85.8014 
  83   0.0000       3.310604        90.0861 
  84   0.0000       3.325980        90.5045 
  85   0.0000       3.375822        91.8608 
  86   0.0000       3.411375        92.8282 
  87   0.0000       3.451230        93.9127 
  88   0.0000       3.591039        97.7171 
  89   0.0000       3.629151        98.7542 
  90   0.0000       3.743240       101.8587 
  91   0.0000       3.770742       102.6071 
  92   0.0000       3.884509       105.7029 
  93   0.0000       3.975294       108.1732 
  94   0.0000       4.071726       110.7973 
  95   0.0000       4.081513       111.0636 
  96   0.0000       4.220768       114.8529 
  97   0.0000       4.329900       117.8226 
  98   0.0000       4.415370       120.1483 
  99   0.0000       4.627008       125.9073 
 100   0.0000       4.772440       129.8647 
 101   0.0000       4.854842       132.1070 
 102   0.0000       5.404780       147.0715 
 103   0.0000       5.586627       152.0198 
 104   0.0000       5.879916       160.0006 
 105   0.0000       5.900198       160.5525 
 106   0.0000       5.960759       162.2005 
 107   0.0000       6.055591       164.7810 
 108   0.0000       6.215555       169.1339 
 109   0.0000       6.675270       181.6433 
 110   0.0000       6.740612       183.4214 
 111   0.0000       6.841012       186.1534 
 112   0.0000       7.021874       191.0749 
 113   0.0000       7.211695       196.2402 
 114   0.0000      22.458642       611.1307 
 115   0.0000      22.659887       616.6069 
 116   0.0000      43.941331      1195.7044 

                    ********************************
                    * MULLIKEN POPULATION ANALYSIS *
                    ********************************

-----------------------
MULLIKEN ATOMIC CHARGES
-----------------------
   0 O :   -0.285598
   1 C :   -0.058549
   2 C :   -0.079574
   3 H :    0.110268
   4 H :    0.094440
   5 H :    0.117486
   6 H :    0.101527
Sum of atomic charges:   -0.0000000

--------------------------------
MULLIKEN REDUCED ORBITAL CHARGES
--------------------------------
  0 O s       :     3.819683  s :     3.819683
      pz      :     1.799377  p :     4.409567
      px      :     1.286540
      py      :     1.323651
      dz2     :     0.006109  d :     0.053536
      dxz     :     0.004318
      dyz     :     0.008647
      dx2y2   :     0.015954
      dxy     :     0.018508
      f0      :     0.000368  f :     0.002813
      f+1     :     0.000265
      f-1     :     0.000510
      f+2     :     0.000091
      f-2     :     0.000345
      f+3     :     0.000356
      f-3     :     0.000878
  1 C s       :     3.203909  s :     3.203909
      pz      :     1.026672  p :     2.724137
      px      :     0.887954
      py      :     0.809511
      dz2     :     0.006256  d :     0.117066
      dxz     :     0.027868
      dyz     :     0.031628
      dx2y2   :     0.031363
      dxy     :     0.019952
      f0      :     0.001979  f :     0.013436
      f+1     :     0.001538
      f-1     :     0.000658
      f+2     :     0.000988
      f-2     :     0.002383
      f+3     :     0.002632
      f-3     :     0.003258
  2 C s       :     3.214810  s :     3.214810
      pz      :     1.047490  p :     2.729047
      px      :     0.885866
      py      :     0.795692
      dz2     :     0.005960  d :     0.121831
      dxz     :     0.028603
      dyz     :     0.034916
      dx2y2   :     0.033062
      dxy     :     0.019290
      f0      :     0.002007  f :     0.013886
      f+1     :     0.001503
      f-1     :     0.000684
      f+2     :     0.001540
      f-2     :     0.002175
      f+3     :     0.002485
      f-3     :     0.003491
  3 H s       :     0.865733  s :     0.865733
      pz      :     0.011303  p :     0.023999
      px      :     0.007282
      py      :     0.005414
  4 H s       :     0.884713  s :     0.884713
      pz      :     0.011164  p :     0.020847
      px      :     0.005378
      py      :     0.004305
  5 H s       :     0.861684  s :     0.861684
      pz      :     0.010218  p :     0.020829
      px      :     0.006609
      py      :     0.004002
  6 H s       :     0.877422  s :     0.877422
      pz      :     0.011209  p :     0.021051
      px      :     0.005721
      py      :     0.004122


                     *******************************
                     * LOEWDIN POPULATION ANALYSIS *
                     *******************************

----------------------
LOEWDIN ATOMIC CHARGES
----------------------
   0 O :    0.234709
   1 C :   -0.328565
   2 C :   -0.356588
   3 H :    0.091529
   4 H :    0.124805
   5 H :    0.113942
   6 H :    0.120168

-------------------------------
LOEWDIN REDUCED ORBITAL CHARGES
-------------------------------
  0 O s       :     3.277569  s :     3.277569
      pz      :     1.646945  p :     4.345821
      px      :     1.268585
      py      :     1.430291
      dz2     :     0.012590  d :     0.131309
      dxz     :     0.013801
      dyz     :     0.021967
      dx2y2   :     0.049705
      dxy     :     0.033245
      f0      :     0.001098  f :     0.010592
      f+1     :     0.000410
      f-1     :     0.001021
      f+2     :     0.000184
      f-2     :     0.001727
      f+3     :     0.001660
      f-3     :     0.004493
  1 C s       :     2.795658  s :     2.795658
      pz      :     1.044758  p :     2.933446
      px      :     1.010510
      py      :     0.878177
      dz2     :     0.059717  d :     0.509977
      dxz     :     0.134978
      dyz     :     0.100188
      dx2y2   :     0.110076
      dxy     :     0.105018
      f0      :     0.014198  f :     0.089484
      f+1     :     0.007116
      f-1     :     0.006040
      f+2     :     0.006292
      f-2     :     0.012151
      f+3     :     0.018345
      f-3     :     0.025343
  2 C s       :     2.814881  s :     2.814881
      pz      :     1.039403  p :     2.926794
      px      :     1.003182
      py      :     0.884209
      dz2     :     0.057007  d :     0.522548
      dxz     :     0.143421
      dyz     :     0.101152
      dx2y2   :     0.118371
      dxy     :     0.102597
      f0      :     0.013858  f :     0.092365
      f+1     :     0.006792
      f-1     :     0.006372
      f+2     :     0.010232
      f-2     :     0.010736
      f+3     :     0.016763
      f-3     :     0.027611
  3 H s       :     0.831439  s :     0.831439
      pz      :     0.037673  p :     0.077032
      px      :     0.021703
      py      :     0.017655
  4 H s       :     0.817743  s :     0.817743
      pz      :     0.031306  p :     0.057452
      px      :     0.014062
      py      :     0.012084
  5 H s       :     0.825343  s :     0.825343
      pz      :     0.030795  p :     0.060715
      px      :     0.018172
      py      :     0.011748
  6 H s       :     0.822158  s :     0.822158
      pz      :     0.031561  p :     0.057674
      px      :     0.014749
      py      :     0.011364


                      *****************************
                      * MAYER POPULATION ANALYSIS *
                      *****************************

  NA   - Mulliken gross atomic population
  ZA   - Total nuclear charge
  QA   - Mulliken gross atomic charge
  VA   - Mayer's total valence
  BVA  - Mayer's bonded valence
  FA   - Mayer's free valence

  ATOM       NA         ZA         QA         VA         BVA        FA
  0 O      8.2856     8.0000    -0.2856     2.0053     2.0053    -0.0000
  1 C      6.0585     6.0000    -0.0585     3.9896     3.9896     0.0000
  2 C      6.0796     6.0000    -0.0796     3.9685     3.9685     0.0000
  3 H      0.8897     1.0000     0.1103     0.9603     0.9603    -0.0000
  4 H      0.9056     1.0000     0.0944     0.9648     0.9648    -0.0000
  5 H      0.8825     1.0000     0.1175     0.9614     0.9614    -0.0000
  6 H      0.8985     1.0000     0.1015     0.9700     0.9700    -0.0000

  Mayer bond orders larger than 0.100000
B(  0-O ,  1-C ) :   1.0072 B(  0-O ,  2-C ) :   0.9826 B(  1-C ,  2-C ) :   1.0542 
B(  1-C ,  3-H ) :   0.9602 B(  1-C ,  4-H ) :   0.9540 B(  2-C ,  5-H ) :   0.9488 
B(  2-C ,  6-H ) :   0.9678 

-------
TIMINGS
-------

Total SCF time: 0 days 0 hours 0 min 0 sec 

Total time                  ....       0.998 sec
Sum of individual times     ....       0.903 sec  ( 90.5%)

Fock matrix formation       ....       0.696 sec  ( 69.8%)
  Split-RI-J                ....       0.113 sec  ( 16.2% of F)
  Chain of spheres X        ....       0.513 sec  ( 73.7% of F)
  XC integration            ....       0.061 sec  (  8.8% of F)
    Basis function eval.    ....       0.018 sec  ( 29.9% of XC)
    Density eval.           ....       0.014 sec  ( 23.2% of XC)
    XC-Functional eval.     ....       0.004 sec  (  6.1% of XC)
    XC-Potential eval.      ....       0.018 sec  ( 30.1% of XC)
Diagonalization             ....       0.002 sec  (  0.2%)
Density matrix formation    ....       0.000 sec  (  0.0%)
Population analysis         ....       0.003 sec  (  0.3%)
Initial guess               ....       0.008 sec  (  0.8%)
Orbital Transformation      ....       0.000 sec  (  0.0%)
Orbital Orthonormalization  ....       0.001 sec  (  0.1%)
DIIS solution               ....       0.001 sec  (  0.1%)
SOSCF solution              ....       0.002 sec  (  0.2%)
Grid generation             ....       0.190 sec  ( 19.0%)

Maximum memory used throughout the entire SCF-calculation: 61.1 MB


           ************************************************************
           *        Program running with 8 parallel MPI-processes     *
           *              working on a common directory               *
           ************************************************************
------------------------------------------------------------------------------
                        ORCA TD-DFT/TDA CALCULATION
------------------------------------------------------------------------------

Input orbitals are from        ... ox_es1_A_orca0021.gbw
CI-vector output               ... ox_es1_A_orca0021.cis
Tamm-Dancoff approximation     ... operative
CIS-Integral strategy          ... AO-integrals
Integral handling              ... AO integral Direct
Max. core memory used          ... 3000 MB
Reference state                ... RHF
Generation of triplets         ... off
Follow IRoot                   ... off
Number of operators            ... 1
Orbital ranges used for CIS calculation:
 Operator 0:  Orbitals   3... 11  to  12...116
XAS localization array:
 Operator 0:  Orbitals  -1... -1

-------------------
XC-INTEGRATION GRID
-------------------

General Integration Accuracy     IntAcc      ... 3.467
Radial Grid Type                 RadialGrid  ... OptM3 with GC (2021)
Angular Grid (max. ang.)         AngularGrid ... 1 (Lebedev-50)
Angular grid pruning method      GridPruning ... 4 (adaptive)
Weight generation scheme         WeightScheme... Becke
Basis function cutoff            BFCut       ... 1.0000e-11
Integration weight cutoff        WCut        ... 1.0000e-14
Angular grids for H and He will be reduced by one unit
Partially contracted basis set               ... off
Rotationally invariant grid construction     ... off

Total number of grid points                  ...     4530
Total number of batches                      ...       75
Average number of points per batch           ...       60
Average number of grid points per atom       ...      647

---------------------
COSX-INTEGRATION GRID
---------------------

General Integration Accuracy     IntAcc      ... 3.067
Radial Grid Type                 RadialGrid  ... OptM3 with GC (2021)
Angular Grid (max. ang.)         AngularGrid ... 1 (Lebedev-50)
Angular grid pruning method      GridPruning ... 4 (adaptive)
Weight generation scheme         WeightScheme... Becke
Basis function cutoff            BFCut       ... 1.0000e-11
Integration weight cutoff        WCut        ... 1.0000e-14
Angular grids for H and He will be reduced by one unit
Partially contracted basis set               ... on
Rotationally invariant grid construction     ... off

Total number of grid points                  ...     2082
Total number of batches                      ...       38
Average number of points per batch           ...       54
Average number of grid points per atom       ...      297

---------------
TD-DFT XC SETUP
---------------

DFT calculation                         ... on
Name of the grid file                   ... ox_es1_A_orca0021.grid_cis.tmp
Exchange functional (TD-DFT)            ... PBE
   PBE kappa parameter  XKappa (TD-DFT) ...  0.804000
   PBE mue parameter   XMuePBE (TD-DFT) ...  0.219520
Correlation functional (TD-DFT)         ... PBE
   PBE beta parameter CBetaPBE (TD-DFT) ...  0.066725
 LDA part of GGA corr.  LDAOpt (TD-DFT) ... PW91-LDA
Hybrid DFT                              ... on
   Exchange mixing (TD-DFT)             ...  0.250
   GGA exch. scaling (TD-DFT)           ...  0.750
   GGA corr. scaling (TD-DFT)           ...  1.000

Building densities             ... done
Calculating rho(r) on the grid ... done
Building xc-kernel on the grid ... done
                    *** TD-DFT CALCULATION INITIALIZED ***

------------------------
DAVIDSON-DIAGONALIZATION
------------------------

Dimension of the eigenvalue problem            ...    945
Number of roots to be determined               ...      1
Maximum size of the expansion space            ...     10
Maximum number of iterations                   ...    100
Convergence tolerance for the residual         ...    2.500e-07
Convergence tolerance for the energies         ...    2.500e-07
Orthogonality tolerance                        ...    1.000e-14
Level Shift                                    ...    0.000e+00
Constructing the preconditioner                ... o.k.
Building the initial guess                     ... o.k.
Number of trial vectors determined             ...     10


                       ****Iteration    0****

   Memory handling for direct AO based CIS:
   Memory per vector needed      ...     1 MB
   Memory needed                 ...     1 MB
   Memory available              ...  3000 MB
   Number of vectors per batch   ...  3000
   Number of batches             ...     1
   Time for densities:            0.000
   Time for RI-J (Direct):        0.015
   Time for K (COSX):             0.055
   Time for XC-Integration:       0.016
   Time for Sigma-Completion:     0.000
   Size of expansion space: 3
   Lowest Energy          :     0.302482384415
   Maximum Energy change  :     0.302482384415 (vector 0)
   Maximum residual norm  :     0.001900289026

                       ****Iteration    1****
   Time for densities:            0.000
   Time for RI-J (Direct):        0.012
   Time for K (COSX):             0.048
   Time for XC-Integration:       0.007
   Time for Sigma-Completion:     0.000
   Size of expansion space: 4
   Lowest Energy          :     0.299937602310
   Maximum Energy change  :     0.002544782105 (vector 0)
   Maximum residual norm  :     0.000399709143

                       ****Iteration    2****
   Time for densities:            0.000
   Time for RI-J (Direct):        0.012
   Time for K (COSX):             0.048
   Time for XC-Integration:       0.007
   Time for Sigma-Completion:     0.000
   Size of expansion space: 5
   Lowest Energy          :     0.299190576970
   Maximum Energy change  :     0.000747025340 (vector 0)
   Maximum residual norm  :     0.000109737185

                       ****Iteration    3****
   Time for densities:            0.000
   Time for RI-J (Direct):        0.012
   Time for K (COSX):             0.049
   Time for XC-Integration:       0.007
   Time for Sigma-Completion:     0.000
   Size of expansion space: 6
   Lowest Energy          :     0.298936333653
   Maximum Energy change  :     0.000254243318 (vector 0)
   Maximum residual norm  :     0.000046965652

                       ****Iteration    4****
   Time for densities:            0.000
   Time for RI-J (Direct):        0.012
   Time for K (COSX):             0.049
   Time for XC-Integration:       0.007
   Time for Sigma-Completion:     0.000
   Size of expansion space: 7
   Lowest Energy          :     0.298881743765
   Maximum Energy change  :     0.000054589888 (vector 0)
   Maximum residual norm  :     0.000006295582

                       ****Iteration    5****
   Time for densities:            0.000
   Time for RI-J (Direct):        0.012
   Time for K (COSX):             0.049
   Time for XC-Integration:       0.007
   Time for Sigma-Completion:     0.000
   Size of expansion space: 8
   Lowest Energy          :     0.298871365431
   Maximum Energy change  :     0.000010378334 (vector 0)
   Maximum residual norm  :     0.000000821055

                       ****Iteration    6****
   Time for densities:            0.000
   Time for RI-J (Direct):        0.012
   Time for K (COSX):             0.049
   Time for XC-Integration:       0.007
   Time for Sigma-Completion:     0.000
   Size of expansion space: 9
   Lowest Energy          :     0.298869112633
   Maximum Energy change  :     0.000002252798 (vector 0)
   Maximum residual norm  :     0.000000507285

                       ****Iteration    7****
   Time for densities:            0.000
   Time for RI-J (Direct):        0.012
   Time for K (COSX):             0.048
   Time for XC-Integration:       0.007
   Time for Sigma-Completion:     0.000
   Size of expansion space: 10
   Lowest Energy          :     0.298868139058
   Maximum Energy change  :     0.000000973575 (vector 0)
   Maximum residual norm  :     0.000000134804

      *** CONVERGENCE OF RESIDUAL NORM REACHED ***

Storing the converged CI vectors               ... ox_es1_A_orca0021.cis1

                 *** DAVIDSON DONE ***

Total time for solving the CIS problem:     0.566sec

------------------------------------
TD-DFT/TDA EXCITED STATES (SINGLETS)
------------------------------------

the weight of the individual excitations are printed if larger than 1.0e-02

STATE  1:  E=   0.298868 au      8.133 eV    65594.0 cm**-1 <S**2> =   0.000000
    11a ->  12a  :     0.894958 (c= -0.94602202)
    11a ->  13a  :     0.061856 (c= -0.24870845)
    11a ->  14a  :     0.021168 (c= -0.14549153)
    11a ->  16a  :     0.011789 (c= -0.10857686)


-----------------------------
TD-DFT/TDA-EXCITATION SPECTRA
-----------------------------

Center of mass = ( -0.0608, -0.1139, -0.0259)
Calculating the Dipole integrals                  ... done
Transforming integrals                            ... done
Calculating the Linear Momentum integrals         ... done
Transforming integrals                            ... done
Calculating angular momentum integrals            ... done
Transforming integrals                            ... done

-----------------------------------------------------------------------------
         ABSORPTION SPECTRUM VIA TRANSITION ELECTRIC DIPOLE MOMENTS
-----------------------------------------------------------------------------
State   Energy    Wavelength  fosc         T2        TX        TY        TZ  
        (cm-1)      (nm)                 (au**2)    (au)      (au)      (au) 
-----------------------------------------------------------------------------
   1   65594.0    152.5   0.076387024   0.38338  -0.01154  -0.07102  -0.61498

-----------------------------------------------------------------------------
         ABSORPTION SPECTRUM VIA TRANSITION VELOCITY DIPOLE MOMENTS
-----------------------------------------------------------------------------
State   Energy    Wavelength   fosc        P2         PX        PY        PZ  
        (cm-1)      (nm)                 (au**2)     (au)      (au)      (au) 
-----------------------------------------------------------------------------
   1   65594.0    152.5   0.035282456   0.01582   0.00723   0.00252   0.12553

-------------------------------------------------------------------
                             CD SPECTRUM
-------------------------------------------------------------------
State  Energy     Wavelength     R         MX        MY        MZ   
       (cm-1)       (nm)     (1e40*cgs)   (au)      (au)      (au)  
-------------------------------------------------------------------
   1   65594.0    152.5    -10.16618   0.38100  -0.03440   0.03188

-------------------------------------------------------------------
         CD SPECTRUM VIA TRANSITION VELOCITY DIPOLE MOMENTS        
-------------------------------------------------------------------
State  Energy     Wavelength     R         MX        MY        MZ   
       (cm-1)       (nm)     (1e40*cgs)   (au)      (au)      (au)  
-------------------------------------------------------------------
   1   65594.0    152.5     10.52515   0.38100  -0.03440   0.03188

Total run time:        0.824 sec

           *** ORCA-CIS/TD-DFT FINISHED WITHOUT ERROR ***

Maximum memory used throughout the entire CIS-calculation: 49.4 MB

-----------------------
CIS/TD-DFT TOTAL ENERGY
-----------------------

    E(SCF)  =   -153.652578633 Eh
    DE(CIS) =      0.298868139 Eh (Root  1)
    ----------------------------- ---------
    E(tot)  =   -153.353710494 Eh



-------------------------------------------------------------------------------
                          DFT DISPERSION CORRECTION                            
                                                                               
                              DFTD3 V3.1  Rev 1                                
                          USING Becke-Johnson damping                          
-------------------------------------------------------------------------------
The PBE0 functional is recognized
Active option DFTDOPT                   ...         4   

molecular C6(AA) [au] = 350.681760 


            DFT-D V3
 parameters
 s6 scaling factor         :     1.0000 
 a1 scaling factor         :     0.4145 
 s8 scaling factor         :     1.2177 
 a2 scaling factor         :     4.8593 
 ad hoc parameters k1-k3   :    16.0000     1.3333    -4.0000 

 Edisp/kcal,au: -1.515118352048  -0.002414494526 
 E6   /kcal   :  -0.994113953 
 E8   /kcal   :  -0.521004399 
 % E8         :  34.387043017 

-------------------------   ----------------
Dispersion correction           -0.002414495
-------------------------   ----------------


-------------------------   --------------------
FINAL SINGLE POINT ENERGY      -153.356124988614
-------------------------   --------------------



           ************************************************************
           *        Program running with 8 parallel MPI-processes     *
           *              working on a common directory               *
           ************************************************************
------------------------------------------------------------------------------
                         ORCA SCF GRADIENT CALCULATION
------------------------------------------------------------------------------


------------------------
TD-DFT GRADIENT XC SETUP
------------------------

Building densities                     ... done
Calculating rho(r) on the grid         ... done
Building xc-kernel on the grid         ... done
Building xc 3rd derivative on the grid      ... done
                *** TD-DFT GRADIENT CALCULATION INITIALIZED ***

-------------------
TD-DFT/TDA GRADIENT
-------------------

Reference wavefunction             ... RHF
State of interest                  ... 1
Basis dimension                    ... 117
DFT-XC contribution needed         ... YES
RI-approximation                   ... ON
CIS-vectors being read from        ... ox_es1_A_orca0021.cis

 => Number of Vectors found: 1
 => Orbital Window: 3...11 -> 12...116

Reading the CIS file                     ... done
Norm of the CI vector                    ... 1.000000000
Making the CIS (pseudo)densities         ... done
Making operators G(D) and Q(T)           ... done
Transforming the Fock operators          ... done
Making the frozen-core relaxed density   ... done
Constructing the G(H) operator           ... done
Transforming the G(H) operator           ... done
Calculating the CIS Lagrangian           ... done
Solving the Z-vector equations           ... done
Finalizing the relaxed density           ... done
Storing the relaxed density              ... done
Constructing the G(Z) operator           ... done
Transforming the G(Z) operator           ... done
Making the W-matrix                      ... done
Finalizing the W-matrix                  ... done
Transforming the W-matrix                ... done
Nuclear repulsion gradient               ... done
One-Electron gradient                    ... done
Dispersion correction                    ... done
Prescreening matrices                    ... done
COSX-gradient                            ... done
Coulomb gradient (RI)                    ... done
Exchange-Correlation gradient            ... done

                 ---------------------------
                 EXCITED STATE GRADIENT DONE
                 ---------------------------

------------------
CARTESIAN GRADIENT
------------------

   1   O   :   -0.004289546   -0.102261951    0.003423093
   2   C   :    0.010750222    0.049357042    0.080461248
   3   C   :   -0.029727597    0.066791469   -0.014707390
   4   H   :    0.039165371    0.008765885   -0.073458907
   5   H   :   -0.001359059   -0.009759891    0.000299638
   6   H   :   -0.000392544   -0.007128415    0.020045114
   7   H   :   -0.014129179   -0.005754924   -0.016094928

Difference to translation invariance:
           :    0.0000176693    0.0000092144   -0.0000321323

Difference to rotation invariance:
           :   -0.0003898181   -0.0001382223   -0.0002622694

Norm of the cartesian gradient     ...    0.1819978135
RMS gradient                       ...    0.0397151789
MAX gradient                       ...    0.1022619509

------------------------------------------------------------------------------
                  RELAXED CIS/TDA DENSITY POPULATION ANALYSIS
                                   IROOT 1
------------------------------------------------------------------------------
------------------------------------------------------------------------------
                           ORCA POPULATION ANALYSIS
------------------------------------------------------------------------------
Input electron density              ... ox_es1_A_orca0021.cisp
BaseName (.gbw .S,...)              ... ox_es1_A_orca0021

                    ********************************
                    * MULLIKEN POPULATION ANALYSIS *
                    ********************************

-----------------------
MULLIKEN ATOMIC CHARGES
-----------------------
   0 O :    0.113596
   1 C :   -0.142421
   2 C :    0.487815
   3 H :    0.040119
   4 H :    0.018024
   5 H :   -0.197495
   6 H :   -0.319640
Sum of atomic charges:   -0.0000000

--------------------------------
MULLIKEN REDUCED ORBITAL CHARGES
--------------------------------
  0 O s       :     3.815148  s :     3.815148
      pz      :     1.197974  p :     4.009830
      px      :     1.420922
      py      :     1.390934
      dz2     :     0.007456  d :     0.058814
      dxz     :     0.005299
      dyz     :     0.010187
      dx2y2   :     0.018092
      dxy     :     0.017781
      f0      :     0.000280  f :     0.002611
      f+1     :     0.000109
      f-1     :     0.000354
      f+2     :     0.000105
      f-2     :     0.000395
      f+3     :     0.000387
      f-3     :     0.000982
  1 C s       :     3.159599  s :     3.159599
      pz      :     1.077372  p :     2.875870
      px      :     1.076700
      py      :     0.721799
      dz2     :     0.013142  d :     0.094929
      dxz     :     0.019346
      dyz     :     0.010589
      dx2y2   :     0.027832
      dxy     :     0.024020
      f0      :     0.001372  f :     0.012023
      f+1     :     0.001464
      f-1     :     0.000733
      f+2     :     0.000762
      f-2     :     0.001722
      f+3     :     0.002884
      f-3     :     0.003086
  2 C s       :     2.699696  s :     2.699696
      pz      :     1.070612  p :     2.695918
      px      :     0.843636
      py      :     0.781669
      dz2     :     0.027671  d :     0.104042
      dxz     :     0.019274
      dyz     :     0.011157
      dx2y2   :     0.029495
      dxy     :     0.016446
      f0      :     0.001383  f :     0.012529
      f+1     :     0.001661
      f-1     :     0.000735
      f+2     :     0.001097
      f-2     :     0.001551
      f+3     :     0.002730
      f-3     :     0.003372
  3 H s       :     0.931329  s :     0.931329
      pz      :     0.015631  p :     0.028551
      px      :     0.007946
      py      :     0.004974
  4 H s       :     0.956195  s :     0.956195
      pz      :     0.015736  p :     0.025781
      px      :     0.005684
      py      :     0.004361
  5 H s       :     1.167312  s :     1.167312
      pz      :     0.018423  p :     0.030183
      px      :     0.008186
      py      :     0.003573
  6 H s       :     1.288731  s :     1.288731
      pz      :     0.020267  p :     0.030909
      px      :     0.007216
      py      :     0.003427


                     *******************************
                     * LOEWDIN POPULATION ANALYSIS *
                     *******************************

----------------------
LOEWDIN ATOMIC CHARGES
----------------------
   0 O :    0.563801
   1 C :   -0.340343
   2 C :   -0.372943
   3 H :    0.069906
   4 H :    0.096573
   5 H :    0.009831
   6 H :   -0.026827

-------------------------------
LOEWDIN REDUCED ORBITAL CHARGES
-------------------------------
  0 O s       :     3.310741  s :     3.310741
      pz      :     1.114178  p :     3.977970
      px      :     1.375285
      py      :     1.488507
      dz2     :     0.014377  d :     0.136973
      dxz     :     0.016140
      dyz     :     0.021847
      dx2y2   :     0.054706
      dxy     :     0.029903
      f0      :     0.001096  f :     0.010515
      f+1     :     0.000235
      f-1     :     0.000815
      f+2     :     0.000187
      f-2     :     0.001944
      f+3     :     0.001480
      f-3     :     0.004759
  1 C s       :     2.815557  s :     2.815557
      pz      :     1.041583  p :     2.933028
      px      :     1.076612
      py      :     0.814833
      dz2     :     0.112247  d :     0.505793
      dxz     :     0.112139
      dyz     :     0.044105
      dx2y2   :     0.122239
      dxy     :     0.115063
      f0      :     0.010650  f :     0.085965
      f+1     :     0.007221
      f-1     :     0.006933
      f+2     :     0.004829
      f-2     :     0.009159
      f+3     :     0.021001
      f-3     :     0.026171
  2 C s       :     2.896983  s :     2.896983
      pz      :     1.017598  p :     2.888066
      px      :     1.003354
      py      :     0.867114
      dz2     :     0.102928  d :     0.499123
      dxz     :     0.111725
      dyz     :     0.043065
      dx2y2   :     0.138813
      dxy     :     0.102592
      f0      :     0.010162  f :     0.088771
      f+1     :     0.007910
      f-1     :     0.007206
      f+2     :     0.006735
      f-2     :     0.007959
      f+3     :     0.019948
      f-3     :     0.028851
  3 H s       :     0.839622  s :     0.839622
      pz      :     0.050111  p :     0.090472
      px      :     0.023809
      py      :     0.016551
  4 H s       :     0.829025  s :     0.829025
      pz      :     0.046360  p :     0.074402
      px      :     0.015100
      py      :     0.012942
  5 H s       :     0.900274  s :     0.900274
      pz      :     0.056941  p :     0.089895
      px      :     0.022432
      py      :     0.010521
  6 H s       :     0.935952  s :     0.935952
      pz      :     0.062484  p :     0.090875
      px      :     0.018679
      py      :     0.009711


                      *****************************
                      * MAYER POPULATION ANALYSIS *
                      *****************************

  NA   - Mulliken gross atomic population
  ZA   - Total nuclear charge
  QA   - Mulliken gross atomic charge
  VA   - Mayer's total valence
  BVA  - Mayer's bonded valence
  FA   - Mayer's free valence

  ATOM       NA         ZA         QA         VA         BVA        FA
  0 O      7.8864     8.0000     0.1136     2.3447     1.7082     0.6366
  1 C      6.1424     6.0000    -0.1424     3.6831     3.4973     0.1858
  2 C      5.5122     6.0000     0.4878     1.9923     2.3132    -0.3208
  3 H      0.9599     1.0000     0.0401     1.1811     1.0266     0.1545
  4 H      0.9820     1.0000     0.0180     1.1980     0.9826     0.2153
  5 H      1.1975     1.0000    -0.1975     1.4498     1.0022     0.4476
  6 H      1.3196     1.0000    -0.3196     1.4574     0.9010     0.5564

  Mayer bond orders larger than 0.100000
B(  0-O ,  1-C ) :   0.8421 B(  0-O ,  2-C ) :   0.9341 B(  1-C ,  2-C ) :   0.7488 
B(  1-C ,  3-H ) :   0.9041 B(  1-C ,  4-H ) :   0.8239 B(  2-C ,  4-H ) :  -0.1121 
B(  2-C ,  5-H ) :   0.4839 B(  2-C ,  6-H ) :   0.3393 B(  4-H ,  6-H ) :   0.1337 
B(  5-H ,  6-H ) :   0.2829 


-------
TIMINGS
-------

Total TD-DFT gradient time         ...        5.109 sec

Fock matrix formation       ....       0.857 sec  ( 16.8%)
  Coulomb formation         ....       0.695 sec  ( 81.1% of F)
  RI-J                      ....       0.291 sec  ( 34.0% of F)
  Chain of spheres X        ....       0.403 sec  ( 47.0% of F)
  XC integration            ....       0.162 sec  ( 18.9% of F)
Z-vector equation           ....       1.376 sec  ( 26.9%)
One electron gradient       ....       0.032 sec  (  0.6%)
Prescreening matrices       ....       0.160 sec  (  3.1%)
RI-J Coulomb gradient       ....       0.248 sec  (  4.9%)
COSX gradient               ....       0.344 sec  (  6.7%)
XC gradient                 ....       1.781 sec  ( 34.9%)

Maximum memory used throughout the entire SCFGRAD-calculation: 130.3 MB

                            ***************************************
                            *     ORCA property calculations      *
                            ***************************************

                                    ---------------------
                                    Active property flags
                                    ---------------------
   (+) Dipole Moment


------------------------------------------------------------------------------
                       ORCA ELECTRIC PROPERTIES CALCULATION
------------------------------------------------------------------------------

Dipole Moment Calculation                       ... on
Quadrupole Moment Calculation                   ... off
Polarizability Calculation                      ... off
GBWName                                         ... ox_es1_A_orca0021.gbw
Electron density                                ... ox_es1_A_orca0021.scfp
The origin for moment calculation is the CENTER OF MASS  = (-0.060807, -0.113882 -0.025867)

-------------
DIPOLE MOMENT
-------------
                                X             Y             Z
Electronic contribution:     -0.10792       1.66583       0.05525
Nuclear contribution   :      0.08070      -2.20744      -0.05624
                        -----------------------------------------
Total Dipole Moment    :     -0.02722      -0.54161      -0.00100
                        -----------------------------------------
Magnitude (a.u.)       :      0.54229
Magnitude (Debye)      :      1.37840



--------------------
Rotational spectrum 
--------------------
 
Rotational constants in cm-1:     1.003048     0.739297     0.515137 
Rotational constants in MHz : 30070.617180 22163.564707 15443.412969 

 Dipole components along the rotational axes: 
x,y,z [a.u.] :     0.027923    -0.541188     0.020457 
x,y,z [Debye]:     0.070974    -1.375590     0.051997 

 

                        *** CIS RELAXED DENSITY ***

------------------------------------------------------------------------------
                       ORCA ELECTRIC PROPERTIES CALCULATION
------------------------------------------------------------------------------

Dipole Moment Calculation                       ... on
Quadrupole Moment Calculation                   ... off
Polarizability Calculation                      ... off
GBWName                                         ... ox_es1_A_orca0021.gbw
Electron density                                ... ox_es1_A_orca0021.cisp
The origin for moment calculation is the CENTER OF MASS  = (-0.060807, -0.113882 -0.025867)

-------------
DIPOLE MOMENT
-------------
                                X             Y             Z
Electronic contribution:     -0.82844       2.28148      -0.04220
Nuclear contribution   :      0.08070      -2.20744      -0.05624
                        -----------------------------------------
Total Dipole Moment    :     -0.74774       0.07404      -0.09844
                        -----------------------------------------
Magnitude (a.u.)       :      0.75782
Magnitude (Debye)      :      1.92623



--------------------
Rotational spectrum 
--------------------
 
Rotational constants in cm-1:     1.003048     0.739297     0.515137 
Rotational constants in MHz : 30070.617180 22163.564707 15443.412969 

 Dipole components along the rotational axes: 
x,y,z [a.u.] :     0.743189     0.069710    -0.130776 
x,y,z [Debye]:     1.889037     0.177189    -0.332407 

 

Timings for individual modules:

Sum of individual times         ...        8.020 sec (=   0.134 min)
GTO integral calculation        ...        0.366 sec (=   0.006 min)   4.6 %
SCF iterations                  ...        1.190 sec (=   0.020 min)  14.8 %
CIS module                      ...        1.081 sec (=   0.018 min)  13.5 %
SCF Gradient evaluation         ...        5.383 sec (=   0.090 min)  67.1 %
                             ****ORCA TERMINATED NORMALLY****
TOTAL RUN TIME: 0 days 0 hours 0 minutes 8 seconds 412 msec
