
                                 *****************
                                 * O   R   C   A *
                                 *****************

                                            #,                                       
                                            ###                                      
                                            ####                                     
                                            #####                                    
                                            ######                                   
                                           ########,                                 
                                     ,,################,,,,,                         
                               ,,#################################,,                 
                          ,,##########################################,,             
                       ,#########################################, ''#####,          
                    ,#############################################,,   '####,        
                  ,##################################################,,,,####,       
                ,###########''''           ''''###############################       
              ,#####''   ,,,,##########,,,,          '''####'''          '####       
            ,##' ,,,,###########################,,,                        '##       
           ' ,,###''''                  '''############,,,                           
         ,,##''                                '''############,,,,        ,,,,,,###''
      ,#''                                            '''#######################'''  
     '                                                          ''''####''''         
             ,#######,   #######,   ,#######,      ##                                
            ,#'     '#,  ##    ##  ,#'     '#,    #''#        ######   ,####,        
            ##       ##  ##   ,#'  ##            #'  '#       #        #'  '#        
            ##       ##  #######   ##           ,######,      #####,   #    #        
            '#,     ,#'  ##    ##  '#,     ,#' ,#      #,         ##   #,  ,#        
             '#######'   ##     ##  '#######'  #'      '#     #####' # '####'        



                  #######################################################
                  #                        -***-                        #
                  #          Department of theory and spectroscopy      #
                  #    Directorship and core code : Frank Neese         #
                  #        Max Planck Institute fuer Kohlenforschung    #
                  #                Kaiser Wilhelm Platz 1               #
                  #                 D-45470 Muelheim/Ruhr               #
                  #                      Germany                        #
                  #                                                     #
                  #                  All rights reserved                #
                  #                        -***-                        #
                  #######################################################


                         Program Version 5.0.2 -  RELEASE  -


 With contributions from (in alphabetic order):
   Daniel Aravena         : Magnetic Suceptibility
   Michael Atanasov       : Ab Initio Ligand Field Theory (pilot matlab implementation)
   Alexander A. Auer      : GIAO ZORA, VPT2 properties, NMR spectrum
   Ute Becker             : Parallelization
   Giovanni Bistoni       : ED, misc. LED, open-shell LED, HFLD
   Martin Brehm           : Molecular dynamics
   Dmytro Bykov           : SCF Hessian
   Vijay G. Chilkuri      : MRCI spin determinant printing, contributions to CSF-ICE
   Dipayan Datta          : RHF DLPNO-CCSD density
   Achintya Kumar Dutta   : EOM-CC, STEOM-CC
   Dmitry Ganyushin       : Spin-Orbit,Spin-Spin,Magnetic field MRCI
   Miquel Garcia          : C-PCM and meta-GGA Hessian, CC/C-PCM, Gaussian charge scheme
   Yang Guo               : DLPNO-NEVPT2, F12-NEVPT2, CIM, IAO-localization
   Andreas Hansen         : Spin unrestricted coupled pair/coupled cluster methods
   Benjamin Helmich-Paris : MC-RPA, TRAH-SCF, COSX integrals
   Lee Huntington         : MR-EOM, pCC
   Robert Izsak           : Overlap fitted RIJCOSX, COSX-SCS-MP3, EOM
   Marcus Kettner         : VPT2
   Christian Kollmar      : KDIIS, OOCD, Brueckner-CCSD(T), CCSD density, CASPT2, CASPT2-K
   Simone Kossmann        : Meta GGA functionals, TD-DFT gradient, OOMP2, MP2 Hessian
   Martin Krupicka        : Initial AUTO-CI
   Lucas Lang             : DCDCAS
   Marvin Lechner         : AUTO-CI (C++ implementation), FIC-MRCC
   Dagmar Lenk            : GEPOL surface, SMD
   Dimitrios Liakos       : Extrapolation schemes; Compound Job, initial MDCI parallelization
   Dimitrios Manganas     : Further ROCIS development; embedding schemes
   Dimitrios Pantazis     : SARC Basis sets
   Anastasios Papadopoulos: AUTO-CI, single reference methods and gradients
   Taras Petrenko         : DFT Hessian,TD-DFT gradient, ASA, ECA, R-Raman, ABS, FL, XAS/XES, NRVS
   Peter Pinski           : DLPNO-MP2, DLPNO-MP2 Gradient
   Christoph Reimann      : Effective Core Potentials
   Marius Retegan         : Local ZFS, SOC
   Christoph Riplinger    : Optimizer, TS searches, QM/MM, DLPNO-CCSD(T), (RO)-DLPNO pert. Triples
   Tobias Risthaus        : Range-separated hybrids, TD-DFT gradient, RPA, STAB
   Michael Roemelt        : Original ROCIS implementation
   Masaaki Saitow         : Open-shell DLPNO-CCSD energy and density
   Barbara Sandhoefer     : DKH picture change effects
   Avijit Sen             : IP-ROCIS
   Kantharuban Sivalingam : CASSCF convergence, NEVPT2, FIC-MRCI
   Bernardo de Souza      : ESD, SOC TD-DFT
   Georgi Stoychev        : AutoAux, RI-MP2 NMR, DLPNO-MP2 response
   Willem Van den Heuvel  : Paramagnetic NMR
   Boris Wezisla          : Elementary symmetry handling
   Frank Wennmohs         : Technical directorship


 We gratefully acknowledge several colleagues who have allowed us to
 interface, adapt or use parts of their codes:
   Stefan Grimme, W. Hujo, H. Kruse, P. Pracht,  : VdW corrections, initial TS optimization,
                  C. Bannwarth, S. Ehlert          DFT functionals, gCP, sTDA/sTD-DF
   Ed Valeev, F. Pavosevic, A. Kumar             : LibInt (2-el integral package), F12 methods
   Garnet Chan, S. Sharma, J. Yang, R. Olivares  : DMRG
   Ulf Ekstrom                                   : XCFun DFT Library
   Mihaly Kallay                                 : mrcc  (arbitrary order and MRCC methods)
   Jiri Pittner, Ondrej Demel                    : Mk-CCSD
   Frank Weinhold                                : gennbo (NPA and NBO analysis)
   Christopher J. Cramer and Donald G. Truhlar   : smd solvation model
   Lars Goerigk                                  : TD-DFT with DH, B97 family of functionals
   V. Asgeirsson, H. Jonsson                     : NEB implementation
   FAccTs GmbH                                   : IRC, NEB, NEB-TS, DLPNO-Multilevel, CI-OPT
                                                   MM, QMMM, 2- and 3-layer-ONIOM, Crystal-QMMM,
                                                   LR-CPCM, SF, NACMEs, symmetry and pop. for TD-DFT,
                                                   nearIR, NL-DFT gradient (VV10), updates on ESD,
                                                   ML-optimized integration grids
   S Lehtola, MJT Oliveira, MAL Marques          : LibXC Library
   Liviu Ungur et al                             : ANISO software


 Your calculation uses the libint2 library for the computation of 2-el integrals
 For citations please refer to: http://libint.valeyev.net

 Your ORCA version has been built with support for libXC version: 5.1.0
 For citations please refer to: https://tddft.org/programs/libxc/

 This ORCA versions uses:
   CBLAS   interface :  Fast vector & matrix operations
   LAPACKE interface :  Fast linear algebra routines
   SCALAPACK package :  Parallel linear algebra routines
   Shared memory     :  Shared parallel matrices
   BLAS/LAPACK       :  OpenBLAS 0.3.15  USE64BITINT DYNAMIC_ARCH NO_AFFINITY SkylakeX SINGLE_THREADED
        Core in use  :  SkylakeX
   Copyright (c) 2011-2014, The OpenBLAS Project


Your calculation utilizes the atom-pairwise dispersion correction
with the Becke-Johnson damping scheme (D3BJ)
Cite in your paper:
S.Grimme, S.Ehrlich, L.Goerigk, J Comput Chem, (2011), 32, 1456–1465 
S.Grimme, J.Antony, S.Ehrlich and H.Krieg, J.Chem.Phys., 132, (2010), 154104 
   

================================================================================

----- Orbital basis set information -----
Your calculation utilizes the basis: def2-TZVP
   F. Weigend and R. Ahlrichs, Phys. Chem. Chem. Phys. 7, 3297 (2005).

----- AuxJ basis set information -----
Your calculation utilizes the auxiliary basis: def2/J
   F. Weigend, Phys. Chem. Chem. Phys. 8, 1057 (2006).

================================================================================
                                        WARNINGS
                       Please study these warnings very carefully!
================================================================================

INFO   : Checking CIS options ...

WARNING: CIS/ROCIS methods need fully converged wavefunctions
  ===> : Setting SCFConvForced true
         You can overwrite this default with %scf ConvForced false 


INFO   : the flag for use of the SHARK integral package has been found!

================================================================================
                                       INPUT FILE
================================================================================
NAME = ox_es1_E_orca0001.inp
|  1> ! engrad PBE0 D3BJ def2-TZVP  
|  2> %pal nprocs 8 end
|  3> %maxcore 3000
|  4> 
|  5> %tddft
|  6>   nroots 1
|  7>   tda true
|  8>   Iroot 1
|  9>   end 
| 10> *xyz 0 1 
| 11> O   -0.9224623242604191 0.9720584066410152 -0.07921781786863241
| 12> C   -0.6913985792369097 -0.4577499718353405 0.007873026785331616
| 13> C   0.7616424709854731 -0.47436497648397036 0.07437741875244905
| 14> H   -1.3065944608574713 -0.7097656384089017 0.9439503581527253
| 15> H   -1.3182097351322843 -0.6292857194948837 -0.8609588392484878
| 16> H   1.2445468753575037 -0.7558821607890354 -0.8516283876464565
| 17> H   1.2581586941476413 -0.7364458656260562 0.9921853114740685
| 18> *
| 19> 
| 20>                          ****END OF INPUT****
================================================================================

                     *******************************
                     * Energy+Gradient Calculation *
                     *******************************

---------------------------------
CARTESIAN COORDINATES (ANGSTROEM)
---------------------------------
  O     -0.922462    0.972058   -0.079218
  C     -0.691399   -0.457750    0.007873
  C      0.761642   -0.474365    0.074377
  H     -1.306594   -0.709766    0.943950
  H     -1.318210   -0.629286   -0.860959
  H      1.244547   -0.755882   -0.851628
  H      1.258159   -0.736446    0.992185

----------------------------
CARTESIAN COORDINATES (A.U.)
----------------------------
  NO LB      ZA    FRAG     MASS         X           Y           Z
   0 O     8.0000    0    15.999   -1.743201    1.836924   -0.149700
   1 C     6.0000    0    12.011   -1.306554   -0.865022    0.014878
   2 C     6.0000    0    12.011    1.439296   -0.896420    0.140553
   3 H     1.0000    0     1.008   -2.469106   -1.341263    1.783808
   4 H     1.0000    0     1.008   -2.491055   -1.189178   -1.626976
   5 H     1.0000    0     1.008    2.351853   -1.428410   -1.609344
   6 H     1.0000    0     1.008    2.377575   -1.391681    1.874959

--------------------------------
INTERNAL COORDINATES (ANGSTROEM)
--------------------------------
 O      0   0   0     0.000000000000     0.00000000     0.00000000
 C      1   0   0     1.450974592696     0.00000000     0.00000000
 C      2   1   0     1.454657068234    99.96635168     0.00000000
 H      2   1   3     1.148137029828   100.36427869   122.92337322
 H      2   1   3     1.084981819809    90.90126972   231.38422957
 H      3   2   1     1.081635494196   114.19191192   256.79292974
 H      3   2   1     1.075911743713   120.18235566   109.03794381

---------------------------
INTERNAL COORDINATES (A.U.)
---------------------------
 O      0   0   0     0.000000000000     0.00000000     0.00000000
 C      1   0   0     2.741944607473     0.00000000     0.00000000
 C      2   1   0     2.748903477734    99.96635168     0.00000000
 H      2   1   3     2.169664550588   100.36427869   122.92337322
 H      2   1   3     2.050318499722    90.90126972   231.38422957
 H      3   2   1     2.043994860760   114.19191192   256.79292974
 H      3   2   1     2.033178539887   120.18235566   109.03794381

---------------------
BASIS SET INFORMATION
---------------------
There are 3 groups of distinct atoms

 Group   1 Type O   : 11s6p2d1f contracted to 5s3p2d1f pattern {62111/411/11/1}
 Group   2 Type C   : 11s6p2d1f contracted to 5s3p2d1f pattern {62111/411/11/1}
 Group   3 Type H   : 5s1p contracted to 3s1p pattern {311/1}

Atom   0O    basis set group =>   1
Atom   1C    basis set group =>   2
Atom   2C    basis set group =>   2
Atom   3H    basis set group =>   3
Atom   4H    basis set group =>   3
Atom   5H    basis set group =>   3
Atom   6H    basis set group =>   3
---------------------------------
AUXILIARY/J BASIS SET INFORMATION
---------------------------------
There are 3 groups of distinct atoms

 Group   1 Type O   : 12s5p4d2f1g contracted to 6s4p3d1f1g pattern {711111/2111/211/2/1}
 Group   2 Type C   : 12s5p4d2f1g contracted to 6s4p3d1f1g pattern {711111/2111/211/2/1}
 Group   3 Type H   : 5s2p1d contracted to 3s1p1d pattern {311/2/1}

Atom   0O    basis set group =>   1
Atom   1C    basis set group =>   2
Atom   2C    basis set group =>   2
Atom   3H    basis set group =>   3
Atom   4H    basis set group =>   3
Atom   5H    basis set group =>   3
Atom   6H    basis set group =>   3

Checking for AutoStart:
The File: ox_es1_E_orca0001.gbw exists
Trying to determine its content:
     ... Fine, the file contains calculation information
     ... Fine, the calculation information was read
     ... Fine, the file contains a basis set
     ... Fine, the basis set was read
     ... Fine, the file contains a geometry
     ... Fine, the geometry was read
     ... Fine, the file contains a set of orbitals
     ... Fine, the orbitals can be read
     => possible old guess file was deleted
     => GBW file was renamed to GES file
     => GES file is set as startup file
     => Guess is set to MORead
     ... now leaving AutoStart



           ************************************************************
           *        Program running with 8 parallel MPI-processes     *
           *              working on a common directory               *
           ************************************************************
------------------------------------------------------------------------------
                           ORCA GTO INTEGRAL CALCULATION
                           -- RI-GTO INTEGRALS CHOSEN --
------------------------------------------------------------------------------
------------------------------------------------------------------------------
                   ___                                                        
                  /   \      - P O W E R E D   B Y -                         
                 /     \                                                     
                 |  |  |   _    _      __       _____    __    __             
                 |  |  |  | |  | |    /  \     |  _  \  |  |  /  |          
                  \  \/   | |  | |   /    \    | | | |  |  | /  /          
                 / \  \   | |__| |  /  /\  \   | |_| |  |  |/  /          
                |  |  |   |  __  | /  /__\  \  |    /   |      \           
                |  |  |   | |  | | |   __   |  |    \   |  |\   \          
                \     /   | |  | | |  |  |  |  | |\  \  |  | \   \       
                 \___/    |_|  |_| |__|  |__|  |_| \__\ |__|  \__/        
                                                                              
                      - O R C A' S   B I G   F R I E N D -                    
                                      &                                       
                       - I N T E G R A L  F E E D E R -                       
                                                                              
 v1 FN, 2020, v2 2021                                                         
------------------------------------------------------------------------------


Reading SHARK input file ox_es1_E_orca0001.SHARKINP.tmp ... ok
----------------------
SHARK INTEGRAL PACKAGE
----------------------

Number of atoms                             ...      7
Number of basis functions                   ...    117
Number of shells                            ...     49
Maximum angular momentum                    ...      3
Integral batch strategy                     ... SHARK/LIBINT Hybrid
RI-J (if used) integral strategy            ... SPLIT-RIJ (Revised 2003 algorithm where possible)
Printlevel                                  ...      1
Contraction scheme used                     ... SEGMENTED contraction
Coulomb Range Separation                    ... NOT USED
Exchange Range Separation                   ... NOT USED
Finite Nucleus Model                        ... NOT USED
Auxiliary Coulomb fitting basis             ... AVAILABLE
   # of basis functions in Aux-J            ...    191
   # of shells in Aux-J                     ...     65
   Maximum angular momentum in Aux-J        ...      4
Auxiliary J/K fitting basis                 ... NOT available
Auxiliary Correlation fitting basis         ... NOT available
Auxiliary 'external' fitting basis          ... NOT available
Integral threshold                          ...     2.500000e-11
Primitive cut-off                           ...     2.500000e-12
Primitive pair pre-selection threshold      ...     2.500000e-12

Calculating pre-screening integrals         ... done (  0.0 sec) Dimension = 49
Organizing shell pair data                  ... done (  0.0 sec)
Shell pair information
Total number of shell pairs                 ...      1225
Shell pairs after pre-screening             ...      1213
Total number of primitive shell pairs       ...      3648
Primitive shell pairs kept                  ...      3081
          la=0 lb=0:    367 shell pairs
          la=1 lb=0:    351 shell pairs
          la=1 lb=1:     91 shell pairs
          la=2 lb=0:    161 shell pairs
          la=2 lb=1:     78 shell pairs
          la=2 lb=2:     21 shell pairs
          la=3 lb=0:     81 shell pairs
          la=3 lb=1:     39 shell pairs
          la=3 lb=2:     18 shell pairs
          la=3 lb=3:      6 shell pairs

Calculating one electron integrals          ... done (  0.0 sec)
Calculating RI/J V-Matrix + Cholesky decomp.... done (  0.0 sec)
Calculating Nuclear repulsion               ... done (  0.0 sec) ENN=     67.972764498527 Eh

SHARK setup successfully completed in   0.1 seconds

Maximum memory used throughout the entire GTOINT-calculation: 14.9 MB


           ************************************************************
           *        Program running with 8 parallel MPI-processes     *
           *              working on a common directory               *
           ************************************************************
-------------------------------------------------------------------------------
                                 ORCA SCF
-------------------------------------------------------------------------------

------------
SCF SETTINGS
------------
Hamiltonian:
 Density Functional     Method          .... DFT(GTOs)
 Exchange Functional    Exchange        .... PBE
   PBE kappa parameter   XKappa         ....  0.804000
   PBE mue parameter    XMuePBE         ....  0.219520
 Correlation Functional Correlation     .... PBE
   PBE beta parameter  CBetaPBE         ....  0.066725
 LDA part of GGA corr.  LDAOpt          .... PW91-LDA
 Gradients option       PostSCFGGA      .... off
 Hybrid DFT is turned on
   Fraction HF Exchange ScalHFX         ....  0.250000
   Scaling of DF-GGA-X  ScalDFX         ....  0.750000
   Scaling of DF-GGA-C  ScalDFC         ....  1.000000
   Scaling of DF-LDA-C  ScalLDAC        ....  1.000000
   Perturbative correction              ....  0.000000
   Density functional embedding theory  .... OFF
   NL short-range parameter             ....  6.900000
 RI-approximation to the Coulomb term is turned on
   Number of AuxJ basis functions       .... 191
   RIJ-COSX (HFX calculated with COS-X)).... on


General Settings:
 Integral files         IntName         .... ox_es1_E_orca0001
 Hartree-Fock type      HFTyp           .... RHF
 Total Charge           Charge          ....    0
 Multiplicity           Mult            ....    1
 Number of Electrons    NEL             ....   24
 Basis Dimension        Dim             ....  117
 Nuclear Repulsion      ENuc            ....     67.9727644985 Eh

Convergence Acceleration:
 DIIS                   CNVDIIS         .... on
   Start iteration      DIISMaxIt       ....    12
   Startup error        DIISStart       ....  0.200000
   # of expansion vecs  DIISMaxEq       ....     5
   Bias factor          DIISBfac        ....   1.050
   Max. coefficient     DIISMaxC        ....  10.000
 Trust-Rad. Augm. Hess. CNVTRAH         .... auto
   Auto Start mean grad. ratio tolernc. ....  1.125000
   Auto Start start iteration           ....     1
   Auto Start num. interpolation iter.  ....    10
   Max. Number of Micro iterations      ....    16
   Max. Number of Macro iterations      .... Maxiter - #DIIS iter
   Number of Davidson start vectors     ....     2
   Converg. threshold I  (grad. norm)   ....   1.000e-05
   Converg. threshold II (energy diff.) ....   1.000e-08
   Grad. Scal. Fac. for Micro threshold ....   0.100
   Minimum threshold for Micro iter.    ....   0.010
   NR start threshold (gradient norm)   ....   0.001
   Initial trust radius                 ....   0.400
   Minimum AH scaling param. (alpha)    ....   1.000
   Maximum AH scaling param. (alpha)    .... 1000.000
   Orbital update algorithm             .... Taylor
   White noise on init. David. guess    .... on
   Maximum white noise                  ....   0.010
   Quad. conv. algorithm                .... NR
 SOSCF                  CNVSOSCF        .... on
   Start iteration      SOSCFMaxIt      ....   150
   Startup grad/error   SOSCFStart      ....  0.003300
 Level Shifting         CNVShift        .... on
   Level shift para.    LevelShift      ....    0.2500
   Turn off err/grad.   ShiftErr        ....    0.0010
 Zerner damping         CNVZerner       .... off
 Static damping         CNVDamp         .... on
   Fraction old density DampFac         ....    0.7000
   Max. Damping (<1)    DampMax         ....    0.9800
   Min. Damping (>=0)   DampMin         ....    0.0000
   Turn off err/grad.   DampErr         ....    0.1000
 Fernandez-Rico         CNVRico         .... off

SCF Procedure:
 Maximum # iterations   MaxIter         ....   125
 SCF integral mode      SCFMode         .... Direct
   Integral package                     .... SHARK and LIBINT hybrid scheme
 Reset frequency        DirectResetFreq ....    20
 Integral Threshold     Thresh          ....  2.500e-11 Eh
 Primitive CutOff       TCut            ....  2.500e-12 Eh

Convergence Tolerance:
 Convergence Check Mode ConvCheckMode   .... Total+1el-Energy
 Convergence forced     ConvForced      .... 1
 Energy Change          TolE            ....  1.000e-08 Eh
 1-El. energy change                    ....  1.000e-05 Eh
 Orbital Gradient       TolG            ....  1.000e-05
 Orbital Rotation angle TolX            ....  1.000e-05
 DIIS Error             TolErr          ....  5.000e-07


Diagonalization of the overlap matrix:
Smallest eigenvalue                        ... 4.482e-04
Time for diagonalization                   ...    0.001 sec
Threshold for overlap eigenvalues          ... 1.000e-08
Number of eigenvalues below threshold      ... 0
Time for construction of square roots      ...    0.001 sec
Total time needed                          ...    0.003 sec

---------------------
INITIAL GUESS: MOREAD
---------------------
Guess MOs are being read from file: ox_es1_E_orca0001.ges
Input Geometry matches current geometry (good)
Input basis set matches current basis set (good)
MOs were renormalized
MOs were reorthogonalized (Cholesky)
                      ------------------
                      INITIAL GUESS DONE (   0.0 sec)
                      ------------------
-------------------
DFT GRID GENERATION
-------------------

General Integration Accuracy     IntAcc      ... 4.388
Radial Grid Type                 RadialGrid  ... OptM3 with GC (2021)
Angular Grid (max. ang.)         AngularGrid ... 4 (Lebedev-302)
Angular grid pruning method      GridPruning ... 4 (adaptive)
Weight generation scheme         WeightScheme... Becke
Basis function cutoff            BFCut       ... 1.0000e-11
Integration weight cutoff        WCut        ... 1.0000e-14
Angular grids for H and He will be reduced by one unit
Partially contracted basis set               ... off
Rotationally invariant grid construction     ... off

Total number of grid points                  ...    31334
Total number of batches                      ...      494
Average number of points per batch           ...       63
Average number of grid points per atom       ...     4476
Time for grid setup =    0.129 sec

--------------------
COSX GRID GENERATION
--------------------

GRIDX 1
-------
General Integration Accuracy     IntAcc      ... 3.816
Radial Grid Type                 RadialGrid  ... OptM3 with GC (2021)
Angular Grid (max. ang.)         AngularGrid ... 1 (Lebedev-50)
Angular grid pruning method      GridPruning ... 4 (adaptive)
Weight generation scheme         WeightScheme... Becke
Basis function cutoff            BFCut       ... 1.0000e-11
Integration weight cutoff        WCut        ... 1.0000e-14
Angular grids for H and He will be reduced by one unit
Partially contracted basis set               ... on
Rotationally invariant grid construction     ... off

Total number of grid points                  ...     4039
Total number of batches                      ...       67
Average number of points per batch           ...       60
Average number of grid points per atom       ...      577
UseSFitting                                  ... on

GRIDX 2
-------
General Integration Accuracy     IntAcc      ... 4.020
Radial Grid Type                 RadialGrid  ... OptM3 with GC (2021)
Angular Grid (max. ang.)         AngularGrid ... 2 (Lebedev-110)
Angular grid pruning method      GridPruning ... 4 (adaptive)
Weight generation scheme         WeightScheme... Becke
Basis function cutoff            BFCut       ... 1.0000e-11
Integration weight cutoff        WCut        ... 1.0000e-14
Angular grids for H and He will be reduced by one unit
Partially contracted basis set               ... on
Rotationally invariant grid construction     ... off

Total number of grid points                  ...     8732
Total number of batches                      ...      140
Average number of points per batch           ...       62
Average number of grid points per atom       ...     1247
UseSFitting                                  ... on

GRIDX 3
-------
General Integration Accuracy     IntAcc      ... 4.338
Radial Grid Type                 RadialGrid  ... OptM3 with GC (2021)
Angular Grid (max. ang.)         AngularGrid ... 3 (Lebedev-194)
Angular grid pruning method      GridPruning ... 4 (adaptive)
Weight generation scheme         WeightScheme... Becke
Basis function cutoff            BFCut       ... 1.0000e-11
Integration weight cutoff        WCut        ... 1.0000e-14
Angular grids for H and He will be reduced by one unit
Partially contracted basis set               ... on
Rotationally invariant grid construction     ... off

Total number of grid points                  ...    19271
Total number of batches                      ...      305
Average number of points per batch           ...       63
Average number of grid points per atom       ...     2753
UseSFitting                                  ... on

Time for X-Grid setup             =    0.083 sec

--------------
SCF ITERATIONS
--------------
ITER       Energy         Delta-E        Max-DP      RMS-DP      [F,P]     Damp
               ***  Starting incremental Fock matrix formation  ***
                      *** Initiating the SOSCF procedure ***
                      *** Re-Reading the Fockian *** 
                      *** Removing any level shift *** 
ITER      Energy       Delta-E        Grad      Rot      Max-DP    RMS-DP
  0   -153.53276221 -153.5327622122  0.000002  0.000002  0.000004  0.000000
               *** Restarting incremental Fock matrix formation ***
                  ***Gradient check signals convergence***
              ***Rediagonalizing the Fockian in SOSCF/NRSCF***

               *****************************************************
               *                     SUCCESS                       *
               *           SCF CONVERGED AFTER   1 CYCLES          *
               *****************************************************

Old exchange energy                            =     -4.949303164 Eh
New exchange energy                            =     -4.949305770 Eh
Exchange energy change after final integration =     -0.000002606 Eh
Total energy after final integration           =   -153.532764819 Eh
Final COS-X integration done in                =     0.330 sec

----------------
TOTAL SCF ENERGY
----------------

Total Energy       :         -153.53276482 Eh           -4177.83893 eV

Components:
Nuclear Repulsion  :           67.97276450 Eh            1849.63296 eV
Electronic Energy  :         -221.50552932 Eh           -6027.47188 eV
One Electron Energy:         -342.77253557 Eh           -9327.31488 eV
Two Electron Energy:          121.26700626 Eh            3299.84300 eV
Max COSX asymmetry :            0.00000091 Eh               0.00002 eV

Virial components:
Potential Energy   :         -306.24021561 Eh           -8333.21992 eV
Kinetic Energy     :          152.70745079 Eh            4155.38099 eV
Virial Ratio       :            2.00540454


DFT components:
N(Alpha)           :       12.000001039676 electrons
N(Beta)            :       12.000001039676 electrons
N(Total)           :       24.000002079352 electrons
E(X)               :      -14.866005720142 Eh       
E(C)               :       -0.770249283383 Eh       
E(XC)              :      -15.636255003525 Eh       
DFET-embed. en.    :        0.000000000000 Eh       

---------------
SCF CONVERGENCE
---------------

  Last Energy change         ...   -6.5683e-11  Tolerance :   1.0000e-08
  Last MAX-Density change    ...    9.9920e-16  Tolerance :   1.0000e-07
  Last RMS-Density change    ...    1.9045e-17  Tolerance :   5.0000e-09
  Last Orbital Gradient      ...    1.2673e-06  Tolerance :   1.0000e-05
  Last Orbital Rotation      ...    4.1388e-06  Tolerance :   1.0000e-05

             **** THE GBW FILE WAS UPDATED (ox_es1_E_orca0001.gbw) ****
             **** DENSITY ox_es1_E_orca0001.scfp WAS UPDATED ****
             **** ENERGY FILE WAS UPDATED (ox_es1_E_orca0001.en.tmp) ****
             **** THE GBW FILE WAS UPDATED (ox_es1_E_orca0001.gbw) ****
             **** DENSITY ox_es1_E_orca0001.scfp WAS UPDATED ****
----------------
ORBITAL ENERGIES
----------------

  NO   OCC          E(Eh)            E(eV) 
   0   2.0000     -19.201359      -522.4955 
   1   2.0000     -10.322732      -280.8958 
   2   2.0000     -10.274394      -279.5805 
   3   2.0000      -0.986939       -26.8560 
   4   2.0000      -0.779004       -21.1978 
   5   2.0000      -0.623870       -16.9764 
   6   2.0000      -0.520070       -14.1518 
   7   2.0000      -0.488778       -13.3003 
   8   2.0000      -0.418527       -11.3887 
   9   2.0000      -0.391928       -10.6649 
  10   2.0000      -0.274992        -7.4829 
  11   2.0000      -0.252503        -6.8709 
  12   0.0000      -0.149518        -4.0686 
  13   0.0000       0.053600         1.4585 
  14   0.0000       0.079688         2.1684 
  15   0.0000       0.081895         2.2285 
  16   0.0000       0.123223         3.3531 
  17   0.0000       0.147849         4.0232 
  18   0.0000       0.179244         4.8775 
  19   0.0000       0.206856         5.6288 
  20   0.0000       0.231009         6.2861 
  21   0.0000       0.244548         6.6545 
  22   0.0000       0.258675         7.0389 
  23   0.0000       0.331087         9.0093 
  24   0.0000       0.346616         9.4319 
  25   0.0000       0.371240        10.1020 
  26   0.0000       0.410684        11.1753 
  27   0.0000       0.413980        11.2650 
  28   0.0000       0.438708        11.9378 
  29   0.0000       0.486501        13.2384 
  30   0.0000       0.500534        13.6202 
  31   0.0000       0.532874        14.5002 
  32   0.0000       0.565425        15.3860 
  33   0.0000       0.592462        16.1217 
  34   0.0000       0.675896        18.3921 
  35   0.0000       0.717563        19.5259 
  36   0.0000       0.787351        21.4249 
  37   0.0000       0.856422        23.3044 
  38   0.0000       0.866291        23.5730 
  39   0.0000       0.919599        25.0236 
  40   0.0000       0.926494        25.2112 
  41   0.0000       1.031864        28.0785 
  42   0.0000       1.080195        29.3936 
  43   0.0000       1.093756        29.7626 
  44   0.0000       1.176482        32.0137 
  45   0.0000       1.317471        35.8502 
  46   0.0000       1.405458        38.2444 
  47   0.0000       1.440186        39.1894 
  48   0.0000       1.509939        41.0875 
  49   0.0000       1.540044        41.9067 
  50   0.0000       1.576747        42.9055 
  51   0.0000       1.590043        43.2673 
  52   0.0000       1.613017        43.8924 
  53   0.0000       1.661983        45.2249 
  54   0.0000       1.748230        47.5718 
  55   0.0000       1.767868        48.1061 
  56   0.0000       1.777865        48.3782 
  57   0.0000       1.831675        49.8424 
  58   0.0000       1.872193        50.9450 
  59   0.0000       1.895836        51.5883 
  60   0.0000       2.005244        54.5655 
  61   0.0000       2.021431        55.0059 
  62   0.0000       2.183880        59.4264 
  63   0.0000       2.203340        59.9559 
  64   0.0000       2.302435        62.6524 
  65   0.0000       2.339241        63.6540 
  66   0.0000       2.372600        64.5617 
  67   0.0000       2.455572        66.8195 
  68   0.0000       2.478495        67.4433 
  69   0.0000       2.517251        68.4979 
  70   0.0000       2.538269        69.0698 
  71   0.0000       2.586834        70.3913 
  72   0.0000       2.603488        70.8445 
  73   0.0000       2.634286        71.6826 
  74   0.0000       2.746548        74.7374 
  75   0.0000       2.771991        75.4297 
  76   0.0000       2.861677        77.8702 
  77   0.0000       2.957961        80.4902 
  78   0.0000       2.981439        81.1291 
  79   0.0000       3.013120        81.9912 
  80   0.0000       3.081997        83.8654 
  81   0.0000       3.100950        84.3811 
  82   0.0000       3.129668        85.1626 
  83   0.0000       3.141302        85.4792 
  84   0.0000       3.151406        85.7541 
  85   0.0000       3.177112        86.4536 
  86   0.0000       3.325027        90.4786 
  87   0.0000       3.359715        91.4225 
  88   0.0000       3.425782        93.2203 
  89   0.0000       3.459610        94.1408 
  90   0.0000       3.475315        94.5681 
  91   0.0000       3.638369        99.0051 
  92   0.0000       3.724359       101.3450 
  93   0.0000       3.853652       104.8632 
  94   0.0000       4.016889       109.3051 
  95   0.0000       4.100332       111.5757 
  96   0.0000       4.168472       113.4299 
  97   0.0000       4.248624       115.6109 
  98   0.0000       4.378610       119.1480 
  99   0.0000       4.518957       122.9671 
 100   0.0000       4.557895       124.0266 
 101   0.0000       4.694021       127.7308 
 102   0.0000       5.197072       141.4195 
 103   0.0000       5.237096       142.5086 
 104   0.0000       5.357296       145.7794 
 105   0.0000       5.395741       146.8256 
 106   0.0000       5.713154       155.4628 
 107   0.0000       5.738371       156.1490 
 108   0.0000       5.892197       160.3348 
 109   0.0000       6.370042       173.3377 
 110   0.0000       6.382224       173.6691 
 111   0.0000       6.768759       184.1873 
 112   0.0000       6.780898       184.5176 
 113   0.0000       6.965686       189.5460 
 114   0.0000      22.059325       600.2648 
 115   0.0000      22.384590       609.1157 
 116   0.0000      43.734099      1190.0653 

                    ********************************
                    * MULLIKEN POPULATION ANALYSIS *
                    ********************************

-----------------------
MULLIKEN ATOMIC CHARGES
-----------------------
   0 O :   -0.378626
   1 C :   -0.085384
   2 C :   -0.116755
   3 H :    0.107111
   4 H :    0.141263
   5 H :    0.163077
   6 H :    0.169315
Sum of atomic charges:   -0.0000000

--------------------------------
MULLIKEN REDUCED ORBITAL CHARGES
--------------------------------
  0 O s       :     3.915379  s :     3.915379
      pz      :     1.918944  p :     4.440326
      px      :     1.205846
      py      :     1.315536
      dz2     :     0.003009  d :     0.021787
      dxz     :     0.000190
      dyz     :     0.005065
      dx2y2   :     0.008139
      dxy     :     0.005384
      f0      :     0.000138  f :     0.001135
      f+1     :     0.000056
      f-1     :     0.000268
      f+2     :     0.000147
      f-2     :     0.000027
      f+3     :     0.000240
      f-3     :     0.000258
  1 C s       :     3.206217  s :     3.206217
      pz      :     1.082614  p :     2.715110
      px      :     0.899865
      py      :     0.732631
      dz2     :     0.010555  d :     0.154660
      dxz     :     0.021247
      dyz     :     0.043972
      dx2y2   :     0.021216
      dxy     :     0.057671
      f0      :     0.001566  f :     0.009397
      f+1     :     0.001190
      f-1     :     0.000718
      f+2     :     0.002891
      f-2     :     0.000253
      f+3     :     0.002263
      f-3     :     0.000516
  2 C s       :     3.285121  s :     3.285121
      pz      :     1.047135  p :     2.777727
      px      :     1.020131
      py      :     0.710461
      dz2     :     0.005986  d :     0.049533
      dxz     :     0.021719
      dyz     :     0.003924
      dx2y2   :     0.005194
      dxy     :     0.012709
      f0      :     0.000506  f :     0.004375
      f+1     :     0.000996
      f-1     :     0.000169
      f+2     :     0.000646
      f-2     :     0.000214
      f+3     :     0.000716
      f-3     :     0.001128
  3 H s       :     0.873815  s :     0.873815
      pz      :     0.009165  p :     0.019074
      px      :     0.006220
      py      :     0.003690
  4 H s       :     0.835567  s :     0.835567
      pz      :     0.009800  p :     0.023170
      px      :     0.007560
      py      :     0.005809
  5 H s       :     0.813884  s :     0.813884
      pz      :     0.011663  p :     0.023039
      px      :     0.006679
      py      :     0.004697
  6 H s       :     0.807474  s :     0.807474
      pz      :     0.011629  p :     0.023211
      px      :     0.006929
      py      :     0.004653


                     *******************************
                     * LOEWDIN POPULATION ANALYSIS *
                     *******************************

----------------------
LOEWDIN ATOMIC CHARGES
----------------------
   0 O :   -0.078031
   1 C :   -0.442194
   2 C :    0.000585
   3 H :    0.124804
   4 H :    0.126416
   5 H :    0.135649
   6 H :    0.132772

-------------------------------
LOEWDIN REDUCED ORBITAL CHARGES
-------------------------------
  0 O s       :     3.592414  s :     3.592414
      pz      :     1.853664  p :     4.432295
      px      :     1.159641
      py      :     1.418990
      dz2     :     0.006372  d :     0.050136
      dxz     :     0.000179
      dyz     :     0.013980
      dx2y2   :     0.017198
      dxy     :     0.012407
      f0      :     0.000347  f :     0.003187
      f+1     :     0.000083
      f-1     :     0.000527
      f+2     :     0.000615
      f-2     :     0.000040
      f+3     :     0.000851
      f-3     :     0.000723
  1 C s       :     2.838102  s :     2.838102
      pz      :     1.062587  p :     2.954924
      px      :     1.043643
      py      :     0.848694
      dz2     :     0.062797  d :     0.584532
      dxz     :     0.109864
      dyz     :     0.115407
      dx2y2   :     0.121533
      dxy     :     0.174931
      f0      :     0.009025  f :     0.064636
      f+1     :     0.006060
      f-1     :     0.006562
      f+2     :     0.015696
      f-2     :     0.002647
      f+3     :     0.016074
      f-3     :     0.008572
  2 C s       :     2.905666  s :     2.905666
      pz      :     1.075214  p :     2.849897
      px      :     1.130893
      py      :     0.643789
      dz2     :     0.030868  d :     0.220003
      dxz     :     0.102463
      dyz     :     0.012244
      dx2y2   :     0.036424
      dxy     :     0.038004
      f0      :     0.003594  f :     0.023850
      f+1     :     0.003431
      f-1     :     0.001287
      f+2     :     0.004052
      f-2     :     0.001703
      f+3     :     0.004160
      f-3     :     0.005623
  3 H s       :     0.823136  s :     0.823136
      pz      :     0.026610  p :     0.052060
      px      :     0.015629
      py      :     0.009821
  4 H s       :     0.808165  s :     0.808165
      pz      :     0.029764  p :     0.065419
      px      :     0.020167
      py      :     0.015488
  5 H s       :     0.797588  s :     0.797588
      pz      :     0.035107  p :     0.066763
      px      :     0.018520
      py      :     0.013137
  6 H s       :     0.799180  s :     0.799180
      pz      :     0.035605  p :     0.068048
      px      :     0.019265
      py      :     0.013178


                      *****************************
                      * MAYER POPULATION ANALYSIS *
                      *****************************

  NA   - Mulliken gross atomic population
  ZA   - Total nuclear charge
  QA   - Mulliken gross atomic charge
  VA   - Mayer's total valence
  BVA  - Mayer's bonded valence
  FA   - Mayer's free valence

  ATOM       NA         ZA         QA         VA         BVA        FA
  0 O      8.3786     8.0000    -0.3786     1.7777     1.7777     0.0000
  1 C      6.0854     6.0000    -0.0854     4.0052     4.0052     0.0000
  2 C      6.1168     6.0000    -0.1168     3.7920     3.7920    -0.0000
  3 H      0.8929     1.0000     0.1071     0.9622     0.9622    -0.0000
  4 H      0.8587     1.0000     0.1413     0.9783     0.9783    -0.0000
  5 H      0.8369     1.0000     0.1631     0.9597     0.9597    -0.0000
  6 H      0.8307     1.0000     0.1693     0.9600     0.9600    -0.0000

  Mayer bond orders larger than 0.100000
B(  0-O ,  1-C ) :   0.9627 B(  0-O ,  2-C ) :   0.8156 B(  1-C ,  2-C ) :   1.0882 
B(  1-C ,  3-H ) :   0.9602 B(  1-C ,  4-H ) :   0.9876 B(  2-C ,  5-H ) :   0.9464 
B(  2-C ,  6-H ) :   0.9432 

-------
TIMINGS
-------

Total SCF time: 0 days 0 hours 0 min 1 sec 

Total time                  ....       1.202 sec
Sum of individual times     ....       1.096 sec  ( 91.2%)

Fock matrix formation       ....       0.867 sec  ( 72.2%)
  Split-RI-J                ....       0.137 sec  ( 15.8% of F)
  Chain of spheres X        ....       0.643 sec  ( 74.1% of F)
  XC integration            ....       0.078 sec  (  9.0% of F)
    Basis function eval.    ....       0.022 sec  ( 28.1% of XC)
    Density eval.           ....       0.017 sec  ( 21.5% of XC)
    XC-Functional eval.     ....       0.005 sec  (  6.2% of XC)
    XC-Potential eval.      ....       0.026 sec  ( 32.8% of XC)
Diagonalization             ....       0.003 sec  (  0.2%)
Density matrix formation    ....       0.000 sec  (  0.0%)
Population analysis         ....       0.003 sec  (  0.3%)
Initial guess               ....       0.005 sec  (  0.4%)
Orbital Transformation      ....       0.000 sec  (  0.0%)
Orbital Orthonormalization  ....       0.001 sec  (  0.1%)
DIIS solution               ....       0.002 sec  (  0.1%)
SOSCF solution              ....       0.003 sec  (  0.2%)
Grid generation             ....       0.213 sec  ( 17.7%)

Maximum memory used throughout the entire SCF-calculation: 61.1 MB


           ************************************************************
           *        Program running with 8 parallel MPI-processes     *
           *              working on a common directory               *
           ************************************************************
------------------------------------------------------------------------------
                        ORCA TD-DFT/TDA CALCULATION
------------------------------------------------------------------------------

Input orbitals are from        ... ox_es1_E_orca0001.gbw
CI-vector output               ... ox_es1_E_orca0001.cis
Tamm-Dancoff approximation     ... operative
CIS-Integral strategy          ... AO-integrals
Integral handling              ... AO integral Direct
Max. core memory used          ... 3000 MB
Reference state                ... RHF
Generation of triplets         ... off
Follow IRoot                   ... off
Number of operators            ... 1
Orbital ranges used for CIS calculation:
 Operator 0:  Orbitals   3... 11  to  12...116
XAS localization array:
 Operator 0:  Orbitals  -1... -1

-------------------
XC-INTEGRATION GRID
-------------------

General Integration Accuracy     IntAcc      ... 3.467
Radial Grid Type                 RadialGrid  ... OptM3 with GC (2021)
Angular Grid (max. ang.)         AngularGrid ... 1 (Lebedev-50)
Angular grid pruning method      GridPruning ... 4 (adaptive)
Weight generation scheme         WeightScheme... Becke
Basis function cutoff            BFCut       ... 1.0000e-11
Integration weight cutoff        WCut        ... 1.0000e-14
Angular grids for H and He will be reduced by one unit
Partially contracted basis set               ... off
Rotationally invariant grid construction     ... off

Total number of grid points                  ...     4541
Total number of batches                      ...       74
Average number of points per batch           ...       61
Average number of grid points per atom       ...      649

---------------------
COSX-INTEGRATION GRID
---------------------

General Integration Accuracy     IntAcc      ... 3.067
Radial Grid Type                 RadialGrid  ... OptM3 with GC (2021)
Angular Grid (max. ang.)         AngularGrid ... 1 (Lebedev-50)
Angular grid pruning method      GridPruning ... 4 (adaptive)
Weight generation scheme         WeightScheme... Becke
Basis function cutoff            BFCut       ... 1.0000e-11
Integration weight cutoff        WCut        ... 1.0000e-14
Angular grids for H and He will be reduced by one unit
Partially contracted basis set               ... on
Rotationally invariant grid construction     ... off

Total number of grid points                  ...     2087
Total number of batches                      ...       36
Average number of points per batch           ...       57
Average number of grid points per atom       ...      298

---------------
TD-DFT XC SETUP
---------------

DFT calculation                         ... on
Name of the grid file                   ... ox_es1_E_orca0001.grid_cis.tmp
Exchange functional (TD-DFT)            ... PBE
   PBE kappa parameter  XKappa (TD-DFT) ...  0.804000
   PBE mue parameter   XMuePBE (TD-DFT) ...  0.219520
Correlation functional (TD-DFT)         ... PBE
   PBE beta parameter CBetaPBE (TD-DFT) ...  0.066725
 LDA part of GGA corr.  LDAOpt (TD-DFT) ... PW91-LDA
Hybrid DFT                              ... on
   Exchange mixing (TD-DFT)             ...  0.250
   GGA exch. scaling (TD-DFT)           ...  0.750
   GGA corr. scaling (TD-DFT)           ...  1.000

Building densities             ... done
Calculating rho(r) on the grid ... done
Building xc-kernel on the grid ... done
                    *** TD-DFT CALCULATION INITIALIZED ***

------------------------
DAVIDSON-DIAGONALIZATION
------------------------

Dimension of the eigenvalue problem            ...    945
Number of roots to be determined               ...      1
Maximum size of the expansion space            ...     10
Maximum number of iterations                   ...    100
Convergence tolerance for the residual         ...    2.500e-07
Convergence tolerance for the energies         ...    2.500e-07
Orthogonality tolerance                        ...    1.000e-14
Level Shift                                    ...    0.000e+00
Constructing the preconditioner                ... o.k.
Building the initial guess                     ... o.k.
Number of trial vectors determined             ...     10


                       ****Iteration    0****

   Memory handling for direct AO based CIS:
   Memory per vector needed      ...     1 MB
   Memory needed                 ...     1 MB
   Memory available              ...  3000 MB
   Number of vectors per batch   ...  3000
   Number of batches             ...     1
   Time for densities:            0.001
   Time for RI-J (Direct):        0.016
   Time for K (COSX):             0.062
   Time for XC-Integration:       0.017
   Time for Sigma-Completion:     0.000
   Size of expansion space: 3
   Lowest Energy          :     0.022411265967
   Maximum Energy change  :     0.022411265967 (vector 0)
   Maximum residual norm  :     0.002491055717

                       ****Iteration    1****
   Time for densities:            0.000
   Time for RI-J (Direct):        0.014
   Time for K (COSX):             0.058
   Time for XC-Integration:       0.007
   Time for Sigma-Completion:     0.000
   Size of expansion space: 4
   Lowest Energy          :     0.020614708730
   Maximum Energy change  :     0.001796557238 (vector 0)
   Maximum residual norm  :     0.000046206133

                       ****Iteration    2****
   Time for densities:            0.000
   Time for RI-J (Direct):        0.014
   Time for K (COSX):             0.060
   Time for XC-Integration:       0.008
   Time for Sigma-Completion:     0.000
   Size of expansion space: 5
   Lowest Energy          :     0.020581238723
   Maximum Energy change  :     0.000033470007 (vector 0)
   Maximum residual norm  :     0.000002284105

                       ****Iteration    3****
   Time for densities:            0.000
   Time for RI-J (Direct):        0.014
   Time for K (COSX):             0.061
   Time for XC-Integration:       0.008
   Time for Sigma-Completion:     0.000
   Size of expansion space: 6
   Lowest Energy          :     0.020579342744
   Maximum Energy change  :     0.000001895979 (vector 0)
   Maximum residual norm  :     0.000000129869

      *** CONVERGENCE OF RESIDUAL NORM REACHED ***

Storing the converged CI vectors               ... ox_es1_E_orca0001.cis1

                 *** DAVIDSON DONE ***

Total time for solving the CIS problem:     0.346sec

------------------------------------
TD-DFT/TDA EXCITED STATES (SINGLETS)
------------------------------------

the weight of the individual excitations are printed if larger than 1.0e-02

STATE  1:  E=   0.020579 au      0.560 eV     4516.6 cm**-1 <S**2> =   0.000000
    11a ->  12a  :     0.991873 (c=  0.99592814)


-----------------------------
TD-DFT/TDA-EXCITATION SPECTRA
-----------------------------

Center of mass = ( -0.6022,  0.0644, -0.0023)
Calculating the Dipole integrals                  ... done
Transforming integrals                            ... done
Calculating the Linear Momentum integrals         ... done
Transforming integrals                            ... done
Calculating angular momentum integrals            ... done
Transforming integrals                            ... done

-----------------------------------------------------------------------------
         ABSORPTION SPECTRUM VIA TRANSITION ELECTRIC DIPOLE MOMENTS
-----------------------------------------------------------------------------
State   Energy    Wavelength  fosc         T2        TX        TY        TZ  
        (cm-1)      (nm)                 (au**2)    (au)      (au)      (au) 
-----------------------------------------------------------------------------
   1    4516.6   2214.0   0.000030226   0.00220  -0.00593   0.01095  -0.04525

-----------------------------------------------------------------------------
         ABSORPTION SPECTRUM VIA TRANSITION VELOCITY DIPOLE MOMENTS
-----------------------------------------------------------------------------
State   Energy    Wavelength   fosc        P2         PX        PY        PZ  
        (cm-1)      (nm)                 (au**2)     (au)      (au)      (au) 
-----------------------------------------------------------------------------
   1    4516.6   2214.0   0.017830111   0.00055  -0.00502   0.00644   0.02200

-------------------------------------------------------------------
                             CD SPECTRUM
-------------------------------------------------------------------
State  Energy     Wavelength     R         MX        MY        MZ   
       (cm-1)       (nm)     (1e40*cgs)   (au)      (au)      (au)  
-------------------------------------------------------------------
   1    4516.6   2214.0      1.70671   0.02513   0.29548  -0.01177

-------------------------------------------------------------------
         CD SPECTRUM VIA TRANSITION VELOCITY DIPOLE MOMENTS        
-------------------------------------------------------------------
State  Energy     Wavelength     R         MX        MY        MZ   
       (cm-1)       (nm)     (1e40*cgs)   (au)      (au)      (au)  
-------------------------------------------------------------------
   1    4516.6   2214.0     34.75879   0.02513   0.29548  -0.01177

Total run time:        0.656 sec

           *** ORCA-CIS/TD-DFT FINISHED WITHOUT ERROR ***

Maximum memory used throughout the entire CIS-calculation: 49.4 MB

-----------------------
CIS/TD-DFT TOTAL ENERGY
-----------------------

    E(SCF)  =   -153.532764819 Eh
    DE(CIS) =      0.020579343 Eh (Root  1)
    ----------------------------- ---------
    E(tot)  =   -153.512185476 Eh



-------------------------------------------------------------------------------
                          DFT DISPERSION CORRECTION                            
                                                                               
                              DFTD3 V3.1  Rev 1                                
                          USING Becke-Johnson damping                          
-------------------------------------------------------------------------------
The PBE0 functional is recognized
Active option DFTDOPT                   ...         4   

molecular C6(AA) [au] = 394.705029 


            DFT-D V3
 parameters
 s6 scaling factor         :     1.0000 
 a1 scaling factor         :     0.4145 
 s8 scaling factor         :     1.2177 
 a2 scaling factor         :     4.8593 
 ad hoc parameters k1-k3   :    16.0000     1.3333    -4.0000 

 Edisp/kcal,au: -1.644473703367  -0.002620635378 
 E6   /kcal   :  -1.072775177 
 E8   /kcal   :  -0.571698527 
 % E8         :  34.764832395 

-------------------------   ----------------
Dispersion correction           -0.002620635
-------------------------   ----------------


-------------------------   --------------------
FINAL SINGLE POINT ENERGY      -153.514806111201
-------------------------   --------------------



           ************************************************************
           *        Program running with 8 parallel MPI-processes     *
           *              working on a common directory               *
           ************************************************************
------------------------------------------------------------------------------
                         ORCA SCF GRADIENT CALCULATION
------------------------------------------------------------------------------


------------------------
TD-DFT GRADIENT XC SETUP
------------------------

Building densities                     ... done
Calculating rho(r) on the grid         ... done
Building xc-kernel on the grid         ... done
Building xc 3rd derivative on the grid      ... done
                *** TD-DFT GRADIENT CALCULATION INITIALIZED ***

-------------------
TD-DFT/TDA GRADIENT
-------------------

Reference wavefunction             ... RHF
State of interest                  ... 1
Basis dimension                    ... 117
DFT-XC contribution needed         ... YES
RI-approximation                   ... ON
CIS-vectors being read from        ... ox_es1_E_orca0001.cis

 => Number of Vectors found: 1
 => Orbital Window: 3...11 -> 12...116

Reading the CIS file                     ... done
Norm of the CI vector                    ... 1.000000000
Making the CIS (pseudo)densities         ... done
Making operators G(D) and Q(T)           ... done
Transforming the Fock operators          ... done
Making the frozen-core relaxed density   ... done
Constructing the G(H) operator           ... done
Transforming the G(H) operator           ... done
Calculating the CIS Lagrangian           ... done
Solving the Z-vector equations           ... done
Finalizing the relaxed density           ... done
Storing the relaxed density              ... done
Constructing the G(Z) operator           ... done
Transforming the G(Z) operator           ... done
Making the W-matrix                      ... done
Finalizing the W-matrix                  ... done
Transforming the W-matrix                ... done
Nuclear repulsion gradient               ... done
One-Electron gradient                    ... done
Dispersion correction                    ... done
Prescreening matrices                    ... done
COSX-gradient                            ... done
Coulomb gradient (RI)                    ... done
Exchange-Correlation gradient            ... done

                 ---------------------------
                 EXCITED STATE GRADIENT DONE
                 ---------------------------

------------------
CARTESIAN GRADIENT
------------------

   1   O   :   -0.004322150    0.015798303   -0.006618263
   2   C   :    0.013036156   -0.076887597   -0.037877272
   3   C   :    0.020406870    0.044077081    0.016368075
   4   H   :   -0.013776390    0.007227822    0.020554204
   5   H   :   -0.003356779    0.028789156    0.012306188
   6   H   :   -0.008646207   -0.010648309    0.001209695
   7   H   :   -0.003406643   -0.008369931   -0.005880688

Difference to translation invariance:
           :   -0.0000651423   -0.0000134757    0.0000619392

Difference to rotation invariance:
           :    0.0000045051    0.0000820936   -0.0001986146

Norm of the cartesian gradient     ...    0.1114335018
RMS gradient                       ...    0.0243167837
MAX gradient                       ...    0.0768875971

------------------------------------------------------------------------------
                  RELAXED CIS/TDA DENSITY POPULATION ANALYSIS
                                   IROOT 1
------------------------------------------------------------------------------
------------------------------------------------------------------------------
                           ORCA POPULATION ANALYSIS
------------------------------------------------------------------------------
Input electron density              ... ox_es1_E_orca0001.cisp
BaseName (.gbw .S,...)              ... ox_es1_E_orca0001

                    ********************************
                    * MULLIKEN POPULATION ANALYSIS *
                    ********************************

-----------------------
MULLIKEN ATOMIC CHARGES
-----------------------
   0 O :   -0.291365
   1 C :   -0.108407
   2 C :   -0.212780
   3 H :    0.154209
   4 H :    0.176122
   5 H :    0.138009
   6 H :    0.144213
Sum of atomic charges:    0.0000000

--------------------------------
MULLIKEN REDUCED ORBITAL CHARGES
--------------------------------
  0 O s       :     3.905981  s :     3.905981
      pz      :     1.124164  p :     4.363048
      px      :     1.930441
      py      :     1.308443
      dz2     :     0.002670  d :     0.021444
      dxz     :     0.000166
      dyz     :     0.005839
      dx2y2   :     0.008078
      dxy     :     0.004691
      f0      :     0.000035  f :     0.000892
      f+1     :    -0.000011
      f-1     :     0.000078
      f+2     :     0.000153
      f-2     :     0.000013
      f+3     :     0.000252
      f-3     :     0.000372
  1 C s       :     3.210216  s :     3.210216
      pz      :     1.022832  p :     2.745222
      px      :     0.966771
      py      :     0.755619
      dz2     :     0.009308  d :     0.143410
      dxz     :     0.025709
      dyz     :     0.022928
      dx2y2   :     0.024840
      dxy     :     0.060626
      f0      :     0.000856  f :     0.009558
      f+1     :     0.001286
      f-1     :     0.000480
      f+2     :     0.001613
      f-2     :     0.000187
      f+3     :     0.003029
      f-3     :     0.002108
  2 C s       :     3.285116  s :     3.285116
      pz      :     1.022217  p :     2.880237
      px      :     0.956916
      py      :     0.901104
      dz2     :     0.005536  d :     0.043165
      dxz     :     0.014435
      dyz     :     0.003115
      dx2y2   :     0.007207
      dxy     :     0.012873
      f0      :     0.000469  f :     0.004262
      f+1     :     0.000884
      f-1     :     0.000258
      f+2     :     0.000615
      f-2     :     0.000132
      f+3     :     0.000824
      f-3     :     0.001079
  3 H s       :     0.826146  s :     0.826146
      pz      :     0.009453  p :     0.019645
      px      :     0.006344
      py      :     0.003848
  4 H s       :     0.799999  s :     0.799999
      pz      :     0.010150  p :     0.023879
      px      :     0.007917
      py      :     0.005811
  5 H s       :     0.838564  s :     0.838564
      pz      :     0.010926  p :     0.023427
      px      :     0.006344
      py      :     0.006157
  6 H s       :     0.832186  s :     0.832186
      pz      :     0.010906  p :     0.023601
      px      :     0.006570
      py      :     0.006126


                     *******************************
                     * LOEWDIN POPULATION ANALYSIS *
                     *******************************

----------------------
LOEWDIN ATOMIC CHARGES
----------------------
   0 O :   -0.014670
   1 C :   -0.402513
   2 C :   -0.146096
   3 H :    0.163124
   4 H :    0.159992
   5 H :    0.121935
   6 H :    0.118227

-------------------------------
LOEWDIN REDUCED ORBITAL CHARGES
-------------------------------
  0 O s       :     3.597489  s :     3.597489
      pz      :     1.097412  p :     4.364238
      px      :     1.855165
      py      :     1.411661
      dz2     :     0.006429  d :     0.049999
      dxz     :     0.000224
      dyz     :     0.012600
      dx2y2   :     0.017319
      dxy     :     0.013427
      f0      :     0.000339  f :     0.002944
      f+1     :     0.000042
      f-1     :     0.000358
      f+2     :     0.000438
      f-2     :     0.000041
      f+3     :     0.000859
      f-3     :     0.000867
  1 C s       :     2.843461  s :     2.843461
      pz      :     1.002000  p :     2.943552
      px      :     1.079131
      py      :     0.862421
      dz2     :     0.060339  d :     0.545354
      dxz     :     0.114161
      dyz     :     0.058470
      dx2y2   :     0.147891
      dxy     :     0.164493
      f0      :     0.005593  f :     0.070146
      f+1     :     0.006032
      f-1     :     0.006223
      f+2     :     0.010024
      f-2     :     0.001858
      f+3     :     0.020999
      f-3     :     0.019418
  2 C s       :     2.913610  s :     2.913610
      pz      :     1.065532  p :     2.988748
      px      :     1.096214
      py      :     0.827002
      dz2     :     0.032291  d :     0.219417
      dxz     :     0.090947
      dyz     :     0.011145
      dx2y2   :     0.038021
      dxy     :     0.047012
      f0      :     0.003397  f :     0.024321
      f+1     :     0.003774
      f-1     :     0.001575
      f+2     :     0.003669
      f-2     :     0.001522
      f+3     :     0.004751
      f-3     :     0.005634
  3 H s       :     0.783861  s :     0.783861
      pz      :     0.026969  p :     0.053014
      px      :     0.015896
      py      :     0.010149
  4 H s       :     0.773959  s :     0.773959
      pz      :     0.030184  p :     0.066049
      px      :     0.020639
      py      :     0.015226
  5 H s       :     0.809761  s :     0.809761
      pz      :     0.032681  p :     0.068304
      px      :     0.017525
      py      :     0.018099
  6 H s       :     0.812114  s :     0.812114
      pz      :     0.033228  p :     0.069659
      px      :     0.018196
      py      :     0.018234


                      *****************************
                      * MAYER POPULATION ANALYSIS *
                      *****************************

  NA   - Mulliken gross atomic population
  ZA   - Total nuclear charge
  QA   - Mulliken gross atomic charge
  VA   - Mayer's total valence
  BVA  - Mayer's bonded valence
  FA   - Mayer's free valence

  ATOM       NA         ZA         QA         VA         BVA        FA
  0 O      8.2914     8.0000    -0.2914     1.8207     1.1789     0.6418
  1 C      6.1084     6.0000    -0.1084     4.0737     3.9848     0.0889
  2 C      6.2128     6.0000    -0.2128     3.8521     3.1056     0.7465
  3 H      0.8458     1.0000     0.1542     0.9578     0.8930     0.0648
  4 H      0.8239     1.0000     0.1761     0.9646     0.9106     0.0540
  5 H      0.8620     1.0000     0.1380     0.9721     0.9639     0.0082
  6 H      0.8558     1.0000     0.1442     0.9714     0.9616     0.0099

  Mayer bond orders larger than 0.100000
B(  0-O ,  1-C ) :   1.0708 B(  1-C ,  2-C ) :   1.1207 B(  1-C ,  3-H ) :   0.8885 
B(  1-C ,  4-H ) :   0.8976 B(  2-C ,  5-H ) :   0.9518 B(  2-C ,  6-H ) :   0.9489 



-------
TIMINGS
-------

Total TD-DFT gradient time         ...        6.807 sec

Fock matrix formation       ....       0.987 sec  ( 14.5%)
  Coulomb formation         ....       0.801 sec  ( 81.2% of F)
  RI-J                      ....       0.334 sec  ( 33.8% of F)
  Chain of spheres X        ....       0.467 sec  ( 47.3% of F)
  XC integration            ....       0.185 sec  ( 18.8% of F)
Z-vector equation           ....       2.622 sec  ( 38.5%)
One electron gradient       ....       0.038 sec  (  0.6%)
Prescreening matrices       ....       0.181 sec  (  2.7%)
RI-J Coulomb gradient       ....       0.301 sec  (  4.4%)
COSX gradient               ....       0.427 sec  (  6.3%)
XC gradient                 ....       1.897 sec  ( 27.9%)

Maximum memory used throughout the entire SCFGRAD-calculation: 130.2 MB

                            ***************************************
                            *     ORCA property calculations      *
                            ***************************************

                                    ---------------------
                                    Active property flags
                                    ---------------------
   (+) Dipole Moment


------------------------------------------------------------------------------
                       ORCA ELECTRIC PROPERTIES CALCULATION
------------------------------------------------------------------------------

Dipole Moment Calculation                       ... on
Quadrupole Moment Calculation                   ... off
Polarizability Calculation                      ... off
GBWName                                         ... ox_es1_E_orca0001.gbw
Electron density                                ... ox_es1_E_orca0001.scfp
The origin for moment calculation is the CENTER OF MASS  = (-0.602177,  0.064444 -0.002323)

-------------
DIPOLE MOMENT
-------------
                                X             Y             Z
Electronic contribution:     -0.35046       1.53271      -0.13934
Nuclear contribution   :      1.07235      -2.77044       0.21319
                        -----------------------------------------
Total Dipole Moment    :      0.72189      -1.23772       0.07385
                        -----------------------------------------
Magnitude (a.u.)       :      1.43476
Magnitude (Debye)      :      3.64687



--------------------
Rotational spectrum 
--------------------
 
Rotational constants in cm-1:     1.212516     0.385229     0.330551 
Rotational constants in MHz : 36350.305109 11548.869004  9909.655101 

 Dipole components along the rotational axes: 
x,y,z [a.u.] :     1.342235    -0.504941     0.044497 
x,y,z [Debye]:     3.411689    -1.283459     0.113102 

 

                        *** CIS RELAXED DENSITY ***

------------------------------------------------------------------------------
                       ORCA ELECTRIC PROPERTIES CALCULATION
------------------------------------------------------------------------------

Dipole Moment Calculation                       ... on
Quadrupole Moment Calculation                   ... off
Polarizability Calculation                      ... off
GBWName                                         ... ox_es1_E_orca0001.gbw
Electron density                                ... ox_es1_E_orca0001.cisp
The origin for moment calculation is the CENTER OF MASS  = (-0.602177,  0.064444 -0.002323)

-------------
DIPOLE MOMENT
-------------
                                X             Y             Z
Electronic contribution:     -0.91025       1.71749      -0.13766
Nuclear contribution   :      1.07235      -2.77044       0.21319
                        -----------------------------------------
Total Dipole Moment    :      0.16210      -1.05294       0.07552
                        -----------------------------------------
Magnitude (a.u.)       :      1.06802
Magnitude (Debye)      :      2.71469



--------------------
Rotational spectrum 
--------------------
 
Rotational constants in cm-1:     1.212516     0.385229     0.330551 
Rotational constants in MHz : 36350.305109 11548.869004  9909.655101 

 Dipole components along the rotational axes: 
x,y,z [a.u.] :     0.792626    -0.715719     0.012567 
x,y,z [Debye]:     2.014694    -1.819213     0.031942 

 

Timings for individual modules:

Sum of individual times         ...        9.482 sec (=   0.158 min)
GTO integral calculation        ...        0.264 sec (=   0.004 min)   2.8 %
SCF iterations                  ...        1.371 sec (=   0.023 min)  14.5 %
CIS module                      ...        0.855 sec (=   0.014 min)   9.0 %
SCF Gradient evaluation         ...        6.992 sec (=   0.117 min)  73.7 %
                             ****ORCA TERMINATED NORMALLY****
TOTAL RUN TIME: 0 days 0 hours 0 minutes 9 seconds 968 msec
