
                                 *****************
                                 * O   R   C   A *
                                 *****************

                                            #,                                       
                                            ###                                      
                                            ####                                     
                                            #####                                    
                                            ######                                   
                                           ########,                                 
                                     ,,################,,,,,                         
                               ,,#################################,,                 
                          ,,##########################################,,             
                       ,#########################################, ''#####,          
                    ,#############################################,,   '####,        
                  ,##################################################,,,,####,       
                ,###########''''           ''''###############################       
              ,#####''   ,,,,##########,,,,          '''####'''          '####       
            ,##' ,,,,###########################,,,                        '##       
           ' ,,###''''                  '''############,,,                           
         ,,##''                                '''############,,,,        ,,,,,,###''
      ,#''                                            '''#######################'''  
     '                                                          ''''####''''         
             ,#######,   #######,   ,#######,      ##                                
            ,#'     '#,  ##    ##  ,#'     '#,    #''#        ######   ,####,        
            ##       ##  ##   ,#'  ##            #'  '#       #        #'  '#        
            ##       ##  #######   ##           ,######,      #####,   #    #        
            '#,     ,#'  ##    ##  '#,     ,#' ,#      #,         ##   #,  ,#        
             '#######'   ##     ##  '#######'  #'      '#     #####' # '####'        



                  #######################################################
                  #                        -***-                        #
                  #          Department of theory and spectroscopy      #
                  #    Directorship and core code : Frank Neese         #
                  #        Max Planck Institute fuer Kohlenforschung    #
                  #                Kaiser Wilhelm Platz 1               #
                  #                 D-45470 Muelheim/Ruhr               #
                  #                      Germany                        #
                  #                                                     #
                  #                  All rights reserved                #
                  #                        -***-                        #
                  #######################################################


                         Program Version 5.0.2 -  RELEASE  -


 With contributions from (in alphabetic order):
   Daniel Aravena         : Magnetic Suceptibility
   Michael Atanasov       : Ab Initio Ligand Field Theory (pilot matlab implementation)
   Alexander A. Auer      : GIAO ZORA, VPT2 properties, NMR spectrum
   Ute Becker             : Parallelization
   Giovanni Bistoni       : ED, misc. LED, open-shell LED, HFLD
   Martin Brehm           : Molecular dynamics
   Dmytro Bykov           : SCF Hessian
   Vijay G. Chilkuri      : MRCI spin determinant printing, contributions to CSF-ICE
   Dipayan Datta          : RHF DLPNO-CCSD density
   Achintya Kumar Dutta   : EOM-CC, STEOM-CC
   Dmitry Ganyushin       : Spin-Orbit,Spin-Spin,Magnetic field MRCI
   Miquel Garcia          : C-PCM and meta-GGA Hessian, CC/C-PCM, Gaussian charge scheme
   Yang Guo               : DLPNO-NEVPT2, F12-NEVPT2, CIM, IAO-localization
   Andreas Hansen         : Spin unrestricted coupled pair/coupled cluster methods
   Benjamin Helmich-Paris : MC-RPA, TRAH-SCF, COSX integrals
   Lee Huntington         : MR-EOM, pCC
   Robert Izsak           : Overlap fitted RIJCOSX, COSX-SCS-MP3, EOM
   Marcus Kettner         : VPT2
   Christian Kollmar      : KDIIS, OOCD, Brueckner-CCSD(T), CCSD density, CASPT2, CASPT2-K
   Simone Kossmann        : Meta GGA functionals, TD-DFT gradient, OOMP2, MP2 Hessian
   Martin Krupicka        : Initial AUTO-CI
   Lucas Lang             : DCDCAS
   Marvin Lechner         : AUTO-CI (C++ implementation), FIC-MRCC
   Dagmar Lenk            : GEPOL surface, SMD
   Dimitrios Liakos       : Extrapolation schemes; Compound Job, initial MDCI parallelization
   Dimitrios Manganas     : Further ROCIS development; embedding schemes
   Dimitrios Pantazis     : SARC Basis sets
   Anastasios Papadopoulos: AUTO-CI, single reference methods and gradients
   Taras Petrenko         : DFT Hessian,TD-DFT gradient, ASA, ECA, R-Raman, ABS, FL, XAS/XES, NRVS
   Peter Pinski           : DLPNO-MP2, DLPNO-MP2 Gradient
   Christoph Reimann      : Effective Core Potentials
   Marius Retegan         : Local ZFS, SOC
   Christoph Riplinger    : Optimizer, TS searches, QM/MM, DLPNO-CCSD(T), (RO)-DLPNO pert. Triples
   Tobias Risthaus        : Range-separated hybrids, TD-DFT gradient, RPA, STAB
   Michael Roemelt        : Original ROCIS implementation
   Masaaki Saitow         : Open-shell DLPNO-CCSD energy and density
   Barbara Sandhoefer     : DKH picture change effects
   Avijit Sen             : IP-ROCIS
   Kantharuban Sivalingam : CASSCF convergence, NEVPT2, FIC-MRCI
   Bernardo de Souza      : ESD, SOC TD-DFT
   Georgi Stoychev        : AutoAux, RI-MP2 NMR, DLPNO-MP2 response
   Willem Van den Heuvel  : Paramagnetic NMR
   Boris Wezisla          : Elementary symmetry handling
   Frank Wennmohs         : Technical directorship


 We gratefully acknowledge several colleagues who have allowed us to
 interface, adapt or use parts of their codes:
   Stefan Grimme, W. Hujo, H. Kruse, P. Pracht,  : VdW corrections, initial TS optimization,
                  C. Bannwarth, S. Ehlert          DFT functionals, gCP, sTDA/sTD-DF
   Ed Valeev, F. Pavosevic, A. Kumar             : LibInt (2-el integral package), F12 methods
   Garnet Chan, S. Sharma, J. Yang, R. Olivares  : DMRG
   Ulf Ekstrom                                   : XCFun DFT Library
   Mihaly Kallay                                 : mrcc  (arbitrary order and MRCC methods)
   Jiri Pittner, Ondrej Demel                    : Mk-CCSD
   Frank Weinhold                                : gennbo (NPA and NBO analysis)
   Christopher J. Cramer and Donald G. Truhlar   : smd solvation model
   Lars Goerigk                                  : TD-DFT with DH, B97 family of functionals
   V. Asgeirsson, H. Jonsson                     : NEB implementation
   FAccTs GmbH                                   : IRC, NEB, NEB-TS, DLPNO-Multilevel, CI-OPT
                                                   MM, QMMM, 2- and 3-layer-ONIOM, Crystal-QMMM,
                                                   LR-CPCM, SF, NACMEs, symmetry and pop. for TD-DFT,
                                                   nearIR, NL-DFT gradient (VV10), updates on ESD,
                                                   ML-optimized integration grids
   S Lehtola, MJT Oliveira, MAL Marques          : LibXC Library
   Liviu Ungur et al                             : ANISO software


 Your calculation uses the libint2 library for the computation of 2-el integrals
 For citations please refer to: http://libint.valeyev.net

 Your ORCA version has been built with support for libXC version: 5.1.0
 For citations please refer to: https://tddft.org/programs/libxc/

 This ORCA versions uses:
   CBLAS   interface :  Fast vector & matrix operations
   LAPACKE interface :  Fast linear algebra routines
   SCALAPACK package :  Parallel linear algebra routines
   Shared memory     :  Shared parallel matrices
   BLAS/LAPACK       :  OpenBLAS 0.3.15  USE64BITINT DYNAMIC_ARCH NO_AFFINITY SkylakeX SINGLE_THREADED
        Core in use  :  SkylakeX
   Copyright (c) 2011-2014, The OpenBLAS Project


Your calculation utilizes the atom-pairwise dispersion correction
with the Becke-Johnson damping scheme (D3BJ)
Cite in your paper:
S.Grimme, S.Ehrlich, L.Goerigk, J Comput Chem, (2011), 32, 1456–1465 
S.Grimme, J.Antony, S.Ehrlich and H.Krieg, J.Chem.Phys., 132, (2010), 154104 
   

================================================================================

----- Orbital basis set information -----
Your calculation utilizes the basis: def2-TZVP
   F. Weigend and R. Ahlrichs, Phys. Chem. Chem. Phys. 7, 3297 (2005).

----- AuxJ basis set information -----
Your calculation utilizes the auxiliary basis: def2/J
   F. Weigend, Phys. Chem. Chem. Phys. 8, 1057 (2006).

================================================================================
                                        WARNINGS
                       Please study these warnings very carefully!
================================================================================

INFO   : Checking CIS options ...

WARNING: CIS/ROCIS methods need fully converged wavefunctions
  ===> : Setting SCFConvForced true
         You can overwrite this default with %scf ConvForced false 


INFO   : the flag for use of the SHARK integral package has been found!

================================================================================
                                       INPUT FILE
================================================================================
NAME = ox_es1_G_orca0000.inp
|  1> ! engrad PBE0 D3BJ def2-TZVP  
|  2> %pal nprocs 8 end
|  3> %maxcore 3000
|  4> 
|  5> %tddft
|  6>   nroots 1
|  7>   tda true
|  8>   Iroot 1
|  9>   end 
| 10> *xyz 0 1 
| 11> O   -1.4723589464511986 0.7783770868829729 0.015970679622531778
| 12> C   -0.8421561435616819 -0.5158931732219615 0.09749903664330105
| 13> C   0.7006990363189491 -0.4892073693935083 0.011226929036626919
| 14> H   -1.2833918157596904 -0.6379956362850662 0.8856687028344299
| 15> H   -1.2046547676911932 -0.640823068716173 -0.9397871732847044
| 16> H   1.3325087551407775 -0.6792572011461437 -0.911989009236759
| 17> H   1.3124779894035685 -0.6686956876744539 0.9695229422665195
| 18> *
| 19> 
| 20>                          ****END OF INPUT****
================================================================================

                     *******************************
                     * Energy+Gradient Calculation *
                     *******************************

---------------------------------
CARTESIAN COORDINATES (ANGSTROEM)
---------------------------------
  O     -1.472359    0.778377    0.015971
  C     -0.842156   -0.515893    0.097499
  C      0.700699   -0.489207    0.011227
  H     -1.283392   -0.637996    0.885669
  H     -1.204655   -0.640823   -0.939787
  H      1.332509   -0.679257   -0.911989
  H      1.312478   -0.668696    0.969523

----------------------------
CARTESIAN COORDINATES (A.U.)
----------------------------
  NO LB      ZA    FRAG     MASS         X           Y           Z
   0 O     8.0000    0    15.999   -2.782355    1.470920    0.030180
   1 C     6.0000    0    12.011   -1.591444   -0.974897    0.184246
   2 C     6.0000    0    12.011    1.324129   -0.924468    0.021216
   3 H     1.0000    0     1.008   -2.425259   -1.205637    1.673671
   4 H     1.0000    0     1.008   -2.276468   -1.210980   -1.775940
   5 H     1.0000    0     1.008    2.518077   -1.283610   -1.723409
   6 H     1.0000    0     1.008    2.480224   -1.263652    1.832133

--------------------------------
INTERNAL COORDINATES (ANGSTROEM)
--------------------------------
 O      0   0   0     0.000000000000     0.00000000     0.00000000
 C      1   0   0     1.441852264263     0.00000000     0.00000000
 C      2   1   0     1.545495750483   114.68795010     0.00000000
 H      2   1   3     0.911487439634    87.56762514   124.64881813
 H      2   1   3     1.105882187482    84.55432701   254.79765667
 H      3   2   1     1.134737911603   126.75267812   262.28133507
 H      3   2   1     1.151008598060   118.77945123   105.90840669

---------------------------
INTERNAL COORDINATES (A.U.)
---------------------------
 O      0   0   0     0.000000000000     0.00000000     0.00000000
 C      1   0   0     2.724705905031     0.00000000     0.00000000
 C      2   1   0     2.920563709552   114.68795010     0.00000000
 H      2   1   3     1.722461635417    87.56762514   124.64881813
 H      2   1   3     2.089814470723    84.55432701   254.79765667
 H      3   2   1     2.144343886707   126.75267812   262.28133507
 H      3   2   1     2.175091028123   118.77945123   105.90840669

---------------------
BASIS SET INFORMATION
---------------------
There are 3 groups of distinct atoms

 Group   1 Type O   : 11s6p2d1f contracted to 5s3p2d1f pattern {62111/411/11/1}
 Group   2 Type C   : 11s6p2d1f contracted to 5s3p2d1f pattern {62111/411/11/1}
 Group   3 Type H   : 5s1p contracted to 3s1p pattern {311/1}

Atom   0O    basis set group =>   1
Atom   1C    basis set group =>   2
Atom   2C    basis set group =>   2
Atom   3H    basis set group =>   3
Atom   4H    basis set group =>   3
Atom   5H    basis set group =>   3
Atom   6H    basis set group =>   3
---------------------------------
AUXILIARY/J BASIS SET INFORMATION
---------------------------------
There are 3 groups of distinct atoms

 Group   1 Type O   : 12s5p4d2f1g contracted to 6s4p3d1f1g pattern {711111/2111/211/2/1}
 Group   2 Type C   : 12s5p4d2f1g contracted to 6s4p3d1f1g pattern {711111/2111/211/2/1}
 Group   3 Type H   : 5s2p1d contracted to 3s1p1d pattern {311/2/1}

Atom   0O    basis set group =>   1
Atom   1C    basis set group =>   2
Atom   2C    basis set group =>   2
Atom   3H    basis set group =>   3
Atom   4H    basis set group =>   3
Atom   5H    basis set group =>   3
Atom   6H    basis set group =>   3

Checking for AutoStart:
The File: ox_es1_G_orca0000.gbw exists
Trying to determine its content:
     ... Fine, the file contains calculation information
     ... Fine, the calculation information was read
     ... Fine, the file contains a basis set
     ... Fine, the basis set was read
     ... Fine, the file contains a geometry
     ... Fine, the geometry was read
     ... Fine, the file contains a set of orbitals
     ... Fine, the orbitals can be read
     => possible old guess file was deleted
     => GBW file was renamed to GES file
     => GES file is set as startup file
     => Guess is set to MORead
     ... now leaving AutoStart



           ************************************************************
           *        Program running with 8 parallel MPI-processes     *
           *              working on a common directory               *
           ************************************************************
------------------------------------------------------------------------------
                           ORCA GTO INTEGRAL CALCULATION
                           -- RI-GTO INTEGRALS CHOSEN --
------------------------------------------------------------------------------
------------------------------------------------------------------------------
                   ___                                                        
                  /   \      - P O W E R E D   B Y -                         
                 /     \                                                     
                 |  |  |   _    _      __       _____    __    __             
                 |  |  |  | |  | |    /  \     |  _  \  |  |  /  |          
                  \  \/   | |  | |   /    \    | | | |  |  | /  /          
                 / \  \   | |__| |  /  /\  \   | |_| |  |  |/  /          
                |  |  |   |  __  | /  /__\  \  |    /   |      \           
                |  |  |   | |  | | |   __   |  |    \   |  |\   \          
                \     /   | |  | | |  |  |  |  | |\  \  |  | \   \       
                 \___/    |_|  |_| |__|  |__|  |_| \__\ |__|  \__/        
                                                                              
                      - O R C A' S   B I G   F R I E N D -                    
                                      &                                       
                       - I N T E G R A L  F E E D E R -                       
                                                                              
 v1 FN, 2020, v2 2021                                                         
------------------------------------------------------------------------------


Reading SHARK input file ox_es1_G_orca0000.SHARKINP.tmp ... ok
----------------------
SHARK INTEGRAL PACKAGE
----------------------

Number of atoms                             ...      7
Number of basis functions                   ...    117
Number of shells                            ...     49
Maximum angular momentum                    ...      3
Integral batch strategy                     ... SHARK/LIBINT Hybrid
RI-J (if used) integral strategy            ... SPLIT-RIJ (Revised 2003 algorithm where possible)
Printlevel                                  ...      1
Contraction scheme used                     ... SEGMENTED contraction
Coulomb Range Separation                    ... NOT USED
Exchange Range Separation                   ... NOT USED
Finite Nucleus Model                        ... NOT USED
Auxiliary Coulomb fitting basis             ... AVAILABLE
   # of basis functions in Aux-J            ...    191
   # of shells in Aux-J                     ...     65
   Maximum angular momentum in Aux-J        ...      4
Auxiliary J/K fitting basis                 ... NOT available
Auxiliary Correlation fitting basis         ... NOT available
Auxiliary 'external' fitting basis          ... NOT available
Integral threshold                          ...     2.500000e-11
Primitive cut-off                           ...     2.500000e-12
Primitive pair pre-selection threshold      ...     2.500000e-12

Calculating pre-screening integrals         ... done (  0.0 sec) Dimension = 49
Organizing shell pair data                  ... done (  0.0 sec)
Shell pair information
Total number of shell pairs                 ...      1225
Shell pairs after pre-screening             ...      1208
Total number of primitive shell pairs       ...      3648
Primitive shell pairs kept                  ...      3053
          la=0 lb=0:    367 shell pairs
          la=1 lb=0:    348 shell pairs
          la=1 lb=1:     91 shell pairs
          la=2 lb=0:    159 shell pairs
          la=2 lb=1:     78 shell pairs
          la=2 lb=2:     21 shell pairs
          la=3 lb=0:     81 shell pairs
          la=3 lb=1:     39 shell pairs
          la=3 lb=2:     18 shell pairs
          la=3 lb=3:      6 shell pairs

Calculating one electron integrals          ... done (  0.0 sec)
Calculating RI/J V-Matrix + Cholesky decomp.... done (  0.0 sec)
Calculating Nuclear repulsion               ... done (  0.0 sec) ENN=     66.451231432222 Eh

SHARK setup successfully completed in   0.1 seconds

Maximum memory used throughout the entire GTOINT-calculation: 14.9 MB


           ************************************************************
           *        Program running with 8 parallel MPI-processes     *
           *              working on a common directory               *
           ************************************************************
-------------------------------------------------------------------------------
                                 ORCA SCF
-------------------------------------------------------------------------------

------------
SCF SETTINGS
------------
Hamiltonian:
 Density Functional     Method          .... DFT(GTOs)
 Exchange Functional    Exchange        .... PBE
   PBE kappa parameter   XKappa         ....  0.804000
   PBE mue parameter    XMuePBE         ....  0.219520
 Correlation Functional Correlation     .... PBE
   PBE beta parameter  CBetaPBE         ....  0.066725
 LDA part of GGA corr.  LDAOpt          .... PW91-LDA
 Gradients option       PostSCFGGA      .... off
 Hybrid DFT is turned on
   Fraction HF Exchange ScalHFX         ....  0.250000
   Scaling of DF-GGA-X  ScalDFX         ....  0.750000
   Scaling of DF-GGA-C  ScalDFC         ....  1.000000
   Scaling of DF-LDA-C  ScalLDAC        ....  1.000000
   Perturbative correction              ....  0.000000
   Density functional embedding theory  .... OFF
   NL short-range parameter             ....  6.900000
 RI-approximation to the Coulomb term is turned on
   Number of AuxJ basis functions       .... 191
   RIJ-COSX (HFX calculated with COS-X)).... on


General Settings:
 Integral files         IntName         .... ox_es1_G_orca0000
 Hartree-Fock type      HFTyp           .... RHF
 Total Charge           Charge          ....    0
 Multiplicity           Mult            ....    1
 Number of Electrons    NEL             ....   24
 Basis Dimension        Dim             ....  117
 Nuclear Repulsion      ENuc            ....     66.4512314322 Eh

Convergence Acceleration:
 DIIS                   CNVDIIS         .... on
   Start iteration      DIISMaxIt       ....    12
   Startup error        DIISStart       ....  0.200000
   # of expansion vecs  DIISMaxEq       ....     5
   Bias factor          DIISBfac        ....   1.050
   Max. coefficient     DIISMaxC        ....  10.000
 Trust-Rad. Augm. Hess. CNVTRAH         .... auto
   Auto Start mean grad. ratio tolernc. ....  1.125000
   Auto Start start iteration           ....     1
   Auto Start num. interpolation iter.  ....    10
   Max. Number of Micro iterations      ....    16
   Max. Number of Macro iterations      .... Maxiter - #DIIS iter
   Number of Davidson start vectors     ....     2
   Converg. threshold I  (grad. norm)   ....   1.000e-05
   Converg. threshold II (energy diff.) ....   1.000e-08
   Grad. Scal. Fac. for Micro threshold ....   0.100
   Minimum threshold for Micro iter.    ....   0.010
   NR start threshold (gradient norm)   ....   0.001
   Initial trust radius                 ....   0.400
   Minimum AH scaling param. (alpha)    ....   1.000
   Maximum AH scaling param. (alpha)    .... 1000.000
   Orbital update algorithm             .... Taylor
   White noise on init. David. guess    .... on
   Maximum white noise                  ....   0.010
   Quad. conv. algorithm                .... NR
 SOSCF                  CNVSOSCF        .... on
   Start iteration      SOSCFMaxIt      ....   150
   Startup grad/error   SOSCFStart      ....  0.003300
 Level Shifting         CNVShift        .... on
   Level shift para.    LevelShift      ....    0.2500
   Turn off err/grad.   ShiftErr        ....    0.0010
 Zerner damping         CNVZerner       .... off
 Static damping         CNVDamp         .... on
   Fraction old density DampFac         ....    0.7000
   Max. Damping (<1)    DampMax         ....    0.9800
   Min. Damping (>=0)   DampMin         ....    0.0000
   Turn off err/grad.   DampErr         ....    0.1000
 Fernandez-Rico         CNVRico         .... off

SCF Procedure:
 Maximum # iterations   MaxIter         ....   125
 SCF integral mode      SCFMode         .... Direct
   Integral package                     .... SHARK and LIBINT hybrid scheme
 Reset frequency        DirectResetFreq ....    20
 Integral Threshold     Thresh          ....  2.500e-11 Eh
 Primitive CutOff       TCut            ....  2.500e-12 Eh

Convergence Tolerance:
 Convergence Check Mode ConvCheckMode   .... Total+1el-Energy
 Convergence forced     ConvForced      .... 1
 Energy Change          TolE            ....  1.000e-08 Eh
 1-El. energy change                    ....  1.000e-05 Eh
 Orbital Gradient       TolG            ....  1.000e-05
 Orbital Rotation angle TolX            ....  1.000e-05
 DIIS Error             TolErr          ....  5.000e-07


Diagonalization of the overlap matrix:
Smallest eigenvalue                        ... 7.604e-04
Time for diagonalization                   ...    0.001 sec
Threshold for overlap eigenvalues          ... 1.000e-08
Number of eigenvalues below threshold      ... 0
Time for construction of square roots      ...    0.001 sec
Total time needed                          ...    0.003 sec

---------------------
INITIAL GUESS: MOREAD
---------------------
Guess MOs are being read from file: ox_es1_G_orca0000.ges
Input Geometry matches current geometry (good)
Input basis set matches current basis set (good)
MOs were renormalized
MOs were reorthogonalized (Cholesky)
                      ------------------
                      INITIAL GUESS DONE (   0.0 sec)
                      ------------------
-------------------
DFT GRID GENERATION
-------------------

General Integration Accuracy     IntAcc      ... 4.388
Radial Grid Type                 RadialGrid  ... OptM3 with GC (2021)
Angular Grid (max. ang.)         AngularGrid ... 4 (Lebedev-302)
Angular grid pruning method      GridPruning ... 4 (adaptive)
Weight generation scheme         WeightScheme... Becke
Basis function cutoff            BFCut       ... 1.0000e-11
Integration weight cutoff        WCut        ... 1.0000e-14
Angular grids for H and He will be reduced by one unit
Partially contracted basis set               ... off
Rotationally invariant grid construction     ... off

Total number of grid points                  ...    31348
Total number of batches                      ...      493
Average number of points per batch           ...       63
Average number of grid points per atom       ...     4478
Time for grid setup =    0.119 sec

--------------------
COSX GRID GENERATION
--------------------

GRIDX 1
-------
General Integration Accuracy     IntAcc      ... 3.816
Radial Grid Type                 RadialGrid  ... OptM3 with GC (2021)
Angular Grid (max. ang.)         AngularGrid ... 1 (Lebedev-50)
Angular grid pruning method      GridPruning ... 4 (adaptive)
Weight generation scheme         WeightScheme... Becke
Basis function cutoff            BFCut       ... 1.0000e-11
Integration weight cutoff        WCut        ... 1.0000e-14
Angular grids for H and He will be reduced by one unit
Partially contracted basis set               ... on
Rotationally invariant grid construction     ... off

Total number of grid points                  ...     4045
Total number of batches                      ...       66
Average number of points per batch           ...       61
Average number of grid points per atom       ...      578
UseSFitting                                  ... on

GRIDX 2
-------
General Integration Accuracy     IntAcc      ... 4.020
Radial Grid Type                 RadialGrid  ... OptM3 with GC (2021)
Angular Grid (max. ang.)         AngularGrid ... 2 (Lebedev-110)
Angular grid pruning method      GridPruning ... 4 (adaptive)
Weight generation scheme         WeightScheme... Becke
Basis function cutoff            BFCut       ... 1.0000e-11
Integration weight cutoff        WCut        ... 1.0000e-14
Angular grids for H and He will be reduced by one unit
Partially contracted basis set               ... on
Rotationally invariant grid construction     ... off

Total number of grid points                  ...     8748
Total number of batches                      ...      140
Average number of points per batch           ...       62
Average number of grid points per atom       ...     1250
UseSFitting                                  ... on

GRIDX 3
-------
General Integration Accuracy     IntAcc      ... 4.338
Radial Grid Type                 RadialGrid  ... OptM3 with GC (2021)
Angular Grid (max. ang.)         AngularGrid ... 3 (Lebedev-194)
Angular grid pruning method      GridPruning ... 4 (adaptive)
Weight generation scheme         WeightScheme... Becke
Basis function cutoff            BFCut       ... 1.0000e-11
Integration weight cutoff        WCut        ... 1.0000e-14
Angular grids for H and He will be reduced by one unit
Partially contracted basis set               ... on
Rotationally invariant grid construction     ... off

Total number of grid points                  ...    19289
Total number of batches                      ...      305
Average number of points per batch           ...       63
Average number of grid points per atom       ...     2756
UseSFitting                                  ... on

Time for X-Grid setup             =    0.074 sec

--------------
SCF ITERATIONS
--------------
ITER       Energy         Delta-E        Max-DP      RMS-DP      [F,P]     Damp
               ***  Starting incremental Fock matrix formation  ***
                      *** Initiating the SOSCF procedure ***
                      *** Re-Reading the Fockian *** 
                      *** Removing any level shift *** 
ITER      Energy       Delta-E        Grad      Rot      Max-DP    RMS-DP
  0   -153.44483610 -153.4448361018  0.000001  0.000001  0.000003  0.000000
               *** Restarting incremental Fock matrix formation ***
                  ***Gradient check signals convergence***
              ***Rediagonalizing the Fockian in SOSCF/NRSCF***

               *****************************************************
               *                     SUCCESS                       *
               *           SCF CONVERGED AFTER   1 CYCLES          *
               *****************************************************

Old exchange energy                            =     -4.946873478 Eh
New exchange energy                            =     -4.946886850 Eh
Exchange energy change after final integration =     -0.000013372 Eh
Total energy after final integration           =   -153.444849474 Eh
Final COS-X integration done in                =     0.257 sec

----------------
TOTAL SCF ENERGY
----------------

Total Energy       :         -153.44484947 Eh           -4175.44663 eV

Components:
Nuclear Repulsion  :           66.45123143 Eh            1808.22994 eV
Electronic Energy  :         -219.89608091 Eh           -5983.67657 eV
One Electron Energy:         -339.72532659 Eh           -9244.39611 eV
Two Electron Energy:          119.82924569 Eh            3260.71955 eV
Max COSX asymmetry :            0.00000257 Eh               0.00007 eV

Virial components:
Potential Energy   :         -306.35017577 Eh           -8336.21209 eV
Kinetic Energy     :          152.90532630 Eh            4160.76546 eV
Virial Ratio       :            2.00352848


DFT components:
N(Alpha)           :       11.999989885332 electrons
N(Beta)            :       11.999989885332 electrons
N(Total)           :       23.999979770664 electrons
E(X)               :      -14.878048635985 Eh       
E(C)               :       -0.769077564241 Eh       
E(XC)              :      -15.647126200227 Eh       
DFET-embed. en.    :        0.000000000000 Eh       

---------------
SCF CONVERGENCE
---------------

  Last Energy change         ...   -1.3176e-10  Tolerance :   1.0000e-08
  Last MAX-Density change    ...    4.4409e-16  Tolerance :   1.0000e-07
  Last RMS-Density change    ...    1.5690e-17  Tolerance :   5.0000e-09
  Last Orbital Gradient      ...    5.5999e-07  Tolerance :   1.0000e-05
  Last Orbital Rotation      ...    8.3768e-07  Tolerance :   1.0000e-05

             **** THE GBW FILE WAS UPDATED (ox_es1_G_orca0000.gbw) ****
             **** DENSITY ox_es1_G_orca0000.scfp WAS UPDATED ****
             **** ENERGY FILE WAS UPDATED (ox_es1_G_orca0000.en.tmp) ****
             **** THE GBW FILE WAS UPDATED (ox_es1_G_orca0000.gbw) ****
             **** DENSITY ox_es1_G_orca0000.scfp WAS UPDATED ****
----------------
ORBITAL ENERGIES
----------------

  NO   OCC          E(Eh)            E(eV) 
   0   2.0000     -19.170705      -521.6614 
   1   2.0000     -10.324653      -280.9481 
   2   2.0000     -10.272256      -279.5223 
   3   2.0000      -0.980666       -26.6853 
   4   2.0000      -0.760923       -20.7058 
   5   2.0000      -0.633880       -17.2488 
   6   2.0000      -0.540011       -14.6945 
   7   2.0000      -0.471606       -12.8331 
   8   2.0000      -0.432650       -11.7730 
   9   2.0000      -0.378553       -10.3010 
  10   2.0000      -0.249120        -6.7789 
  11   2.0000      -0.230341        -6.2679 
  12   0.0000      -0.163113        -4.4385 
  13   0.0000       0.038175         1.0388 
  14   0.0000       0.075320         2.0496 
  15   0.0000       0.085198         2.3184 
  16   0.0000       0.120925         3.2905 
  17   0.0000       0.146294         3.9809 
  18   0.0000       0.186060         5.0630 
  19   0.0000       0.205280         5.5860 
  20   0.0000       0.228729         6.2240 
  21   0.0000       0.233413         6.3515 
  22   0.0000       0.246850         6.7171 
  23   0.0000       0.324904         8.8411 
  24   0.0000       0.334233         9.0949 
  25   0.0000       0.390274        10.6199 
  26   0.0000       0.395732        10.7684 
  27   0.0000       0.427037        11.6203 
  28   0.0000       0.439243        11.9524 
  29   0.0000       0.460025        12.5179 
  30   0.0000       0.510254        13.8847 
  31   0.0000       0.534457        14.5433 
  32   0.0000       0.577960        15.7271 
  33   0.0000       0.620947        16.8968 
  34   0.0000       0.656896        17.8750 
  35   0.0000       0.744669        20.2635 
  36   0.0000       0.767550        20.8861 
  37   0.0000       0.798654        21.7325 
  38   0.0000       0.897177        24.4134 
  39   0.0000       0.909827        24.7577 
  40   0.0000       0.935198        25.4480 
  41   0.0000       1.010693        27.5023 
  42   0.0000       1.058925        28.8148 
  43   0.0000       1.095953        29.8224 
  44   0.0000       1.187899        32.3244 
  45   0.0000       1.343484        36.5580 
  46   0.0000       1.416999        38.5585 
  47   0.0000       1.447417        39.3862 
  48   0.0000       1.487753        40.4838 
  49   0.0000       1.513768        41.1917 
  50   0.0000       1.548675        42.1416 
  51   0.0000       1.560789        42.4712 
  52   0.0000       1.618126        44.0315 
  53   0.0000       1.656504        45.0758 
  54   0.0000       1.728587        47.0372 
  55   0.0000       1.761485        47.9324 
  56   0.0000       1.786235        48.6059 
  57   0.0000       1.859608        50.6025 
  58   0.0000       1.872550        50.9547 
  59   0.0000       1.905304        51.8459 
  60   0.0000       1.985359        54.0244 
  61   0.0000       2.073456        56.4216 
  62   0.0000       2.102158        57.2026 
  63   0.0000       2.196668        59.7744 
  64   0.0000       2.296484        62.4905 
  65   0.0000       2.306275        62.7569 
  66   0.0000       2.374330        64.6088 
  67   0.0000       2.415010        65.7158 
  68   0.0000       2.462904        67.0190 
  69   0.0000       2.532462        68.9118 
  70   0.0000       2.560511        69.6750 
  71   0.0000       2.612479        71.0892 
  72   0.0000       2.640498        71.8516 
  73   0.0000       2.682351        72.9905 
  74   0.0000       2.763141        75.1889 
  75   0.0000       2.858227        77.7763 
  76   0.0000       2.862440        77.8909 
  77   0.0000       2.956617        80.4536 
  78   0.0000       2.992817        81.4387 
  79   0.0000       3.040036        82.7236 
  80   0.0000       3.045784        82.8800 
  81   0.0000       3.075604        83.6914 
  82   0.0000       3.083305        83.9010 
  83   0.0000       3.129956        85.1704 
  84   0.0000       3.195402        86.9513 
  85   0.0000       3.233931        87.9997 
  86   0.0000       3.301086        89.8271 
  87   0.0000       3.311042        90.0980 
  88   0.0000       3.377755        91.9134 
  89   0.0000       3.442857        93.6849 
  90   0.0000       3.496029        95.1318 
  91   0.0000       3.648570        99.2826 
  92   0.0000       3.690948       100.4358 
  93   0.0000       3.780159       102.8634 
  94   0.0000       3.930032       106.9416 
  95   0.0000       4.011724       109.1645 
  96   0.0000       4.085017       111.1590 
  97   0.0000       4.226615       115.0120 
  98   0.0000       4.364649       118.7681 
  99   0.0000       4.573043       124.4388 
 100   0.0000       4.633420       126.0818 
 101   0.0000       4.806984       130.8047 
 102   0.0000       5.210786       141.7927 
 103   0.0000       5.238972       142.5597 
 104   0.0000       5.388594       146.6311 
 105   0.0000       5.413750       147.3156 
 106   0.0000       5.742875       156.2716 
 107   0.0000       5.784818       157.4129 
 108   0.0000       5.963458       162.2739 
 109   0.0000       6.380249       173.6154 
 110   0.0000       6.385812       173.7668 
 111   0.0000       6.779757       184.4866 
 112   0.0000       6.805063       185.1752 
 113   0.0000       6.983864       190.0406 
 114   0.0000      21.879915       595.3827 
 115   0.0000      22.469419       611.4240 
 116   0.0000      43.778503      1191.2736 

                    ********************************
                    * MULLIKEN POPULATION ANALYSIS *
                    ********************************

-----------------------
MULLIKEN ATOMIC CHARGES
-----------------------
   0 O :   -0.450368
   1 C :   -0.112554
   2 C :   -0.128605
   3 H :    0.153987
   4 H :    0.206780
   5 H :    0.178417
   6 H :    0.152343
Sum of atomic charges:    0.0000000

--------------------------------
MULLIKEN REDUCED ORBITAL CHARGES
--------------------------------
  0 O s       :     3.909010  s :     3.909010
      pz      :     1.514393  p :     4.516608
      px      :     1.666328
      py      :     1.335888
      dz2     :     0.002859  d :     0.023474
      dxz     :     0.000846
      dyz     :     0.005886
      dx2y2   :     0.006352
      dxy     :     0.007531
      f0      :     0.000113  f :     0.001275
      f+1     :     0.000056
      f-1     :     0.000136
      f+2     :     0.000137
      f-2     :     0.000119
      f+3     :     0.000438
      f-3     :     0.000275
  1 C s       :     3.210403  s :     3.210403
      pz      :     1.043160  p :     2.745676
      px      :     0.872296
      py      :     0.830220
      dz2     :     0.019472  d :     0.146021
      dxz     :     0.020156
      dyz     :     0.031731
      dx2y2   :     0.036954
      dxy     :     0.037708
      f0      :     0.001569  f :     0.010454
      f+1     :     0.001392
      f-1     :     0.000229
      f+2     :     0.001199
      f-2     :     0.000859
      f+3     :     0.002055
      f-3     :     0.003151
  2 C s       :     3.349296  s :     3.349296
      pz      :     1.056099  p :     2.736351
      px      :     0.997461
      py      :     0.682792
      dz2     :     0.003457  d :     0.039507
      dxz     :     0.022446
      dyz     :     0.001955
      dx2y2   :     0.003901
      dxy     :     0.007749
      f0      :     0.000316  f :     0.003451
      f+1     :     0.000985
      f-1     :     0.000082
      f+2     :     0.000640
      f-2     :     0.000052
      f+3     :     0.000581
      f-3     :     0.000797
  3 H s       :     0.815862  s :     0.815862
      pz      :     0.011025  p :     0.030151
      px      :     0.008646
      py      :     0.010480
  4 H s       :     0.767582  s :     0.767582
      pz      :     0.012690  p :     0.025638
      px      :     0.005713
      py      :     0.007235
  5 H s       :     0.800492  s :     0.800492
      pz      :     0.010237  p :     0.021091
      px      :     0.007039
      py      :     0.003815
  6 H s       :     0.827389  s :     0.827389
      pz      :     0.010367  p :     0.020268
      px      :     0.006511
      py      :     0.003390


                     *******************************
                     * LOEWDIN POPULATION ANALYSIS *
                     *******************************

----------------------
LOEWDIN ATOMIC CHARGES
----------------------
   0 O :   -0.144842
   1 C :   -0.390055
   2 C :   -0.013760
   3 H :    0.073586
   4 H :    0.206085
   5 H :    0.136570
   6 H :    0.132417

-------------------------------
LOEWDIN REDUCED ORBITAL CHARGES
-------------------------------
  0 O s       :     3.584994  s :     3.584994
      pz      :     1.456110  p :     4.501860
      px      :     1.629176
      py      :     1.416574
      dz2     :     0.006215  d :     0.054510
      dxz     :     0.002121
      dyz     :     0.014501
      dx2y2   :     0.016904
      dxy     :     0.014770
      f0      :     0.000416  f :     0.003478
      f+1     :     0.000139
      f-1     :     0.000401
      f+2     :     0.000381
      f-2     :     0.000381
      f+3     :     0.000905
      f-3     :     0.000856
  1 C s       :     2.818146  s :     2.818146
      pz      :     1.047534  p :     2.967834
      px      :     1.002802
      py      :     0.917497
      dz2     :     0.094545  d :     0.537278
      dxz     :     0.077216
      dyz     :     0.075112
      dx2y2   :     0.160744
      dxy     :     0.129661
      f0      :     0.008796  f :     0.066798
      f+1     :     0.007549
      f-1     :     0.005384
      f+2     :     0.006455
      f-2     :     0.004662
      f+3     :     0.017110
      f-3     :     0.016841
  2 C s       :     2.996385  s :     2.996385
      pz      :     1.084081  p :     2.817548
      px      :     1.087659
      py      :     0.645809
      dz2     :     0.023025  d :     0.183324
      dxz     :     0.098747
      dyz     :     0.004331
      dx2y2   :     0.029412
      dxy     :     0.027809
      f0      :     0.002110  f :     0.016503
      f+1     :     0.002878
      f-1     :     0.000514
      f+2     :     0.003376
      f-2     :     0.000801
      f+3     :     0.003385
      f-3     :     0.003440
  3 H s       :     0.821054  s :     0.821054
      pz      :     0.041929  p :     0.105360
      px      :     0.029151
      py      :     0.034281
  4 H s       :     0.727546  s :     0.727546
      pz      :     0.033727  p :     0.066369
      px      :     0.015224
      py      :     0.017419
  5 H s       :     0.801367  s :     0.801367
      pz      :     0.031278  p :     0.062064
      px      :     0.019880
      py      :     0.010906
  6 H s       :     0.809257  s :     0.809257
      pz      :     0.030871  p :     0.058326
      px      :     0.017955
      py      :     0.009500


                      *****************************
                      * MAYER POPULATION ANALYSIS *
                      *****************************

  NA   - Mulliken gross atomic population
  ZA   - Total nuclear charge
  QA   - Mulliken gross atomic charge
  VA   - Mayer's total valence
  BVA  - Mayer's bonded valence
  FA   - Mayer's free valence

  ATOM       NA         ZA         QA         VA         BVA        FA
  0 O      8.4504     8.0000    -0.4504     1.7191     1.7191     0.0000
  1 C      6.1126     6.0000    -0.1126     4.0846     4.0846    -0.0000
  2 C      6.1286     6.0000    -0.1286     3.6207     3.6207    -0.0000
  3 H      0.8460     1.0000     0.1540     0.9924     0.9924     0.0000
  4 H      0.7932     1.0000     0.2068     0.9760     0.9760    -0.0000
  5 H      0.8216     1.0000     0.1784     0.9566     0.9566     0.0000
  6 H      0.8477     1.0000     0.1523     0.9666     0.9666    -0.0000

  Mayer bond orders larger than 0.100000
B(  0-O ,  1-C ) :   1.0692 B(  0-O ,  2-C ) :   0.5821 B(  1-C ,  2-C ) :   1.1334 
B(  1-C ,  3-H ) :   0.9957 B(  1-C ,  4-H ) :   0.8618 B(  2-C ,  5-H ) :   0.9307 
B(  2-C ,  6-H ) :   0.9407 

-------
TIMINGS
-------

Total SCF time: 0 days 0 hours 0 min 0 sec 

Total time                  ....       0.980 sec
Sum of individual times     ....       0.899 sec  ( 91.7%)

Fock matrix formation       ....       0.693 sec  ( 70.7%)
  Split-RI-J                ....       0.111 sec  ( 16.0% of F)
  Chain of spheres X        ....       0.512 sec  ( 73.8% of F)
  XC integration            ....       0.061 sec  (  8.8% of F)
    Basis function eval.    ....       0.017 sec  ( 28.1% of XC)
    Density eval.           ....       0.013 sec  ( 21.4% of XC)
    XC-Functional eval.     ....       0.004 sec  (  5.9% of XC)
    XC-Potential eval.      ....       0.020 sec  ( 32.1% of XC)
Diagonalization             ....       0.002 sec  (  0.2%)
Density matrix formation    ....       0.000 sec  (  0.0%)
Population analysis         ....       0.003 sec  (  0.3%)
Initial guess               ....       0.004 sec  (  0.4%)
Orbital Transformation      ....       0.000 sec  (  0.0%)
Orbital Orthonormalization  ....       0.001 sec  (  0.1%)
DIIS solution               ....       0.001 sec  (  0.1%)
SOSCF solution              ....       0.002 sec  (  0.2%)
Grid generation             ....       0.193 sec  ( 19.7%)

Maximum memory used throughout the entire SCF-calculation: 61.1 MB


           ************************************************************
           *        Program running with 8 parallel MPI-processes     *
           *              working on a common directory               *
           ************************************************************
------------------------------------------------------------------------------
                        ORCA TD-DFT/TDA CALCULATION
------------------------------------------------------------------------------

Input orbitals are from        ... ox_es1_G_orca0000.gbw
CI-vector output               ... ox_es1_G_orca0000.cis
Tamm-Dancoff approximation     ... operative
CIS-Integral strategy          ... AO-integrals
Integral handling              ... AO integral Direct
Max. core memory used          ... 3000 MB
Reference state                ... RHF
Generation of triplets         ... off
Follow IRoot                   ... off
Number of operators            ... 1
Orbital ranges used for CIS calculation:
 Operator 0:  Orbitals   3... 11  to  12...116
XAS localization array:
 Operator 0:  Orbitals  -1... -1

-------------------
XC-INTEGRATION GRID
-------------------

General Integration Accuracy     IntAcc      ... 3.467
Radial Grid Type                 RadialGrid  ... OptM3 with GC (2021)
Angular Grid (max. ang.)         AngularGrid ... 1 (Lebedev-50)
Angular grid pruning method      GridPruning ... 4 (adaptive)
Weight generation scheme         WeightScheme... Becke
Basis function cutoff            BFCut       ... 1.0000e-11
Integration weight cutoff        WCut        ... 1.0000e-14
Angular grids for H and He will be reduced by one unit
Partially contracted basis set               ... off
Rotationally invariant grid construction     ... off

Total number of grid points                  ...     4554
Total number of batches                      ...       75
Average number of points per batch           ...       60
Average number of grid points per atom       ...      651

---------------------
COSX-INTEGRATION GRID
---------------------

General Integration Accuracy     IntAcc      ... 3.067
Radial Grid Type                 RadialGrid  ... OptM3 with GC (2021)
Angular Grid (max. ang.)         AngularGrid ... 1 (Lebedev-50)
Angular grid pruning method      GridPruning ... 4 (adaptive)
Weight generation scheme         WeightScheme... Becke
Basis function cutoff            BFCut       ... 1.0000e-11
Integration weight cutoff        WCut        ... 1.0000e-14
Angular grids for H and He will be reduced by one unit
Partially contracted basis set               ... on
Rotationally invariant grid construction     ... off

Total number of grid points                  ...     2090
Total number of batches                      ...       38
Average number of points per batch           ...       55
Average number of grid points per atom       ...      299

---------------
TD-DFT XC SETUP
---------------

DFT calculation                         ... on
Name of the grid file                   ... ox_es1_G_orca0000.grid_cis.tmp
Exchange functional (TD-DFT)            ... PBE
   PBE kappa parameter  XKappa (TD-DFT) ...  0.804000
   PBE mue parameter   XMuePBE (TD-DFT) ...  0.219520
Correlation functional (TD-DFT)         ... PBE
   PBE beta parameter CBetaPBE (TD-DFT) ...  0.066725
 LDA part of GGA corr.  LDAOpt (TD-DFT) ... PW91-LDA
Hybrid DFT                              ... on
   Exchange mixing (TD-DFT)             ...  0.250
   GGA exch. scaling (TD-DFT)           ...  0.750
   GGA corr. scaling (TD-DFT)           ...  1.000

Building densities             ... done
Calculating rho(r) on the grid ... done
Building xc-kernel on the grid ... done
                    *** TD-DFT CALCULATION INITIALIZED ***

------------------------
DAVIDSON-DIAGONALIZATION
------------------------

Dimension of the eigenvalue problem            ...    945
Number of roots to be determined               ...      1
Maximum size of the expansion space            ...     10
Maximum number of iterations                   ...    100
Convergence tolerance for the residual         ...    2.500e-07
Convergence tolerance for the energies         ...    2.500e-07
Orthogonality tolerance                        ...    1.000e-14
Level Shift                                    ...    0.000e+00
Constructing the preconditioner                ... o.k.
Building the initial guess                     ... o.k.
Number of trial vectors determined             ...     10


                       ****Iteration    0****

   Memory handling for direct AO based CIS:
   Memory per vector needed      ...     1 MB
   Memory needed                 ...     1 MB
   Memory available              ...  3000 MB
   Number of vectors per batch   ...  3000
   Number of batches             ...     1
   Time for densities:            0.000
   Time for RI-J (Direct):        0.015
   Time for K (COSX):             0.055
   Time for XC-Integration:       0.015
   Time for Sigma-Completion:     0.000
   Size of expansion space: 3
   Lowest Energy          :     0.012372539222
   Maximum Energy change  :     0.012372539222 (vector 0)
   Maximum residual norm  :     0.004484574279

                       ****Iteration    1****
   Time for densities:            0.000
   Time for RI-J (Direct):        0.012
   Time for K (COSX):             0.048
   Time for XC-Integration:       0.006
   Time for Sigma-Completion:     0.000
   Size of expansion space: 4
   Lowest Energy          :     0.009129560286
   Maximum Energy change  :     0.003242978936 (vector 0)
   Maximum residual norm  :     0.000345161606

                       ****Iteration    2****
   Time for densities:            0.000
   Time for RI-J (Direct):        0.012
   Time for K (COSX):             0.048
   Time for XC-Integration:       0.006
   Time for Sigma-Completion:     0.000
   Size of expansion space: 5
   Lowest Energy          :     0.008857314423
   Maximum Energy change  :     0.000272245863 (vector 0)
   Maximum residual norm  :     0.000011368711

                       ****Iteration    3****
   Time for densities:            0.000
   Time for RI-J (Direct):        0.012
   Time for K (COSX):             0.049
   Time for XC-Integration:       0.006
   Time for Sigma-Completion:     0.000
   Size of expansion space: 6
   Lowest Energy          :     0.008848849906
   Maximum Energy change  :     0.000008464517 (vector 0)
   Maximum residual norm  :     0.000000368022

                       ****Iteration    4****
   Time for densities:            0.000
   Time for RI-J (Direct):        0.012
   Time for K (COSX):             0.049
   Time for XC-Integration:       0.006
   Time for Sigma-Completion:     0.000
   Size of expansion space: 7
   Lowest Energy          :     0.008848585662
   Maximum Energy change  :     0.000000264244 (vector 0)
   Maximum residual norm  :     0.000000010621

      *** CONVERGENCE OF RESIDUAL NORM REACHED ***

Storing the converged CI vectors               ... ox_es1_G_orca0000.cis1

                 *** DAVIDSON DONE ***

Total time for solving the CIS problem:     0.357sec

------------------------------------
TD-DFT/TDA EXCITED STATES (SINGLETS)
------------------------------------

the weight of the individual excitations are printed if larger than 1.0e-02

STATE  1:  E=   0.008849 au      0.241 eV     1942.0 cm**-1 <S**2> =   0.000000
    10a ->  12a  :     0.842415 (c=  0.91783177)
    11a ->  12a  :     0.150179 (c=  0.38752962)


-----------------------------
TD-DFT/TDA-EXCITATION SPECTRA
-----------------------------

Center of mass = ( -1.0766, -0.0972,  0.0671)
Calculating the Dipole integrals                  ... done
Transforming integrals                            ... done
Calculating the Linear Momentum integrals         ... done
Transforming integrals                            ... done
Calculating angular momentum integrals            ... done
Transforming integrals                            ... done

-----------------------------------------------------------------------------
         ABSORPTION SPECTRUM VIA TRANSITION ELECTRIC DIPOLE MOMENTS
-----------------------------------------------------------------------------
State   Energy    Wavelength  fosc         T2        TX        TY        TZ  
        (cm-1)      (nm)                 (au**2)    (au)      (au)      (au) 
-----------------------------------------------------------------------------
   1    1942.0   5149.2   0.000096289   0.01632   0.11809  -0.01291   0.04702

-----------------------------------------------------------------------------
         ABSORPTION SPECTRUM VIA TRANSITION VELOCITY DIPOLE MOMENTS
-----------------------------------------------------------------------------
State   Energy    Wavelength   fosc        P2         PX        PY        PZ  
        (cm-1)      (nm)                 (au**2)     (au)      (au)      (au) 
-----------------------------------------------------------------------------
   1    1942.0   5149.2   0.269135084   0.00357   0.04480   0.03564   0.01718

-------------------------------------------------------------------
                             CD SPECTRUM
-------------------------------------------------------------------
State  Energy     Wavelength     R         MX        MY        MZ   
       (cm-1)       (nm)     (1e40*cgs)   (au)      (au)      (au)  
-------------------------------------------------------------------
   1    1942.0   5149.2    -13.79274  -0.14588   0.28030  -0.17889

-------------------------------------------------------------------
         CD SPECTRUM VIA TRANSITION VELOCITY DIPOLE MOMENTS        
-------------------------------------------------------------------
State  Energy     Wavelength     R         MX        MY        MZ   
       (cm-1)       (nm)     (1e40*cgs)   (au)      (au)      (au)  
-------------------------------------------------------------------
   1    1942.0   5149.2     20.27777  -0.14588   0.28030  -0.17889

Total run time:        0.607 sec

           *** ORCA-CIS/TD-DFT FINISHED WITHOUT ERROR ***

Maximum memory used throughout the entire CIS-calculation: 49.4 MB

-----------------------
CIS/TD-DFT TOTAL ENERGY
-----------------------

    E(SCF)  =   -153.444849474 Eh
    DE(CIS) =      0.008848586 Eh (Root  1)
    ----------------------------- ---------
    E(tot)  =   -153.436000888 Eh



-------------------------------------------------------------------------------
                          DFT DISPERSION CORRECTION                            
                                                                               
                              DFTD3 V3.1  Rev 1                                
                          USING Becke-Johnson damping                          
-------------------------------------------------------------------------------
The PBE0 functional is recognized
Active option DFTDOPT                   ...         4   

molecular C6(AA) [au] = 395.259267 


            DFT-D V3
 parameters
 s6 scaling factor         :     1.0000 
 a1 scaling factor         :     0.4145 
 s8 scaling factor         :     1.2177 
 a2 scaling factor         :     4.8593 
 ad hoc parameters k1-k3   :    16.0000     1.3333    -4.0000 

 Edisp/kcal,au: -1.613230491965  -0.002570846157 
 E6   /kcal   :  -1.052212749 
 E8   /kcal   :  -0.561017743 
 % E8         :  34.776043831 

-------------------------   ----------------
Dispersion correction           -0.002570846
-------------------------   ----------------


-------------------------   --------------------
FINAL SINGLE POINT ENERGY      -153.438571734539
-------------------------   --------------------



           ************************************************************
           *        Program running with 8 parallel MPI-processes     *
           *              working on a common directory               *
           ************************************************************
------------------------------------------------------------------------------
                         ORCA SCF GRADIENT CALCULATION
------------------------------------------------------------------------------


------------------------
TD-DFT GRADIENT XC SETUP
------------------------

Building densities                     ... done
Calculating rho(r) on the grid         ... done
Building xc-kernel on the grid         ... done
Building xc 3rd derivative on the grid      ... done
                *** TD-DFT GRADIENT CALCULATION INITIALIZED ***

-------------------
TD-DFT/TDA GRADIENT
-------------------

Reference wavefunction             ... RHF
State of interest                  ... 1
Basis dimension                    ... 117
DFT-XC contribution needed         ... YES
RI-approximation                   ... ON
CIS-vectors being read from        ... ox_es1_G_orca0000.cis

 => Number of Vectors found: 1
 => Orbital Window: 3...11 -> 12...116

Reading the CIS file                     ... done
Norm of the CI vector                    ... 1.000000000
Making the CIS (pseudo)densities         ... done
Making operators G(D) and Q(T)           ... done
Transforming the Fock operators          ... done
Making the frozen-core relaxed density   ... done
Constructing the G(H) operator           ... done
Transforming the G(H) operator           ... done
Calculating the CIS Lagrangian           ... done
Solving the Z-vector equations           ... done
Finalizing the relaxed density           ... done
Storing the relaxed density              ... done
Constructing the G(Z) operator           ... done
Transforming the G(Z) operator           ... done
Making the W-matrix                      ... done
Finalizing the W-matrix                  ... done
Transforming the W-matrix                ... done
Nuclear repulsion gradient               ... done
One-Electron gradient                    ... done
Dispersion correction                    ... done
Prescreening matrices                    ... done
COSX-gradient                            ... done
Coulomb gradient (RI)                    ... done
Exchange-Correlation gradient            ... done

                 ---------------------------
                 EXCITED STATE GRADIENT DONE
                 ---------------------------

------------------
CARTESIAN GRADIENT
------------------

   1   O   :   -0.024773175   -0.066013425   -0.002251943
   2   C   :   -0.104459351   -0.061219647    0.211112533
   3   C   :    0.011085279    0.023232806   -0.030422516
   4   H   :    0.074403801    0.082340934   -0.175083095
   5   H   :   -0.007052315    0.053756734   -0.013311526
   6   H   :    0.028364947   -0.017709049   -0.016346995
   7   H   :    0.022375266   -0.014385684    0.026387999

Difference to translation invariance:
           :   -0.0000555487    0.0000026691    0.0000844575

Difference to rotation invariance:
           :    0.0001163995    0.0001845251    0.0002157667

Norm of the cartesian gradient     ...    0.3386280077
RMS gradient                       ...    0.0738946894
MAX gradient                       ...    0.2111125325

------------------------------------------------------------------------------
                  RELAXED CIS/TDA DENSITY POPULATION ANALYSIS
                                   IROOT 1
------------------------------------------------------------------------------
------------------------------------------------------------------------------
                           ORCA POPULATION ANALYSIS
------------------------------------------------------------------------------
Input electron density              ... ox_es1_G_orca0000.cisp
BaseName (.gbw .S,...)              ... ox_es1_G_orca0000

                    ********************************
                    * MULLIKEN POPULATION ANALYSIS *
                    ********************************

-----------------------
MULLIKEN ATOMIC CHARGES
-----------------------
   0 O :   -0.357125
   1 C :   -0.089431
   2 C :   -0.202075
   3 H :    0.144515
   4 H :    0.158596
   5 H :    0.183042
   6 H :    0.162479
Sum of atomic charges:   -0.0000000

--------------------------------
MULLIKEN REDUCED ORBITAL CHARGES
--------------------------------
  0 O s       :     3.907777  s :     3.907777
      pz      :     2.182231  p :     4.425475
      px      :     1.006738
      py      :     1.236506
      dz2     :     0.002711  d :     0.022785
      dxz     :     0.000727
      dyz     :     0.005244
      dx2y2   :     0.006722
      dxy     :     0.007381
      f0      :     0.000166  f :     0.001089
      f+1     :     0.000084
      f-1     :     0.000240
      f+2     :     0.000104
      f-2     :     0.000073
      f+3     :     0.000239
      f-3     :     0.000182
  1 C s       :     3.205609  s :     3.205609
      pz      :     1.084355  p :     2.733364
      px      :     0.858517
      py      :     0.790492
      dz2     :     0.017476  d :     0.140378
      dxz     :     0.020892
      dyz     :     0.041028
      dx2y2   :     0.025156
      dxy     :     0.035826
      f0      :     0.002360  f :     0.010080
      f+1     :     0.001240
      f-1     :     0.000433
      f+2     :     0.001590
      f-2     :     0.001438
      f+3     :     0.001839
      f-3     :     0.001181
  2 C s       :     3.346736  s :     3.346736
      pz      :     1.061320  p :     2.809950
      px      :     0.962133
      py      :     0.786497
      dz2     :     0.003789  d :     0.041730
      dxz     :     0.024599
      dyz     :     0.001495
      dx2y2   :     0.004193
      dxy     :     0.007653
      f0      :     0.000345  f :     0.003659
      f+1     :     0.001030
      f-1     :     0.000072
      f+2     :     0.000701
      f-2     :     0.000093
      f+3     :     0.000631
      f-3     :     0.000788
  3 H s       :     0.825945  s :     0.825945
      pz      :     0.011071  p :     0.029540
      px      :     0.008702
      py      :     0.009767
  4 H s       :     0.816781  s :     0.816781
      pz      :     0.012290  p :     0.024623
      px      :     0.005363
      py      :     0.006970
  5 H s       :     0.795426  s :     0.795426
      pz      :     0.010129  p :     0.021532
      px      :     0.006978
      py      :     0.004425
  6 H s       :     0.816751  s :     0.816751
      pz      :     0.010221  p :     0.020770
      px      :     0.006447
      py      :     0.004102


                     *******************************
                     * LOEWDIN POPULATION ANALYSIS *
                     *******************************

----------------------
LOEWDIN ATOMIC CHARGES
----------------------
   0 O :   -0.060201
   1 C :   -0.388795
   2 C :   -0.058066
   3 H :    0.072958
   4 H :    0.158890
   5 H :    0.138592
   6 H :    0.136621

-------------------------------
LOEWDIN REDUCED ORBITAL CHARGES
-------------------------------
  0 O s       :     3.590354  s :     3.590354
      pz      :     2.094342  p :     4.410916
      px      :     1.000940
      py      :     1.315634
      dz2     :     0.005801  d :     0.055526
      dxz     :     0.002400
      dyz     :     0.016173
      dx2y2   :     0.016899
      dxy     :     0.014254
      f0      :     0.000457  f :     0.003404
      f+1     :     0.000129
      f-1     :     0.000466
      f+2     :     0.000415
      f-2     :     0.000407
      f+3     :     0.000650
      f-3     :     0.000880
  1 C s       :     2.818292  s :     2.818292
      pz      :     1.090369  p :     2.982633
      px      :     1.000602
      py      :     0.891662
      dz2     :     0.089645  d :     0.520917
      dxz     :     0.077190
      dyz     :     0.107636
      dx2y2   :     0.108549
      dxy     :     0.137897
      f0      :     0.013514  f :     0.066954
      f+1     :     0.007499
      f-1     :     0.005902
      f+2     :     0.008266
      f-2     :     0.008502
      f+3     :     0.016274
      f-3     :     0.006997
  2 C s       :     2.976835  s :     2.976835
      pz      :     1.086280  p :     2.876015
      px      :     1.059976
      py      :     0.729759
      dz2     :     0.023539  d :     0.188445
      dxz     :     0.104462
      dyz     :     0.003908
      dx2y2   :     0.028707
      dxy     :     0.027829
      f0      :     0.002258  f :     0.016771
      f+1     :     0.002703
      f-1     :     0.000466
      f+2     :     0.003569
      f-2     :     0.000851
      f+3     :     0.003408
      f-3     :     0.003517
  3 H s       :     0.822276  s :     0.822276
      pz      :     0.042330  p :     0.104766
      px      :     0.030661
      py      :     0.031774
  4 H s       :     0.774629  s :     0.774629
      pz      :     0.033799  p :     0.066482
      px      :     0.014598
      py      :     0.018084
  5 H s       :     0.799153  s :     0.799153
      pz      :     0.030965  p :     0.062255
      px      :     0.019163
      py      :     0.012127
  6 H s       :     0.804344  s :     0.804344
      pz      :     0.030506  p :     0.059035
      px      :     0.017414
      py      :     0.011115


                      *****************************
                      * MAYER POPULATION ANALYSIS *
                      *****************************

  NA   - Mulliken gross atomic population
  ZA   - Total nuclear charge
  QA   - Mulliken gross atomic charge
  VA   - Mayer's total valence
  BVA  - Mayer's bonded valence
  FA   - Mayer's free valence

  ATOM       NA         ZA         QA         VA         BVA        FA
  0 O      8.3571     8.0000    -0.3571     1.3680     1.1332     0.2348
  1 C      6.0894     6.0000    -0.0894     3.9905     3.9433     0.0473
  2 C      6.2021     6.0000    -0.2021     3.7693     3.1073     0.6620
  3 H      0.8555     1.0000     0.1445     1.0063     0.9971     0.0092
  4 H      0.8414     1.0000     0.1586     0.9849     0.9679     0.0170
  5 H      0.8170     1.0000     0.1830     0.9543     0.9484     0.0059
  6 H      0.8375     1.0000     0.1625     0.9613     0.9536     0.0077

  Mayer bond orders larger than 0.100000
B(  0-O ,  1-C ) :   0.9315 B(  0-O ,  2-C ) :   0.2006 B(  1-C ,  2-C ) :   1.0466 
B(  1-C ,  3-H ) :   0.9815 B(  1-C ,  4-H ) :   0.9711 B(  2-C ,  5-H ) :   0.9361 
B(  2-C ,  6-H ) :   0.9396 


-------
TIMINGS
-------

Total TD-DFT gradient time         ...        5.888 sec

Fock matrix formation       ....       0.838 sec  ( 14.2%)
  Coulomb formation         ....       0.684 sec  ( 81.6% of F)
  RI-J                      ....       0.292 sec  ( 34.8% of F)
  Chain of spheres X        ....       0.392 sec  ( 46.7% of F)
  XC integration            ....       0.154 sec  ( 18.4% of F)
Z-vector equation           ....       2.401 sec  ( 40.8%)
One electron gradient       ....       0.032 sec  (  0.5%)
Prescreening matrices       ....       0.151 sec  (  2.6%)
RI-J Coulomb gradient       ....       0.258 sec  (  4.4%)
COSX gradient               ....       0.345 sec  (  5.9%)
XC gradient                 ....       1.568 sec  ( 26.6%)

Maximum memory used throughout the entire SCFGRAD-calculation: 130.2 MB

                            ***************************************
                            *     ORCA property calculations      *
                            ***************************************

                                    ---------------------
                                    Active property flags
                                    ---------------------
   (+) Dipole Moment


------------------------------------------------------------------------------
                       ORCA ELECTRIC PROPERTIES CALCULATION
------------------------------------------------------------------------------

Dipole Moment Calculation                       ... on
Quadrupole Moment Calculation                   ... off
Polarizability Calculation                      ... off
GBWName                                         ... ox_es1_G_orca0000.gbw
Electron density                                ... ox_es1_G_orca0000.scfp
The origin for moment calculation is the CENTER OF MASS  = (-1.076582, -0.097238  0.067127)

-------------
DIPOLE MOMENT
-------------
                                X             Y             Z
Electronic contribution:     -1.12571       1.13251       0.14363
Nuclear contribution   :      2.27181      -2.25900      -0.13039
                        -----------------------------------------
Total Dipole Moment    :      1.14611      -1.12649       0.01324
                        -----------------------------------------
Magnitude (a.u.)       :      1.60709
Magnitude (Debye)      :      4.08489



--------------------
Rotational spectrum 
--------------------
 
Rotational constants in cm-1:     1.575844     0.305738     0.286191 
Rotational constants in MHz : 47242.605745  9165.803381  8579.795303 

 Dipole components along the rotational axes: 
x,y,z [a.u.] :     1.545738    -0.437845    -0.041414 
x,y,z [Debye]:     3.928955    -1.112914    -0.105265 

 

                        *** CIS RELAXED DENSITY ***

------------------------------------------------------------------------------
                       ORCA ELECTRIC PROPERTIES CALCULATION
------------------------------------------------------------------------------

Dipole Moment Calculation                       ... on
Quadrupole Moment Calculation                   ... off
Polarizability Calculation                      ... off
GBWName                                         ... ox_es1_G_orca0000.gbw
Electron density                                ... ox_es1_G_orca0000.cisp
The origin for moment calculation is the CENTER OF MASS  = (-1.076582, -0.097238  0.067127)

-------------
DIPOLE MOMENT
-------------
                                X             Y             Z
Electronic contribution:     -1.31118       1.29066       0.14406
Nuclear contribution   :      2.27181      -2.25900      -0.13039
                        -----------------------------------------
Total Dipole Moment    :      0.96063      -0.96834       0.01367
                        -----------------------------------------
Magnitude (a.u.)       :      1.36407
Magnitude (Debye)      :      3.46718



--------------------
Rotational spectrum 
--------------------
 
Rotational constants in cm-1:     1.575844     0.305738     0.286191 
Rotational constants in MHz : 47242.605745  9165.803381  8579.795303 

 Dipole components along the rotational axes: 
x,y,z [a.u.] :     1.307154    -0.388343    -0.034918 
x,y,z [Debye]:     3.322522    -0.987089    -0.088753 

 

Timings for individual modules:

Sum of individual times         ...        8.332 sec (=   0.139 min)
GTO integral calculation        ...        0.271 sec (=   0.005 min)   3.2 %
SCF iterations                  ...        1.149 sec (=   0.019 min)  13.8 %
CIS module                      ...        0.849 sec (=   0.014 min)  10.2 %
SCF Gradient evaluation         ...        6.063 sec (=   0.101 min)  72.8 %
                             ****ORCA TERMINATED NORMALLY****
TOTAL RUN TIME: 0 days 0 hours 0 minutes 8 seconds 619 msec
