
                                 *****************
                                 * O   R   C   A *
                                 *****************

                                            #,                                       
                                            ###                                      
                                            ####                                     
                                            #####                                    
                                            ######                                   
                                           ########,                                 
                                     ,,################,,,,,                         
                               ,,#################################,,                 
                          ,,##########################################,,             
                       ,#########################################, ''#####,          
                    ,#############################################,,   '####,        
                  ,##################################################,,,,####,       
                ,###########''''           ''''###############################       
              ,#####''   ,,,,##########,,,,          '''####'''          '####       
            ,##' ,,,,###########################,,,                        '##       
           ' ,,###''''                  '''############,,,                           
         ,,##''                                '''############,,,,        ,,,,,,###''
      ,#''                                            '''#######################'''  
     '                                                          ''''####''''         
             ,#######,   #######,   ,#######,      ##                                
            ,#'     '#,  ##    ##  ,#'     '#,    #''#        ######   ,####,        
            ##       ##  ##   ,#'  ##            #'  '#       #        #'  '#        
            ##       ##  #######   ##           ,######,      #####,   #    #        
            '#,     ,#'  ##    ##  '#,     ,#' ,#      #,         ##   #,  ,#        
             '#######'   ##     ##  '#######'  #'      '#     #####' # '####'        



                  #######################################################
                  #                        -***-                        #
                  #          Department of theory and spectroscopy      #
                  #    Directorship and core code : Frank Neese         #
                  #        Max Planck Institute fuer Kohlenforschung    #
                  #                Kaiser Wilhelm Platz 1               #
                  #                 D-45470 Muelheim/Ruhr               #
                  #                      Germany                        #
                  #                                                     #
                  #                  All rights reserved                #
                  #                        -***-                        #
                  #######################################################


                         Program Version 5.0.2 -  RELEASE  -


 With contributions from (in alphabetic order):
   Daniel Aravena         : Magnetic Suceptibility
   Michael Atanasov       : Ab Initio Ligand Field Theory (pilot matlab implementation)
   Alexander A. Auer      : GIAO ZORA, VPT2 properties, NMR spectrum
   Ute Becker             : Parallelization
   Giovanni Bistoni       : ED, misc. LED, open-shell LED, HFLD
   Martin Brehm           : Molecular dynamics
   Dmytro Bykov           : SCF Hessian
   Vijay G. Chilkuri      : MRCI spin determinant printing, contributions to CSF-ICE
   Dipayan Datta          : RHF DLPNO-CCSD density
   Achintya Kumar Dutta   : EOM-CC, STEOM-CC
   Dmitry Ganyushin       : Spin-Orbit,Spin-Spin,Magnetic field MRCI
   Miquel Garcia          : C-PCM and meta-GGA Hessian, CC/C-PCM, Gaussian charge scheme
   Yang Guo               : DLPNO-NEVPT2, F12-NEVPT2, CIM, IAO-localization
   Andreas Hansen         : Spin unrestricted coupled pair/coupled cluster methods
   Benjamin Helmich-Paris : MC-RPA, TRAH-SCF, COSX integrals
   Lee Huntington         : MR-EOM, pCC
   Robert Izsak           : Overlap fitted RIJCOSX, COSX-SCS-MP3, EOM
   Marcus Kettner         : VPT2
   Christian Kollmar      : KDIIS, OOCD, Brueckner-CCSD(T), CCSD density, CASPT2, CASPT2-K
   Simone Kossmann        : Meta GGA functionals, TD-DFT gradient, OOMP2, MP2 Hessian
   Martin Krupicka        : Initial AUTO-CI
   Lucas Lang             : DCDCAS
   Marvin Lechner         : AUTO-CI (C++ implementation), FIC-MRCC
   Dagmar Lenk            : GEPOL surface, SMD
   Dimitrios Liakos       : Extrapolation schemes; Compound Job, initial MDCI parallelization
   Dimitrios Manganas     : Further ROCIS development; embedding schemes
   Dimitrios Pantazis     : SARC Basis sets
   Anastasios Papadopoulos: AUTO-CI, single reference methods and gradients
   Taras Petrenko         : DFT Hessian,TD-DFT gradient, ASA, ECA, R-Raman, ABS, FL, XAS/XES, NRVS
   Peter Pinski           : DLPNO-MP2, DLPNO-MP2 Gradient
   Christoph Reimann      : Effective Core Potentials
   Marius Retegan         : Local ZFS, SOC
   Christoph Riplinger    : Optimizer, TS searches, QM/MM, DLPNO-CCSD(T), (RO)-DLPNO pert. Triples
   Tobias Risthaus        : Range-separated hybrids, TD-DFT gradient, RPA, STAB
   Michael Roemelt        : Original ROCIS implementation
   Masaaki Saitow         : Open-shell DLPNO-CCSD energy and density
   Barbara Sandhoefer     : DKH picture change effects
   Avijit Sen             : IP-ROCIS
   Kantharuban Sivalingam : CASSCF convergence, NEVPT2, FIC-MRCI
   Bernardo de Souza      : ESD, SOC TD-DFT
   Georgi Stoychev        : AutoAux, RI-MP2 NMR, DLPNO-MP2 response
   Willem Van den Heuvel  : Paramagnetic NMR
   Boris Wezisla          : Elementary symmetry handling
   Frank Wennmohs         : Technical directorship


 We gratefully acknowledge several colleagues who have allowed us to
 interface, adapt or use parts of their codes:
   Stefan Grimme, W. Hujo, H. Kruse, P. Pracht,  : VdW corrections, initial TS optimization,
                  C. Bannwarth, S. Ehlert          DFT functionals, gCP, sTDA/sTD-DF
   Ed Valeev, F. Pavosevic, A. Kumar             : LibInt (2-el integral package), F12 methods
   Garnet Chan, S. Sharma, J. Yang, R. Olivares  : DMRG
   Ulf Ekstrom                                   : XCFun DFT Library
   Mihaly Kallay                                 : mrcc  (arbitrary order and MRCC methods)
   Jiri Pittner, Ondrej Demel                    : Mk-CCSD
   Frank Weinhold                                : gennbo (NPA and NBO analysis)
   Christopher J. Cramer and Donald G. Truhlar   : smd solvation model
   Lars Goerigk                                  : TD-DFT with DH, B97 family of functionals
   V. Asgeirsson, H. Jonsson                     : NEB implementation
   FAccTs GmbH                                   : IRC, NEB, NEB-TS, DLPNO-Multilevel, CI-OPT
                                                   MM, QMMM, 2- and 3-layer-ONIOM, Crystal-QMMM,
                                                   LR-CPCM, SF, NACMEs, symmetry and pop. for TD-DFT,
                                                   nearIR, NL-DFT gradient (VV10), updates on ESD,
                                                   ML-optimized integration grids
   S Lehtola, MJT Oliveira, MAL Marques          : LibXC Library
   Liviu Ungur et al                             : ANISO software


 Your calculation uses the libint2 library for the computation of 2-el integrals
 For citations please refer to: http://libint.valeyev.net

 Your ORCA version has been built with support for libXC version: 5.1.0
 For citations please refer to: https://tddft.org/programs/libxc/

 This ORCA versions uses:
   CBLAS   interface :  Fast vector & matrix operations
   LAPACKE interface :  Fast linear algebra routines
   SCALAPACK package :  Parallel linear algebra routines
   Shared memory     :  Shared parallel matrices
   BLAS/LAPACK       :  OpenBLAS 0.3.15  USE64BITINT DYNAMIC_ARCH NO_AFFINITY SkylakeX SINGLE_THREADED
        Core in use  :  SkylakeX
   Copyright (c) 2011-2014, The OpenBLAS Project


Your calculation utilizes the atom-pairwise dispersion correction
with the Becke-Johnson damping scheme (D3BJ)
Cite in your paper:
S.Grimme, S.Ehrlich, L.Goerigk, J Comput Chem, (2011), 32, 1456–1465 
S.Grimme, J.Antony, S.Ehrlich and H.Krieg, J.Chem.Phys., 132, (2010), 154104 
   

================================================================================

----- Orbital basis set information -----
Your calculation utilizes the basis: def2-TZVP
   F. Weigend and R. Ahlrichs, Phys. Chem. Chem. Phys. 7, 3297 (2005).

----- AuxJ basis set information -----
Your calculation utilizes the auxiliary basis: def2/J
   F. Weigend, Phys. Chem. Chem. Phys. 8, 1057 (2006).

================================================================================
                                        WARNINGS
                       Please study these warnings very carefully!
================================================================================

INFO   : Checking CIS options ...

WARNING: CIS/ROCIS methods need fully converged wavefunctions
  ===> : Setting SCFConvForced true
         You can overwrite this default with %scf ConvForced false 


INFO   : the flag for use of the SHARK integral package has been found!

================================================================================
                                       INPUT FILE
================================================================================
NAME = ox_es1_A_orca0033.inp
|  1> ! engrad PBE0 D3BJ def2-TZVP  
|  2> %pal nprocs 8 end
|  3> %maxcore 3000
|  4> 
|  5> %tddft
|  6>   nroots 1
|  7>   tda true
|  8>   Iroot 1
|  9>   end 
| 10> *xyz 0 1 
| 11> O   0.03079683034721319 0.7965793728984193 -0.015477211965699516
| 12> C   -0.712582938887894 -0.5095761688192652 0.046201350960345056
| 13> C   0.7196444331778505 -0.47315664102595195 0.05245046129184447
| 14> H   -1.299040114527138 -0.7386938748181779 0.8421447613238048
| 15> H   -1.233522272432718 -0.7322923776248143 -0.8322365109007818
| 16> H   1.1597263496058139 -0.5834480415854981 -0.9094253466398691
| 17> H   1.2589872144064804 -0.6955167643404475 0.9399329757176035
| 18> *
| 19> 
| 20>                          ****END OF INPUT****
================================================================================

                     *******************************
                     * Energy+Gradient Calculation *
                     *******************************

---------------------------------
CARTESIAN COORDINATES (ANGSTROEM)
---------------------------------
  O      0.030797    0.796579   -0.015477
  C     -0.712583   -0.509576    0.046201
  C      0.719644   -0.473157    0.052450
  H     -1.299040   -0.738694    0.842145
  H     -1.233522   -0.732292   -0.832237
  H      1.159726   -0.583448   -0.909425
  H      1.258987   -0.695517    0.939933

----------------------------
CARTESIAN COORDINATES (A.U.)
----------------------------
  NO LB      ZA    FRAG     MASS         X           Y           Z
   0 O     8.0000    0    15.999    0.058198    1.505317   -0.029248
   1 C     6.0000    0    12.011   -1.346587   -0.962959    0.087308
   2 C     6.0000    0    12.011    1.359931   -0.894136    0.099117
   3 H     1.0000    0     1.008   -2.454830   -1.395929    1.591423
   4 H     1.0000    0     1.008   -2.331019   -1.383832   -1.572699
   5 H     1.0000    0     1.008    2.191565   -1.102557   -1.718565
   6 H     1.0000    0     1.008    2.379141   -1.314336    1.776216

--------------------------------
INTERNAL COORDINATES (ANGSTROEM)
--------------------------------
 O      0   0   0     0.000000000000     0.00000000     0.00000000
 C      1   0   0     1.504147607648     0.00000000     0.00000000
 C      2   1   0     1.432703974546    58.93897378     0.00000000
 H      2   1   3     1.014865929353   120.91712651   115.37174769
 H      2   1   3     1.045291048488   113.38223094   247.37145970
 H      3   2   1     1.063504281180   114.02183746   265.71263259
 H      3   2   1     1.062054552985   120.39665138   107.82344876

---------------------------
INTERNAL COORDINATES (A.U.)
---------------------------
 O      0   0   0     0.000000000000     0.00000000     0.00000000
 C      1   0   0     2.842427043447     0.00000000     0.00000000
 C      2   1   0     2.707418142872    58.93897378     0.00000000
 H      2   1   3     1.917818669125   120.91712651   115.37174769
 H      2   1   3     1.975313811882   113.38223094   247.37145970
 H      3   2   1     2.009731833683   114.02183746   265.71263259
 H      3   2   1     2.006992244425   120.39665138   107.82344876

---------------------
BASIS SET INFORMATION
---------------------
There are 3 groups of distinct atoms

 Group   1 Type O   : 11s6p2d1f contracted to 5s3p2d1f pattern {62111/411/11/1}
 Group   2 Type C   : 11s6p2d1f contracted to 5s3p2d1f pattern {62111/411/11/1}
 Group   3 Type H   : 5s1p contracted to 3s1p pattern {311/1}

Atom   0O    basis set group =>   1
Atom   1C    basis set group =>   2
Atom   2C    basis set group =>   2
Atom   3H    basis set group =>   3
Atom   4H    basis set group =>   3
Atom   5H    basis set group =>   3
Atom   6H    basis set group =>   3
---------------------------------
AUXILIARY/J BASIS SET INFORMATION
---------------------------------
There are 3 groups of distinct atoms

 Group   1 Type O   : 12s5p4d2f1g contracted to 6s4p3d1f1g pattern {711111/2111/211/2/1}
 Group   2 Type C   : 12s5p4d2f1g contracted to 6s4p3d1f1g pattern {711111/2111/211/2/1}
 Group   3 Type H   : 5s2p1d contracted to 3s1p1d pattern {311/2/1}

Atom   0O    basis set group =>   1
Atom   1C    basis set group =>   2
Atom   2C    basis set group =>   2
Atom   3H    basis set group =>   3
Atom   4H    basis set group =>   3
Atom   5H    basis set group =>   3
Atom   6H    basis set group =>   3

Checking for AutoStart:
The File: ox_es1_A_orca0033.gbw exists
Trying to determine its content:
     ... Fine, the file contains calculation information
     ... Fine, the calculation information was read
     ... Fine, the file contains a basis set
     ... Fine, the basis set was read
     ... Fine, the file contains a geometry
     ... Fine, the geometry was read
     ... Fine, the file contains a set of orbitals
     ... Fine, the orbitals can be read
     => possible old guess file was deleted
     => GBW file was renamed to GES file
     => GES file is set as startup file
     => Guess is set to MORead
     ... now leaving AutoStart



           ************************************************************
           *        Program running with 8 parallel MPI-processes     *
           *              working on a common directory               *
           ************************************************************
------------------------------------------------------------------------------
                           ORCA GTO INTEGRAL CALCULATION
                           -- RI-GTO INTEGRALS CHOSEN --
------------------------------------------------------------------------------
------------------------------------------------------------------------------
                   ___                                                        
                  /   \      - P O W E R E D   B Y -                         
                 /     \                                                     
                 |  |  |   _    _      __       _____    __    __             
                 |  |  |  | |  | |    /  \     |  _  \  |  |  /  |          
                  \  \/   | |  | |   /    \    | | | |  |  | /  /          
                 / \  \   | |__| |  /  /\  \   | |_| |  |  |/  /          
                |  |  |   |  __  | /  /__\  \  |    /   |      \           
                |  |  |   | |  | | |   __   |  |    \   |  |\   \          
                \     /   | |  | | |  |  |  |  | |\  \  |  | \   \       
                 \___/    |_|  |_| |__|  |__|  |_| \__\ |__|  \__/        
                                                                              
                      - O R C A' S   B I G   F R I E N D -                    
                                      &                                       
                       - I N T E G R A L  F E E D E R -                       
                                                                              
 v1 FN, 2020, v2 2021                                                         
------------------------------------------------------------------------------


Reading SHARK input file ox_es1_A_orca0033.SHARKINP.tmp ... ok
----------------------
SHARK INTEGRAL PACKAGE
----------------------

Number of atoms                             ...      7
Number of basis functions                   ...    117
Number of shells                            ...     49
Maximum angular momentum                    ...      3
Integral batch strategy                     ... SHARK/LIBINT Hybrid
RI-J (if used) integral strategy            ... SPLIT-RIJ (Revised 2003 algorithm where possible)
Printlevel                                  ...      1
Contraction scheme used                     ... SEGMENTED contraction
Coulomb Range Separation                    ... NOT USED
Exchange Range Separation                   ... NOT USED
Finite Nucleus Model                        ... NOT USED
Auxiliary Coulomb fitting basis             ... AVAILABLE
   # of basis functions in Aux-J            ...    191
   # of shells in Aux-J                     ...     65
   Maximum angular momentum in Aux-J        ...      4
Auxiliary J/K fitting basis                 ... NOT available
Auxiliary Correlation fitting basis         ... NOT available
Auxiliary 'external' fitting basis          ... NOT available
Integral threshold                          ...     2.500000e-11
Primitive cut-off                           ...     2.500000e-12
Primitive pair pre-selection threshold      ...     2.500000e-12

Calculating pre-screening integrals         ... done (  0.0 sec) Dimension = 49
Organizing shell pair data                  ... done (  0.0 sec)
Shell pair information
Total number of shell pairs                 ...      1225
Shell pairs after pre-screening             ...      1220
Total number of primitive shell pairs       ...      3648
Primitive shell pairs kept                  ...      3152
          la=0 lb=0:    373 shell pairs
          la=1 lb=0:    351 shell pairs
          la=1 lb=1:     91 shell pairs
          la=2 lb=0:    162 shell pairs
          la=2 lb=1:     78 shell pairs
          la=2 lb=2:     21 shell pairs
          la=3 lb=0:     81 shell pairs
          la=3 lb=1:     39 shell pairs
          la=3 lb=2:     18 shell pairs
          la=3 lb=3:      6 shell pairs

Calculating one electron integrals          ... done (  0.0 sec)
Calculating RI/J V-Matrix + Cholesky decomp.... done (  0.0 sec)
Calculating Nuclear repulsion               ... done (  0.0 sec) ENN=     75.139767981484 Eh

SHARK setup successfully completed in   0.1 seconds

Maximum memory used throughout the entire GTOINT-calculation: 14.9 MB


           ************************************************************
           *        Program running with 8 parallel MPI-processes     *
           *              working on a common directory               *
           ************************************************************
-------------------------------------------------------------------------------
                                 ORCA SCF
-------------------------------------------------------------------------------

------------
SCF SETTINGS
------------
Hamiltonian:
 Density Functional     Method          .... DFT(GTOs)
 Exchange Functional    Exchange        .... PBE
   PBE kappa parameter   XKappa         ....  0.804000
   PBE mue parameter    XMuePBE         ....  0.219520
 Correlation Functional Correlation     .... PBE
   PBE beta parameter  CBetaPBE         ....  0.066725
 LDA part of GGA corr.  LDAOpt          .... PW91-LDA
 Gradients option       PostSCFGGA      .... off
 Hybrid DFT is turned on
   Fraction HF Exchange ScalHFX         ....  0.250000
   Scaling of DF-GGA-X  ScalDFX         ....  0.750000
   Scaling of DF-GGA-C  ScalDFC         ....  1.000000
   Scaling of DF-LDA-C  ScalLDAC        ....  1.000000
   Perturbative correction              ....  0.000000
   Density functional embedding theory  .... OFF
   NL short-range parameter             ....  6.900000
 RI-approximation to the Coulomb term is turned on
   Number of AuxJ basis functions       .... 191
   RIJ-COSX (HFX calculated with COS-X)).... on


General Settings:
 Integral files         IntName         .... ox_es1_A_orca0033
 Hartree-Fock type      HFTyp           .... RHF
 Total Charge           Charge          ....    0
 Multiplicity           Mult            ....    1
 Number of Electrons    NEL             ....   24
 Basis Dimension        Dim             ....  117
 Nuclear Repulsion      ENuc            ....     75.1397679815 Eh

Convergence Acceleration:
 DIIS                   CNVDIIS         .... on
   Start iteration      DIISMaxIt       ....    12
   Startup error        DIISStart       ....  0.200000
   # of expansion vecs  DIISMaxEq       ....     5
   Bias factor          DIISBfac        ....   1.050
   Max. coefficient     DIISMaxC        ....  10.000
 Trust-Rad. Augm. Hess. CNVTRAH         .... auto
   Auto Start mean grad. ratio tolernc. ....  1.125000
   Auto Start start iteration           ....     1
   Auto Start num. interpolation iter.  ....    10
   Max. Number of Micro iterations      ....    16
   Max. Number of Macro iterations      .... Maxiter - #DIIS iter
   Number of Davidson start vectors     ....     2
   Converg. threshold I  (grad. norm)   ....   1.000e-05
   Converg. threshold II (energy diff.) ....   1.000e-08
   Grad. Scal. Fac. for Micro threshold ....   0.100
   Minimum threshold for Micro iter.    ....   0.010
   NR start threshold (gradient norm)   ....   0.001
   Initial trust radius                 ....   0.400
   Minimum AH scaling param. (alpha)    ....   1.000
   Maximum AH scaling param. (alpha)    .... 1000.000
   Orbital update algorithm             .... Taylor
   White noise on init. David. guess    .... on
   Maximum white noise                  ....   0.010
   Quad. conv. algorithm                .... NR
 SOSCF                  CNVSOSCF        .... on
   Start iteration      SOSCFMaxIt      ....   150
   Startup grad/error   SOSCFStart      ....  0.003300
 Level Shifting         CNVShift        .... on
   Level shift para.    LevelShift      ....    0.2500
   Turn off err/grad.   ShiftErr        ....    0.0010
 Zerner damping         CNVZerner       .... off
 Static damping         CNVDamp         .... on
   Fraction old density DampFac         ....    0.7000
   Max. Damping (<1)    DampMax         ....    0.9800
   Min. Damping (>=0)   DampMin         ....    0.0000
   Turn off err/grad.   DampErr         ....    0.1000
 Fernandez-Rico         CNVRico         .... off

SCF Procedure:
 Maximum # iterations   MaxIter         ....   125
 SCF integral mode      SCFMode         .... Direct
   Integral package                     .... SHARK and LIBINT hybrid scheme
 Reset frequency        DirectResetFreq ....    20
 Integral Threshold     Thresh          ....  2.500e-11 Eh
 Primitive CutOff       TCut            ....  2.500e-12 Eh

Convergence Tolerance:
 Convergence Check Mode ConvCheckMode   .... Total+1el-Energy
 Convergence forced     ConvForced      .... 1
 Energy Change          TolE            ....  1.000e-08 Eh
 1-El. energy change                    ....  1.000e-05 Eh
 Orbital Gradient       TolG            ....  1.000e-05
 Orbital Rotation angle TolX            ....  1.000e-05
 DIIS Error             TolErr          ....  5.000e-07


Diagonalization of the overlap matrix:
Smallest eigenvalue                        ... 3.271e-04
Time for diagonalization                   ...    0.001 sec
Threshold for overlap eigenvalues          ... 1.000e-08
Number of eigenvalues below threshold      ... 0
Time for construction of square roots      ...    0.001 sec
Total time needed                          ...    0.003 sec

---------------------
INITIAL GUESS: MOREAD
---------------------
Guess MOs are being read from file: ox_es1_A_orca0033.ges
Input Geometry matches current geometry (good)
Input basis set matches current basis set (good)
MOs were renormalized
MOs were reorthogonalized (Cholesky)
                      ------------------
                      INITIAL GUESS DONE (   0.0 sec)
                      ------------------
-------------------
DFT GRID GENERATION
-------------------

General Integration Accuracy     IntAcc      ... 4.388
Radial Grid Type                 RadialGrid  ... OptM3 with GC (2021)
Angular Grid (max. ang.)         AngularGrid ... 4 (Lebedev-302)
Angular grid pruning method      GridPruning ... 4 (adaptive)
Weight generation scheme         WeightScheme... Becke
Basis function cutoff            BFCut       ... 1.0000e-11
Integration weight cutoff        WCut        ... 1.0000e-14
Angular grids for H and He will be reduced by one unit
Partially contracted basis set               ... off
Rotationally invariant grid construction     ... off

Total number of grid points                  ...    31268
Total number of batches                      ...      492
Average number of points per batch           ...       63
Average number of grid points per atom       ...     4467
Time for grid setup =    0.120 sec

--------------------
COSX GRID GENERATION
--------------------

GRIDX 1
-------
General Integration Accuracy     IntAcc      ... 3.816
Radial Grid Type                 RadialGrid  ... OptM3 with GC (2021)
Angular Grid (max. ang.)         AngularGrid ... 1 (Lebedev-50)
Angular grid pruning method      GridPruning ... 4 (adaptive)
Weight generation scheme         WeightScheme... Becke
Basis function cutoff            BFCut       ... 1.0000e-11
Integration weight cutoff        WCut        ... 1.0000e-14
Angular grids for H and He will be reduced by one unit
Partially contracted basis set               ... on
Rotationally invariant grid construction     ... off

Total number of grid points                  ...     4036
Total number of batches                      ...       68
Average number of points per batch           ...       59
Average number of grid points per atom       ...      577
UseSFitting                                  ... on

GRIDX 2
-------
General Integration Accuracy     IntAcc      ... 4.020
Radial Grid Type                 RadialGrid  ... OptM3 with GC (2021)
Angular Grid (max. ang.)         AngularGrid ... 2 (Lebedev-110)
Angular grid pruning method      GridPruning ... 4 (adaptive)
Weight generation scheme         WeightScheme... Becke
Basis function cutoff            BFCut       ... 1.0000e-11
Integration weight cutoff        WCut        ... 1.0000e-14
Angular grids for H and He will be reduced by one unit
Partially contracted basis set               ... on
Rotationally invariant grid construction     ... off

Total number of grid points                  ...     8714
Total number of batches                      ...      140
Average number of points per batch           ...       62
Average number of grid points per atom       ...     1245
UseSFitting                                  ... on

GRIDX 3
-------
General Integration Accuracy     IntAcc      ... 4.338
Radial Grid Type                 RadialGrid  ... OptM3 with GC (2021)
Angular Grid (max. ang.)         AngularGrid ... 3 (Lebedev-194)
Angular grid pruning method      GridPruning ... 4 (adaptive)
Weight generation scheme         WeightScheme... Becke
Basis function cutoff            BFCut       ... 1.0000e-11
Integration weight cutoff        WCut        ... 1.0000e-14
Angular grids for H and He will be reduced by one unit
Partially contracted basis set               ... on
Rotationally invariant grid construction     ... off

Total number of grid points                  ...    19229
Total number of batches                      ...      305
Average number of points per batch           ...       63
Average number of grid points per atom       ...     2747
UseSFitting                                  ... on

Time for X-Grid setup             =    0.074 sec

--------------
SCF ITERATIONS
--------------
ITER       Energy         Delta-E        Max-DP      RMS-DP      [F,P]     Damp
               ***  Starting incremental Fock matrix formation  ***
                      *** Initiating the SOSCF procedure ***
                      *** Re-Reading the Fockian *** 
                      *** Removing any level shift *** 
ITER      Energy       Delta-E        Grad      Rot      Max-DP    RMS-DP
  0   -153.65857892 -153.6585789217  0.000000  0.000000  0.000001  0.000000
               *** Restarting incremental Fock matrix formation ***
                 **** Energy Check signals convergence ****
              ***Rediagonalizing the Fockian in SOSCF/NRSCF***

               *****************************************************
               *                     SUCCESS                       *
               *           SCF CONVERGED AFTER   1 CYCLES          *
               *****************************************************

Old exchange energy                            =     -5.007456523 Eh
New exchange energy                            =     -5.007444277 Eh
Exchange energy change after final integration =      0.000012246 Eh
Total energy after final integration           =   -153.658566676 Eh
Final COS-X integration done in                =     0.269 sec

----------------
TOTAL SCF ENERGY
----------------

Total Energy       :         -153.65856668 Eh           -4181.26217 eV

Components:
Nuclear Repulsion  :           75.13976798 Eh            2044.65704 eV
Electronic Energy  :         -228.79833466 Eh           -6225.91921 eV
One Electron Energy:         -356.97668806 Eh           -9713.82952 eV
Two Electron Energy:          128.17835341 Eh            3487.91032 eV
Max COSX asymmetry :            0.00000228 Eh               0.00006 eV

Virial components:
Potential Energy   :         -306.81356499 Eh           -8348.82155 eV
Kinetic Energy     :          153.15499831 Eh            4167.55938 eV
Virial Ratio       :            2.00328797


DFT components:
N(Alpha)           :       11.999998716774 electrons
N(Beta)            :       11.999998716774 electrons
N(Total)           :       23.999997433549 electrons
E(X)               :      -14.991578796086 Eh       
E(C)               :       -0.790692595473 Eh       
E(XC)              :      -15.782271391559 Eh       
DFET-embed. en.    :        0.000000000000 Eh       

---------------
SCF CONVERGENCE
---------------

  Last Energy change         ...   -8.3560e-12  Tolerance :   1.0000e-08
  Last MAX-Density change    ...    8.8818e-16  Tolerance :   1.0000e-07
  Last RMS-Density change    ...    2.4097e-17  Tolerance :   5.0000e-09
  Last Orbital Gradient      ...    2.5485e-07  Tolerance :   1.0000e-05
  Last Orbital Rotation      ...    4.7447e-07  Tolerance :   1.0000e-05

             **** THE GBW FILE WAS UPDATED (ox_es1_A_orca0033.gbw) ****
             **** DENSITY ox_es1_A_orca0033.scfp WAS UPDATED ****
             **** ENERGY FILE WAS UPDATED (ox_es1_A_orca0033.en.tmp) ****
             **** THE GBW FILE WAS UPDATED (ox_es1_A_orca0033.gbw) ****
             **** DENSITY ox_es1_A_orca0033.scfp WAS UPDATED ****
----------------
ORBITAL ENERGIES
----------------

  NO   OCC          E(Eh)            E(eV) 
   0   2.0000     -19.218108      -522.9513 
   1   2.0000     -10.269342      -279.4430 
   2   2.0000     -10.264334      -279.3067 
   3   2.0000      -1.079032       -29.3619 
   4   2.0000      -0.720145       -19.5961 
   5   2.0000      -0.659326       -17.9412 
   6   2.0000      -0.535789       -14.5795 
   7   2.0000      -0.501800       -13.6547 
   8   2.0000      -0.411469       -11.1966 
   9   2.0000      -0.387232       -10.5371 
  10   2.0000      -0.342707        -9.3255 
  11   2.0000      -0.287112        -7.8127 
  12   0.0000       0.059183         1.6104 
  13   0.0000       0.070924         1.9299 
  14   0.0000       0.085784         2.3343 
  15   0.0000       0.099820         2.7162 
  16   0.0000       0.106598         2.9007 
  17   0.0000       0.159273         4.3340 
  18   0.0000       0.186476         5.0743 
  19   0.0000       0.219908         5.9840 
  20   0.0000       0.268280         7.3003 
  21   0.0000       0.270102         7.3498 
  22   0.0000       0.294587         8.0161 
  23   0.0000       0.309469         8.4211 
  24   0.0000       0.399946        10.8831 
  25   0.0000       0.410447        11.1688 
  26   0.0000       0.416000        11.3199 
  27   0.0000       0.439386        11.9563 
  28   0.0000       0.457654        12.4534 
  29   0.0000       0.479473        13.0471 
  30   0.0000       0.518180        14.1004 
  31   0.0000       0.523825        14.2540 
  32   0.0000       0.558233        15.1903 
  33   0.0000       0.684880        18.6365 
  34   0.0000       0.711171        19.3520 
  35   0.0000       0.741582        20.1795 
  36   0.0000       0.825438        22.4613 
  37   0.0000       0.863045        23.4847 
  38   0.0000       0.876285        23.8449 
  39   0.0000       0.938802        25.5461 
  40   0.0000       1.008171        27.4337 
  41   0.0000       1.032124        28.0855 
  42   0.0000       1.082235        29.4491 
  43   0.0000       1.090466        29.6731 
  44   0.0000       1.178519        32.0691 
  45   0.0000       1.347859        36.6771 
  46   0.0000       1.470476        40.0137 
  47   0.0000       1.478358        40.2282 
  48   0.0000       1.507229        41.0138 
  49   0.0000       1.518753        41.3274 
  50   0.0000       1.597113        43.4596 
  51   0.0000       1.651878        44.9499 
  52   0.0000       1.663197        45.2579 
  53   0.0000       1.736757        47.2596 
  54   0.0000       1.798905        48.9507 
  55   0.0000       1.812314        49.3156 
  56   0.0000       1.843100        50.1533 
  57   0.0000       1.882899        51.2363 
  58   0.0000       1.921697        52.2920 
  59   0.0000       1.979208        53.8570 
  60   0.0000       2.164381        58.8958 
  61   0.0000       2.174357        59.1673 
  62   0.0000       2.204793        59.9955 
  63   0.0000       2.266761        61.6817 
  64   0.0000       2.281688        62.0879 
  65   0.0000       2.448587        66.6294 
  66   0.0000       2.455736        66.8240 
  67   0.0000       2.528708        68.8096 
  68   0.0000       2.552658        69.4614 
  69   0.0000       2.638219        71.7896 
  70   0.0000       2.648217        72.0616 
  71   0.0000       2.666817        72.5678 
  72   0.0000       2.703305        73.5607 
  73   0.0000       2.733768        74.3896 
  74   0.0000       2.766227        75.2729 
  75   0.0000       2.794751        76.0490 
  76   0.0000       2.891653        78.6859 
  77   0.0000       2.945444        80.1496 
  78   0.0000       2.982398        81.1552 
  79   0.0000       3.003085        81.7181 
  80   0.0000       3.040007        82.7228 
  81   0.0000       3.142087        85.5005 
  82   0.0000       3.169720        86.2525 
  83   0.0000       3.241155        88.1963 
  84   0.0000       3.289333        89.5073 
  85   0.0000       3.361412        91.4687 
  86   0.0000       3.402155        92.5773 
  87   0.0000       3.445448        93.7554 
  88   0.0000       3.605777        98.1182 
  89   0.0000       3.625461        98.6538 
  90   0.0000       3.673477        99.9604 
  91   0.0000       3.710936       100.9797 
  92   0.0000       3.950467       107.4977 
  93   0.0000       4.039733       109.9267 
  94   0.0000       4.150243       112.9338 
  95   0.0000       4.216519       114.7373 
  96   0.0000       4.335731       117.9812 
  97   0.0000       4.366615       118.8216 
  98   0.0000       4.475280       121.7786 
  99   0.0000       4.595313       125.0448 
 100   0.0000       4.769177       129.7759 
 101   0.0000       4.846593       131.8825 
 102   0.0000       5.273083       143.4879 
 103   0.0000       5.416166       147.3814 
 104   0.0000       5.640822       153.4946 
 105   0.0000       5.699462       155.0902 
 106   0.0000       5.732976       156.0022 
 107   0.0000       5.829810       158.6372 
 108   0.0000       5.988793       162.9634 
 109   0.0000       6.558132       178.4558 
 110   0.0000       6.597261       179.5206 
 111   0.0000       6.784612       184.6187 
 112   0.0000       6.968090       189.6114 
 113   0.0000       7.183251       195.4662 
 114   0.0000      22.389370       609.2457 
 115   0.0000      22.569551       614.1487 
 116   0.0000      43.823346      1192.4939 

                    ********************************
                    * MULLIKEN POPULATION ANALYSIS *
                    ********************************

-----------------------
MULLIKEN ATOMIC CHARGES
-----------------------
   0 O :   -0.334760
   1 C :   -0.088374
   2 C :   -0.048127
   3 H :    0.122554
   4 H :    0.113564
   5 H :    0.114740
   6 H :    0.120404
Sum of atomic charges:   -0.0000000

--------------------------------
MULLIKEN REDUCED ORBITAL CHARGES
--------------------------------
  0 O s       :     3.872426  s :     3.872426
      pz      :     1.865532  p :     4.422399
      px      :     1.340884
      py      :     1.215983
      dz2     :     0.005405  d :     0.037981
      dxz     :     0.002197
      dyz     :     0.005933
      dx2y2   :     0.011021
      dxy     :     0.013425
      f0      :     0.000218  f :     0.001954
      f+1     :     0.000161
      f-1     :     0.000441
      f+2     :     0.000090
      f-2     :     0.000172
      f+3     :     0.000372
      f-3     :     0.000499
  1 C s       :     3.213201  s :     3.213201
      pz      :     1.063999  p :     2.763046
      px      :     0.923321
      py      :     0.775727
      dz2     :     0.004771  d :     0.101445
      dxz     :     0.024355
      dyz     :     0.026338
      dx2y2   :     0.025581
      dxy     :     0.020398
      f0      :     0.001241  f :     0.010682
      f+1     :     0.001221
      f-1     :     0.000595
      f+2     :     0.001517
      f-2     :     0.001356
      f+3     :     0.002037
      f-3     :     0.002715
  2 C s       :     3.210135  s :     3.210135
      pz      :     1.043437  p :     2.711549
      px      :     0.908134
      py      :     0.759977
      dz2     :     0.006943  d :     0.115070
      dxz     :     0.025206
      dyz     :     0.031422
      dx2y2   :     0.029696
      dxy     :     0.021803
      f0      :     0.001736  f :     0.011373
      f+1     :     0.001310
      f-1     :     0.000568
      f+2     :     0.001460
      f-2     :     0.001466
      f+3     :     0.001789
      f-3     :     0.003043
  3 H s       :     0.854036  s :     0.854036
      pz      :     0.010259  p :     0.023410
      px      :     0.008402
      py      :     0.004749
  4 H s       :     0.863871  s :     0.863871
      pz      :     0.011025  p :     0.022565
      px      :     0.007021
      py      :     0.004519
  5 H s       :     0.862838  s :     0.862838
      pz      :     0.012283  p :     0.022422
      px      :     0.005684
      py      :     0.004455
  6 H s       :     0.857769  s :     0.857769
      pz      :     0.010898  p :     0.021827
      px      :     0.006839
      py      :     0.004091


                     *******************************
                     * LOEWDIN POPULATION ANALYSIS *
                     *******************************

----------------------
LOEWDIN ATOMIC CHARGES
----------------------
   0 O :    0.070542
   1 C :   -0.233786
   2 C :   -0.283904
   3 H :    0.100512
   4 H :    0.111110
   5 H :    0.121143
   6 H :    0.114383

-------------------------------
LOEWDIN REDUCED ORBITAL CHARGES
-------------------------------
  0 O s       :     3.434622  s :     3.434622
      pz      :     1.761518  p :     4.410125
      px      :     1.326030
      py      :     1.322577
      dz2     :     0.011079  d :     0.079277
      dxz     :     0.006206
      dyz     :     0.012799
      dx2y2   :     0.027565
      dxy     :     0.021628
      f0      :     0.000504  f :     0.005435
      f+1     :     0.000193
      f-1     :     0.000858
      f+2     :     0.000191
      f-2     :     0.000722
      f+3     :     0.001007
      f-3     :     0.001960
  1 C s       :     2.799218  s :     2.799218
      pz      :     1.072199  p :     2.923603
      px      :     1.051547
      py      :     0.799857
      dz2     :     0.046707  d :     0.447389
      dxz     :     0.134883
      dyz     :     0.072522
      dx2y2   :     0.098936
      dxy     :     0.094341
      f0      :     0.007238  f :     0.063576
      f+1     :     0.005665
      f-1     :     0.005354
      f+2     :     0.008807
      f-2     :     0.005262
      f+3     :     0.013106
      f-3     :     0.018144
  2 C s       :     2.813583  s :     2.813583
      pz      :     1.047978  p :     2.905593
      px      :     1.045706
      py      :     0.811909
      dz2     :     0.059458  d :     0.490008
      dxz     :     0.131321
      dyz     :     0.082677
      dx2y2   :     0.112608
      dxy     :     0.103945
      f0      :     0.011229  f :     0.074720
      f+1     :     0.005818
      f-1     :     0.005931
      f+2     :     0.009349
      f-2     :     0.006205
      f+3     :     0.014539
      f-3     :     0.021649
  3 H s       :     0.825535  s :     0.825535
      pz      :     0.034138  p :     0.073953
      px      :     0.024347
      py      :     0.015467
  4 H s       :     0.820852  s :     0.820852
      pz      :     0.034242  p :     0.068038
      px      :     0.019697
      py      :     0.014099
  5 H s       :     0.814066  s :     0.814066
      pz      :     0.035797  p :     0.064791
      px      :     0.015971
      py      :     0.013023
  6 H s       :     0.820837  s :     0.820837
      pz      :     0.033209  p :     0.064780
      px      :     0.019072
      py      :     0.012499


                      *****************************
                      * MAYER POPULATION ANALYSIS *
                      *****************************

  NA   - Mulliken gross atomic population
  ZA   - Total nuclear charge
  QA   - Mulliken gross atomic charge
  VA   - Mayer's total valence
  BVA  - Mayer's bonded valence
  FA   - Mayer's free valence

  ATOM       NA         ZA         QA         VA         BVA        FA
  0 O      8.3348     8.0000    -0.3348     1.9690     1.9690    -0.0000
  1 C      6.0884     6.0000    -0.0884     3.9838     3.9838    -0.0000
  2 C      6.0481     6.0000    -0.0481     3.9904     3.9904    -0.0000
  3 H      0.8774     1.0000     0.1226     0.9583     0.9583    -0.0000
  4 H      0.8864     1.0000     0.1136     0.9607     0.9607    -0.0000
  5 H      0.8853     1.0000     0.1147     0.9662     0.9662    -0.0000
  6 H      0.8796     1.0000     0.1204     0.9579     0.9579    -0.0000

  Mayer bond orders larger than 0.100000
B(  0-O ,  1-C ) :   0.9785 B(  0-O ,  2-C ) :   0.9829 B(  1-C ,  2-C ) :   1.0767 
B(  1-C ,  3-H ) :   0.9592 B(  1-C ,  4-H ) :   0.9590 B(  2-C ,  5-H ) :   0.9675 
B(  2-C ,  6-H ) :   0.9493 

-------
TIMINGS
-------

Total SCF time: 0 days 0 hours 0 min 1 sec 

Total time                  ....       1.029 sec
Sum of individual times     ....       0.936 sec  ( 91.0%)

Fock matrix formation       ....       0.724 sec  ( 70.3%)
  Split-RI-J                ....       0.116 sec  ( 16.0% of F)
  Chain of spheres X        ....       0.541 sec  ( 74.8% of F)
  XC integration            ....       0.065 sec  (  8.9% of F)
    Basis function eval.    ....       0.018 sec  ( 28.1% of XC)
    Density eval.           ....       0.014 sec  ( 21.6% of XC)
    XC-Functional eval.     ....       0.004 sec  (  5.8% of XC)
    XC-Potential eval.      ....       0.020 sec  ( 31.5% of XC)
Diagonalization             ....       0.002 sec  (  0.2%)
Density matrix formation    ....       0.000 sec  (  0.0%)
Population analysis         ....       0.004 sec  (  0.4%)
Initial guess               ....       0.008 sec  (  0.7%)
Orbital Transformation      ....       0.000 sec  (  0.0%)
Orbital Orthonormalization  ....       0.001 sec  (  0.1%)
DIIS solution               ....       0.001 sec  (  0.1%)
SOSCF solution              ....       0.002 sec  (  0.2%)
Grid generation             ....       0.195 sec  ( 18.9%)

Maximum memory used throughout the entire SCF-calculation: 61.1 MB


           ************************************************************
           *        Program running with 8 parallel MPI-processes     *
           *              working on a common directory               *
           ************************************************************
------------------------------------------------------------------------------
                        ORCA TD-DFT/TDA CALCULATION
------------------------------------------------------------------------------

Input orbitals are from        ... ox_es1_A_orca0033.gbw
CI-vector output               ... ox_es1_A_orca0033.cis
Tamm-Dancoff approximation     ... operative
CIS-Integral strategy          ... AO-integrals
Integral handling              ... AO integral Direct
Max. core memory used          ... 3000 MB
Reference state                ... RHF
Generation of triplets         ... off
Follow IRoot                   ... off
Number of operators            ... 1
Orbital ranges used for CIS calculation:
 Operator 0:  Orbitals   3... 11  to  12...116
XAS localization array:
 Operator 0:  Orbitals  -1... -1

-------------------
XC-INTEGRATION GRID
-------------------

General Integration Accuracy     IntAcc      ... 3.467
Radial Grid Type                 RadialGrid  ... OptM3 with GC (2021)
Angular Grid (max. ang.)         AngularGrid ... 1 (Lebedev-50)
Angular grid pruning method      GridPruning ... 4 (adaptive)
Weight generation scheme         WeightScheme... Becke
Basis function cutoff            BFCut       ... 1.0000e-11
Integration weight cutoff        WCut        ... 1.0000e-14
Angular grids for H and He will be reduced by one unit
Partially contracted basis set               ... off
Rotationally invariant grid construction     ... off

Total number of grid points                  ...     4538
Total number of batches                      ...       74
Average number of points per batch           ...       61
Average number of grid points per atom       ...      648

---------------------
COSX-INTEGRATION GRID
---------------------

General Integration Accuracy     IntAcc      ... 3.067
Radial Grid Type                 RadialGrid  ... OptM3 with GC (2021)
Angular Grid (max. ang.)         AngularGrid ... 1 (Lebedev-50)
Angular grid pruning method      GridPruning ... 4 (adaptive)
Weight generation scheme         WeightScheme... Becke
Basis function cutoff            BFCut       ... 1.0000e-11
Integration weight cutoff        WCut        ... 1.0000e-14
Angular grids for H and He will be reduced by one unit
Partially contracted basis set               ... on
Rotationally invariant grid construction     ... off

Total number of grid points                  ...     2085
Total number of batches                      ...       37
Average number of points per batch           ...       56
Average number of grid points per atom       ...      298

---------------
TD-DFT XC SETUP
---------------

DFT calculation                         ... on
Name of the grid file                   ... ox_es1_A_orca0033.grid_cis.tmp
Exchange functional (TD-DFT)            ... PBE
   PBE kappa parameter  XKappa (TD-DFT) ...  0.804000
   PBE mue parameter   XMuePBE (TD-DFT) ...  0.219520
Correlation functional (TD-DFT)         ... PBE
   PBE beta parameter CBetaPBE (TD-DFT) ...  0.066725
 LDA part of GGA corr.  LDAOpt (TD-DFT) ... PW91-LDA
Hybrid DFT                              ... on
   Exchange mixing (TD-DFT)             ...  0.250
   GGA exch. scaling (TD-DFT)           ...  0.750
   GGA corr. scaling (TD-DFT)           ...  1.000

Building densities             ... done
Calculating rho(r) on the grid ... done
Building xc-kernel on the grid ... done
                    *** TD-DFT CALCULATION INITIALIZED ***

------------------------
DAVIDSON-DIAGONALIZATION
------------------------

Dimension of the eigenvalue problem            ...    945
Number of roots to be determined               ...      1
Maximum size of the expansion space            ...     10
Maximum number of iterations                   ...    100
Convergence tolerance for the residual         ...    2.500e-07
Convergence tolerance for the energies         ...    2.500e-07
Orthogonality tolerance                        ...    1.000e-14
Level Shift                                    ...    0.000e+00
Constructing the preconditioner                ... o.k.
Building the initial guess                     ... o.k.
Number of trial vectors determined             ...     10


                       ****Iteration    0****

   Memory handling for direct AO based CIS:
   Memory per vector needed      ...     1 MB
   Memory needed                 ...     1 MB
   Memory available              ...  3000 MB
   Number of vectors per batch   ...  3000
   Number of batches             ...     1
   Time for densities:            0.001
   Time for RI-J (Direct):        0.016
   Time for K (COSX):             0.058
   Time for XC-Integration:       0.017
   Time for Sigma-Completion:     0.000
   Size of expansion space: 3
   Lowest Energy          :     0.276426179577
   Maximum Energy change  :     0.276426179577 (vector 0)
   Maximum residual norm  :     0.004611206275

                       ****Iteration    1****
   Time for densities:            0.000
   Time for RI-J (Direct):        0.013
   Time for K (COSX):             0.051
   Time for XC-Integration:       0.007
   Time for Sigma-Completion:     0.000
   Size of expansion space: 4
   Lowest Energy          :     0.272748244529
   Maximum Energy change  :     0.003677935047 (vector 0)
   Maximum residual norm  :     0.000651969168

                       ****Iteration    2****
   Time for densities:            0.000
   Time for RI-J (Direct):        0.013
   Time for K (COSX):             0.051
   Time for XC-Integration:       0.007
   Time for Sigma-Completion:     0.000
   Size of expansion space: 5
   Lowest Energy          :     0.272035329937
   Maximum Energy change  :     0.000712914593 (vector 0)
   Maximum residual norm  :     0.000148735698

                       ****Iteration    3****
   Time for densities:            0.000
   Time for RI-J (Direct):        0.013
   Time for K (COSX):             0.051
   Time for XC-Integration:       0.007
   Time for Sigma-Completion:     0.000
   Size of expansion space: 6
   Lowest Energy          :     0.271895916027
   Maximum Energy change  :     0.000139413910 (vector 0)
   Maximum residual norm  :     0.000012189282

                       ****Iteration    4****
   Time for densities:            0.000
   Time for RI-J (Direct):        0.013
   Time for K (COSX):             0.051
   Time for XC-Integration:       0.007
   Time for Sigma-Completion:     0.000
   Size of expansion space: 7
   Lowest Energy          :     0.271866456900
   Maximum Energy change  :     0.000029459127 (vector 0)
   Maximum residual norm  :     0.000005593292

                       ****Iteration    5****
   Time for densities:            0.000
   Time for RI-J (Direct):        0.013
   Time for K (COSX):             0.051
   Time for XC-Integration:       0.007
   Time for Sigma-Completion:     0.000
   Size of expansion space: 8
   Lowest Energy          :     0.271859732338
   Maximum Energy change  :     0.000006724562 (vector 0)
   Maximum residual norm  :     0.000000469554

                       ****Iteration    6****
   Time for densities:            0.000
   Time for RI-J (Direct):        0.013
   Time for K (COSX):             0.051
   Time for XC-Integration:       0.007
   Time for Sigma-Completion:     0.000
   Size of expansion space: 9
   Lowest Energy          :     0.271859099787
   Maximum Energy change  :     0.000000632551 (vector 0)
   Maximum residual norm  :     0.000000039214

      *** CONVERGENCE OF RESIDUAL NORM REACHED ***

Storing the converged CI vectors               ... ox_es1_A_orca0033.cis1

                 *** DAVIDSON DONE ***

Total time for solving the CIS problem:     0.526sec

------------------------------------
TD-DFT/TDA EXCITED STATES (SINGLETS)
------------------------------------

the weight of the individual excitations are printed if larger than 1.0e-02

STATE  1:  E=   0.271859 au      7.398 eV    59666.2 cm**-1 <S**2> =   0.000000
    11a ->  12a  :     0.903902 (c=  0.95073752)
    11a ->  13a  :     0.051359 (c= -0.22662558)
    11a ->  14a  :     0.020656 (c=  0.14372046)
    11a ->  15a  :     0.012239 (c=  0.11063149)


-----------------------------
TD-DFT/TDA-EXCITATION SPECTRA
-----------------------------

Center of mass = (  0.0199, -0.0785,  0.0420)
Calculating the Dipole integrals                  ... done
Transforming integrals                            ... done
Calculating the Linear Momentum integrals         ... done
Transforming integrals                            ... done
Calculating angular momentum integrals            ... done
Transforming integrals                            ... done

-----------------------------------------------------------------------------
         ABSORPTION SPECTRUM VIA TRANSITION ELECTRIC DIPOLE MOMENTS
-----------------------------------------------------------------------------
State   Energy    Wavelength  fosc         T2        TX        TY        TZ  
        (cm-1)      (nm)                 (au**2)    (au)      (au)      (au) 
-----------------------------------------------------------------------------
   1   59666.2    167.6   0.005453439   0.03009   0.00191  -0.00252  -0.17344

-----------------------------------------------------------------------------
         ABSORPTION SPECTRUM VIA TRANSITION VELOCITY DIPOLE MOMENTS
-----------------------------------------------------------------------------
State   Energy    Wavelength   fosc        P2         PX        PY        PZ  
        (cm-1)      (nm)                 (au**2)     (au)      (au)      (au) 
-----------------------------------------------------------------------------
   1   59666.2    167.6   0.024487420   0.00999  -0.00044   0.00701   0.09968

-------------------------------------------------------------------
                             CD SPECTRUM
-------------------------------------------------------------------
State  Energy     Wavelength     R         MX        MY        MZ   
       (cm-1)       (nm)     (1e40*cgs)   (au)      (au)      (au)  
-------------------------------------------------------------------
   1   59666.2    167.6     -0.00801  -0.22887  -0.13717  -0.00043

-------------------------------------------------------------------
         CD SPECTRUM VIA TRANSITION VELOCITY DIPOLE MOMENTS        
-------------------------------------------------------------------
State  Energy     Wavelength     R         MX        MY        MZ   
       (cm-1)       (nm)     (1e40*cgs)   (au)      (au)      (au)  
-------------------------------------------------------------------
   1   59666.2    167.6     -1.56932  -0.22887  -0.13717  -0.00043

Total run time:        0.804 sec

           *** ORCA-CIS/TD-DFT FINISHED WITHOUT ERROR ***

Maximum memory used throughout the entire CIS-calculation: 49.4 MB

-----------------------
CIS/TD-DFT TOTAL ENERGY
-----------------------

    E(SCF)  =   -153.658566676 Eh
    DE(CIS) =      0.271859100 Eh (Root  1)
    ----------------------------- ---------
    E(tot)  =   -153.386707576 Eh



-------------------------------------------------------------------------------
                          DFT DISPERSION CORRECTION                            
                                                                               
                              DFTD3 V3.1  Rev 1                                
                          USING Becke-Johnson damping                          
-------------------------------------------------------------------------------
The PBE0 functional is recognized
Active option DFTDOPT                   ...         4   

molecular C6(AA) [au] = 350.746075 


            DFT-D V3
 parameters
 s6 scaling factor         :     1.0000 
 a1 scaling factor         :     0.4145 
 s8 scaling factor         :     1.2177 
 a2 scaling factor         :     4.8593 
 ad hoc parameters k1-k3   :    16.0000     1.3333    -4.0000 

 Edisp/kcal,au: -1.516881820602  -0.002417304792 
 E6   /kcal   :  -0.995144279 
 E8   /kcal   :  -0.521737541 
 % E8         :  34.395398133 

-------------------------   ----------------
Dispersion correction           -0.002417305
-------------------------   ----------------


-------------------------   --------------------
FINAL SINGLE POINT ENERGY      -153.389124880937
-------------------------   --------------------



           ************************************************************
           *        Program running with 8 parallel MPI-processes     *
           *              working on a common directory               *
           ************************************************************
------------------------------------------------------------------------------
                         ORCA SCF GRADIENT CALCULATION
------------------------------------------------------------------------------


------------------------
TD-DFT GRADIENT XC SETUP
------------------------

Building densities                     ... done
Calculating rho(r) on the grid         ... done
Building xc-kernel on the grid         ... done
Building xc 3rd derivative on the grid      ... done
                *** TD-DFT GRADIENT CALCULATION INITIALIZED ***

-------------------
TD-DFT/TDA GRADIENT
-------------------

Reference wavefunction             ... RHF
State of interest                  ... 1
Basis dimension                    ... 117
DFT-XC contribution needed         ... YES
RI-approximation                   ... ON
CIS-vectors being read from        ... ox_es1_A_orca0033.cis

 => Number of Vectors found: 1
 => Orbital Window: 3...11 -> 12...116

Reading the CIS file                     ... done
Norm of the CI vector                    ... 1.000000000
Making the CIS (pseudo)densities         ... done
Making operators G(D) and Q(T)           ... done
Transforming the Fock operators          ... done
Making the frozen-core relaxed density   ... done
Constructing the G(H) operator           ... done
Transforming the G(H) operator           ... done
Calculating the CIS Lagrangian           ... done
Solving the Z-vector equations           ... done
Finalizing the relaxed density           ... done
Storing the relaxed density              ... done
Constructing the G(Z) operator           ... done
Transforming the G(Z) operator           ... done
Making the W-matrix                      ... done
Finalizing the W-matrix                  ... done
Transforming the W-matrix                ... done
Nuclear repulsion gradient               ... done
One-Electron gradient                    ... done
Dispersion correction                    ... done
Prescreening matrices                    ... done
COSX-gradient                            ... done
Coulomb gradient (RI)                    ... done
Exchange-Correlation gradient            ... done

                 ---------------------------
                 EXCITED STATE GRADIENT DONE
                 ---------------------------

------------------
CARTESIAN GRADIENT
------------------

   1   O   :   -0.078584472   -0.134776695    0.001924049
   2   C   :    0.034666042    0.127677554    0.017591394
   3   C   :    0.039410443   -0.002590242    0.002647548
   4   H   :    0.026776604    0.009790410   -0.053388842
   5   H   :    0.012066743   -0.001888754    0.030399736
   6   H   :   -0.019425299    0.005385700    0.012914668
   7   H   :   -0.014923418   -0.003667432   -0.012032084

Difference to translation invariance:
           :   -0.0000133562   -0.0000694579    0.0000564691

Difference to rotation invariance:
           :    0.0000094636   -0.0001563464    0.0001111281

Norm of the cartesian gradient     ...    0.2222930971
RMS gradient                       ...    0.0485083307
MAX gradient                       ...    0.1347766950

------------------------------------------------------------------------------
                  RELAXED CIS/TDA DENSITY POPULATION ANALYSIS
                                   IROOT 1
------------------------------------------------------------------------------
------------------------------------------------------------------------------
                           ORCA POPULATION ANALYSIS
------------------------------------------------------------------------------
Input electron density              ... ox_es1_A_orca0033.cisp
BaseName (.gbw .S,...)              ... ox_es1_A_orca0033

                    ********************************
                    * MULLIKEN POPULATION ANALYSIS *
                    ********************************

-----------------------
MULLIKEN ATOMIC CHARGES
-----------------------
   0 O :    0.193821
   1 C :   -0.701890
   2 C :   -0.173894
   3 H :    0.178876
   4 H :    0.177324
   5 H :    0.156264
   6 H :    0.169499
Sum of atomic charges:   -0.0000000

--------------------------------
MULLIKEN REDUCED ORBITAL CHARGES
--------------------------------
  0 O s       :     3.697242  s :     3.697242
      pz      :     1.082942  p :     4.075285
      px      :     1.532945
      py      :     1.459398
      dz2     :     0.002865  d :     0.032412
      dxz     :     0.002620
      dyz     :     0.005839
      dx2y2   :     0.009744
      dxy     :     0.011344
      f0      :     0.000068  f :     0.001240
      f+1     :    -0.000026
      f-1     :     0.000111
      f+2     :     0.000086
      f-2     :     0.000181
      f+3     :     0.000317
      f-3     :     0.000503
  1 C s       :     3.288585  s :     3.288585
      pz      :     1.101642  p :     3.320181
      px      :     0.887652
      py      :     1.330887
      dz2     :     0.004281  d :     0.083158
      dxz     :     0.017806
      dyz     :     0.005161
      dx2y2   :     0.033899
      dxy     :     0.022013
      f0      :     0.000839  f :     0.009966
      f+1     :     0.001160
      f-1     :     0.000821
      f+2     :     0.001097
      f-2     :     0.000904
      f+3     :     0.002820
      f-3     :     0.002325
  2 C s       :     3.225577  s :     3.225577
      pz      :     1.048604  p :     2.846519
      px      :     0.987508
      py      :     0.810407
      dz2     :     0.011309  d :     0.091683
      dxz     :     0.023177
      dyz     :     0.010517
      dx2y2   :     0.028146
      dxy     :     0.018534
      f0      :     0.001089  f :     0.010115
      f+1     :     0.001411
      f-1     :     0.000502
      f+2     :     0.000937
      f-2     :     0.000903
      f+3     :     0.002469
      f-3     :     0.002803
  3 H s       :     0.791736  s :     0.791736
      pz      :     0.009598  p :     0.029388
      px      :     0.008177
      py      :     0.011613
  4 H s       :     0.795614  s :     0.795614
      pz      :     0.010441  p :     0.027062
      px      :     0.007032
      py      :     0.009589
  5 H s       :     0.820532  s :     0.820532
      pz      :     0.013005  p :     0.023203
      px      :     0.006152
      py      :     0.004046
  6 H s       :     0.807459  s :     0.807459
      pz      :     0.011266  p :     0.023042
      px      :     0.007531
      py      :     0.004245


                     *******************************
                     * LOEWDIN POPULATION ANALYSIS *
                     *******************************

----------------------
LOEWDIN ATOMIC CHARGES
----------------------
   0 O :    0.371924
   1 C :   -0.575374
   2 C :   -0.322267
   3 H :    0.112224
   4 H :    0.128152
   5 H :    0.144748
   6 H :    0.140594

-------------------------------
LOEWDIN REDUCED ORBITAL CHARGES
-------------------------------
  0 O s       :     3.504458  s :     3.504458
      pz      :     1.034206  p :     4.027204
      px      :     1.494066
      py      :     1.498932
      dz2     :     0.013284  d :     0.091099
      dxz     :     0.007193
      dyz     :     0.013331
      dx2y2   :     0.031515
      dxy     :     0.025777
      f0      :     0.000531  f :     0.005314
      f+1     :     0.000090
      f-1     :     0.000745
      f+2     :     0.000192
      f-2     :     0.000770
      f+3     :     0.000960
      f-3     :     0.002026
  1 C s       :     2.810191  s :     2.810191
      pz      :     1.069032  p :     3.179710
      px      :     1.031823
      py      :     1.078855
      dz2     :     0.072229  d :     0.512363
      dxz     :     0.117587
      dyz     :     0.027848
      dx2y2   :     0.151098
      dxy     :     0.143601
      f0      :     0.005820  f :     0.073110
      f+1     :     0.006064
      f-1     :     0.008891
      f+2     :     0.006043
      f-2     :     0.003828
      f+3     :     0.024906
      f-3     :     0.017559
  2 C s       :     2.818798  s :     2.818798
      pz      :     1.031453  p :     2.976995
      px      :     1.097996
      py      :     0.847546
      dz2     :     0.073845  d :     0.450668
      dxz     :     0.122257
      dyz     :     0.035690
      dx2y2   :     0.118563
      dxy     :     0.100314
      f0      :     0.008454  f :     0.075805
      f+1     :     0.005955
      f-1     :     0.006674
      f+2     :     0.006657
      f-2     :     0.003982
      f+3     :     0.022937
      f-3     :     0.021146
  3 H s       :     0.799714  s :     0.799714
      pz      :     0.032985  p :     0.088062
      px      :     0.024279
      py      :     0.030798
  4 H s       :     0.792928  s :     0.792928
      pz      :     0.033306  p :     0.078921
      px      :     0.019804
      py      :     0.025811
  5 H s       :     0.788252  s :     0.788252
      pz      :     0.037623  p :     0.067000
      px      :     0.017550
      py      :     0.011827
  6 H s       :     0.791342  s :     0.791342
      pz      :     0.034430  p :     0.068064
      px      :     0.021456
      py      :     0.012178


                      *****************************
                      * MAYER POPULATION ANALYSIS *
                      *****************************

  NA   - Mulliken gross atomic population
  ZA   - Total nuclear charge
  QA   - Mulliken gross atomic charge
  VA   - Mayer's total valence
  BVA  - Mayer's bonded valence
  FA   - Mayer's free valence

  ATOM       NA         ZA         QA         VA         BVA        FA
  0 O      7.8062     8.0000     0.1938     1.6218     0.9239     0.6979
  1 C      6.7019     6.0000    -0.7019     4.1345     3.2499     0.8846
  2 C      6.1739     6.0000    -0.1739     4.0390     3.8262     0.2128
  3 H      0.8211     1.0000     0.1789     0.9828     0.9581     0.0248
  4 H      0.8227     1.0000     0.1773     0.9666     0.9474     0.0191
  5 H      0.8437     1.0000     0.1563     0.9680     0.9362     0.0318
  6 H      0.8305     1.0000     0.1695     0.9676     0.9449     0.0227

  Mayer bond orders larger than 0.100000
B(  0-O ,  1-C ) :   0.1319 B(  0-O ,  2-C ) :   0.7880 B(  1-C ,  2-C ) :   1.1979 
B(  1-C ,  3-H ) :   0.9540 B(  1-C ,  4-H ) :   0.9496 B(  2-C ,  5-H ) :   0.9236 
B(  2-C ,  6-H ) :   0.9247 


-------
TIMINGS
-------

Total TD-DFT gradient time         ...        5.354 sec

Fock matrix formation       ....       0.874 sec  ( 16.3%)
  Coulomb formation         ....       0.706 sec  ( 80.8% of F)
  RI-J                      ....       0.298 sec  ( 34.1% of F)
  Chain of spheres X        ....       0.407 sec  ( 46.6% of F)
  XC integration            ....       0.168 sec  ( 19.2% of F)
Z-vector equation           ....       1.425 sec  ( 26.6%)
One electron gradient       ....       0.035 sec  (  0.6%)
Prescreening matrices       ....       0.172 sec  (  3.2%)
RI-J Coulomb gradient       ....       0.283 sec  (  5.3%)
COSX gradient               ....       0.379 sec  (  7.1%)
XC gradient                 ....       1.847 sec  ( 34.5%)

Maximum memory used throughout the entire SCFGRAD-calculation: 130.3 MB

                            ***************************************
                            *     ORCA property calculations      *
                            ***************************************

                                    ---------------------
                                    Active property flags
                                    ---------------------
   (+) Dipole Moment


------------------------------------------------------------------------------
                       ORCA ELECTRIC PROPERTIES CALCULATION
------------------------------------------------------------------------------

Dipole Moment Calculation                       ... on
Quadrupole Moment Calculation                   ... off
Polarizability Calculation                      ... off
GBWName                                         ... ox_es1_A_orca0033.gbw
Electron density                                ... ox_es1_A_orca0033.scfp
The origin for moment calculation is the CENTER OF MASS  = ( 0.019851, -0.078547  0.041954)

-------------
DIPOLE MOMENT
-------------
                                X             Y             Z
Electronic contribution:      0.11103       1.55540       0.08953
Nuclear contribution   :     -0.14593      -2.41156      -0.04595
                        -----------------------------------------
Total Dipole Moment    :     -0.03490      -0.85616       0.04357
                        -----------------------------------------
Magnitude (a.u.)       :      0.85798
Magnitude (Debye)      :      2.18081



--------------------
Rotational spectrum 
--------------------
 
Rotational constants in cm-1:     0.831652     0.754085     0.463420 
Rotational constants in MHz : 24932.307912 22606.907746 13892.990602 

 Dipole components along the rotational axes: 
x,y,z [a.u.] :    -0.529106    -0.675365    -0.007648 
x,y,z [Debye]:    -1.344881    -1.716640    -0.019440 

 

                        *** CIS RELAXED DENSITY ***

------------------------------------------------------------------------------
                       ORCA ELECTRIC PROPERTIES CALCULATION
------------------------------------------------------------------------------

Dipole Moment Calculation                       ... on
Quadrupole Moment Calculation                   ... off
Polarizability Calculation                      ... off
GBWName                                         ... ox_es1_A_orca0033.gbw
Electron density                                ... ox_es1_A_orca0033.cisp
The origin for moment calculation is the CENTER OF MASS  = ( 0.019851, -0.078547  0.041954)

-------------
DIPOLE MOMENT
-------------
                                X             Y             Z
Electronic contribution:      0.73528       2.35592       0.04841
Nuclear contribution   :     -0.14593      -2.41156      -0.04595
                        -----------------------------------------
Total Dipole Moment    :      0.58935      -0.05564       0.00245
                        -----------------------------------------
Magnitude (a.u.)       :      0.59198
Magnitude (Debye)      :      1.50469



--------------------
Rotational spectrum 
--------------------
 
Rotational constants in cm-1:     0.831652     0.754085     0.463420 
Rotational constants in MHz : 24932.307912 22606.907746 13892.990602 

 Dipole components along the rotational axes: 
x,y,z [a.u.] :     0.445808    -0.389413    -0.007085 
x,y,z [Debye]:     1.133153    -0.989809    -0.018010 

 

Timings for individual modules:

Sum of individual times         ...        8.134 sec (=   0.136 min)
GTO integral calculation        ...        0.309 sec (=   0.005 min)   3.8 %
SCF iterations                  ...        1.229 sec (=   0.020 min)  15.1 %
CIS module                      ...        1.039 sec (=   0.017 min)  12.8 %
SCF Gradient evaluation         ...        5.557 sec (=   0.093 min)  68.3 %
                             ****ORCA TERMINATED NORMALLY****
TOTAL RUN TIME: 0 days 0 hours 0 minutes 8 seconds 528 msec
