
                                 *****************
                                 * O   R   C   A *
                                 *****************

                                            #,                                       
                                            ###                                      
                                            ####                                     
                                            #####                                    
                                            ######                                   
                                           ########,                                 
                                     ,,################,,,,,                         
                               ,,#################################,,                 
                          ,,##########################################,,             
                       ,#########################################, ''#####,          
                    ,#############################################,,   '####,        
                  ,##################################################,,,,####,       
                ,###########''''           ''''###############################       
              ,#####''   ,,,,##########,,,,          '''####'''          '####       
            ,##' ,,,,###########################,,,                        '##       
           ' ,,###''''                  '''############,,,                           
         ,,##''                                '''############,,,,        ,,,,,,###''
      ,#''                                            '''#######################'''  
     '                                                          ''''####''''         
             ,#######,   #######,   ,#######,      ##                                
            ,#'     '#,  ##    ##  ,#'     '#,    #''#        ######   ,####,        
            ##       ##  ##   ,#'  ##            #'  '#       #        #'  '#        
            ##       ##  #######   ##           ,######,      #####,   #    #        
            '#,     ,#'  ##    ##  '#,     ,#' ,#      #,         ##   #,  ,#        
             '#######'   ##     ##  '#######'  #'      '#     #####' # '####'        



                  #######################################################
                  #                        -***-                        #
                  #          Department of theory and spectroscopy      #
                  #    Directorship and core code : Frank Neese         #
                  #        Max Planck Institute fuer Kohlenforschung    #
                  #                Kaiser Wilhelm Platz 1               #
                  #                 D-45470 Muelheim/Ruhr               #
                  #                      Germany                        #
                  #                                                     #
                  #                  All rights reserved                #
                  #                        -***-                        #
                  #######################################################


                         Program Version 5.0.2 -  RELEASE  -


 With contributions from (in alphabetic order):
   Daniel Aravena         : Magnetic Suceptibility
   Michael Atanasov       : Ab Initio Ligand Field Theory (pilot matlab implementation)
   Alexander A. Auer      : GIAO ZORA, VPT2 properties, NMR spectrum
   Ute Becker             : Parallelization
   Giovanni Bistoni       : ED, misc. LED, open-shell LED, HFLD
   Martin Brehm           : Molecular dynamics
   Dmytro Bykov           : SCF Hessian
   Vijay G. Chilkuri      : MRCI spin determinant printing, contributions to CSF-ICE
   Dipayan Datta          : RHF DLPNO-CCSD density
   Achintya Kumar Dutta   : EOM-CC, STEOM-CC
   Dmitry Ganyushin       : Spin-Orbit,Spin-Spin,Magnetic field MRCI
   Miquel Garcia          : C-PCM and meta-GGA Hessian, CC/C-PCM, Gaussian charge scheme
   Yang Guo               : DLPNO-NEVPT2, F12-NEVPT2, CIM, IAO-localization
   Andreas Hansen         : Spin unrestricted coupled pair/coupled cluster methods
   Benjamin Helmich-Paris : MC-RPA, TRAH-SCF, COSX integrals
   Lee Huntington         : MR-EOM, pCC
   Robert Izsak           : Overlap fitted RIJCOSX, COSX-SCS-MP3, EOM
   Marcus Kettner         : VPT2
   Christian Kollmar      : KDIIS, OOCD, Brueckner-CCSD(T), CCSD density, CASPT2, CASPT2-K
   Simone Kossmann        : Meta GGA functionals, TD-DFT gradient, OOMP2, MP2 Hessian
   Martin Krupicka        : Initial AUTO-CI
   Lucas Lang             : DCDCAS
   Marvin Lechner         : AUTO-CI (C++ implementation), FIC-MRCC
   Dagmar Lenk            : GEPOL surface, SMD
   Dimitrios Liakos       : Extrapolation schemes; Compound Job, initial MDCI parallelization
   Dimitrios Manganas     : Further ROCIS development; embedding schemes
   Dimitrios Pantazis     : SARC Basis sets
   Anastasios Papadopoulos: AUTO-CI, single reference methods and gradients
   Taras Petrenko         : DFT Hessian,TD-DFT gradient, ASA, ECA, R-Raman, ABS, FL, XAS/XES, NRVS
   Peter Pinski           : DLPNO-MP2, DLPNO-MP2 Gradient
   Christoph Reimann      : Effective Core Potentials
   Marius Retegan         : Local ZFS, SOC
   Christoph Riplinger    : Optimizer, TS searches, QM/MM, DLPNO-CCSD(T), (RO)-DLPNO pert. Triples
   Tobias Risthaus        : Range-separated hybrids, TD-DFT gradient, RPA, STAB
   Michael Roemelt        : Original ROCIS implementation
   Masaaki Saitow         : Open-shell DLPNO-CCSD energy and density
   Barbara Sandhoefer     : DKH picture change effects
   Avijit Sen             : IP-ROCIS
   Kantharuban Sivalingam : CASSCF convergence, NEVPT2, FIC-MRCI
   Bernardo de Souza      : ESD, SOC TD-DFT
   Georgi Stoychev        : AutoAux, RI-MP2 NMR, DLPNO-MP2 response
   Willem Van den Heuvel  : Paramagnetic NMR
   Boris Wezisla          : Elementary symmetry handling
   Frank Wennmohs         : Technical directorship


 We gratefully acknowledge several colleagues who have allowed us to
 interface, adapt or use parts of their codes:
   Stefan Grimme, W. Hujo, H. Kruse, P. Pracht,  : VdW corrections, initial TS optimization,
                  C. Bannwarth, S. Ehlert          DFT functionals, gCP, sTDA/sTD-DF
   Ed Valeev, F. Pavosevic, A. Kumar             : LibInt (2-el integral package), F12 methods
   Garnet Chan, S. Sharma, J. Yang, R. Olivares  : DMRG
   Ulf Ekstrom                                   : XCFun DFT Library
   Mihaly Kallay                                 : mrcc  (arbitrary order and MRCC methods)
   Jiri Pittner, Ondrej Demel                    : Mk-CCSD
   Frank Weinhold                                : gennbo (NPA and NBO analysis)
   Christopher J. Cramer and Donald G. Truhlar   : smd solvation model
   Lars Goerigk                                  : TD-DFT with DH, B97 family of functionals
   V. Asgeirsson, H. Jonsson                     : NEB implementation
   FAccTs GmbH                                   : IRC, NEB, NEB-TS, DLPNO-Multilevel, CI-OPT
                                                   MM, QMMM, 2- and 3-layer-ONIOM, Crystal-QMMM,
                                                   LR-CPCM, SF, NACMEs, symmetry and pop. for TD-DFT,
                                                   nearIR, NL-DFT gradient (VV10), updates on ESD,
                                                   ML-optimized integration grids
   S Lehtola, MJT Oliveira, MAL Marques          : LibXC Library
   Liviu Ungur et al                             : ANISO software


 Your calculation uses the libint2 library for the computation of 2-el integrals
 For citations please refer to: http://libint.valeyev.net

 Your ORCA version has been built with support for libXC version: 5.1.0
 For citations please refer to: https://tddft.org/programs/libxc/

 This ORCA versions uses:
   CBLAS   interface :  Fast vector & matrix operations
   LAPACKE interface :  Fast linear algebra routines
   SCALAPACK package :  Parallel linear algebra routines
   Shared memory     :  Shared parallel matrices
   BLAS/LAPACK       :  OpenBLAS 0.3.15  USE64BITINT DYNAMIC_ARCH NO_AFFINITY SkylakeX SINGLE_THREADED
        Core in use  :  SkylakeX
   Copyright (c) 2011-2014, The OpenBLAS Project


Your calculation utilizes the atom-pairwise dispersion correction
with the Becke-Johnson damping scheme (D3BJ)
Cite in your paper:
S.Grimme, S.Ehrlich, L.Goerigk, J Comput Chem, (2011), 32, 1456–1465 
S.Grimme, J.Antony, S.Ehrlich and H.Krieg, J.Chem.Phys., 132, (2010), 154104 
   

================================================================================

----- Orbital basis set information -----
Your calculation utilizes the basis: def2-TZVP
   F. Weigend and R. Ahlrichs, Phys. Chem. Chem. Phys. 7, 3297 (2005).

----- AuxJ basis set information -----
Your calculation utilizes the auxiliary basis: def2/J
   F. Weigend, Phys. Chem. Chem. Phys. 8, 1057 (2006).

================================================================================
                                        WARNINGS
                       Please study these warnings very carefully!
================================================================================

INFO   : Checking CIS options ...

WARNING: CIS/ROCIS methods need fully converged wavefunctions
  ===> : Setting SCFConvForced true
         You can overwrite this default with %scf ConvForced false 


INFO   : the flag for use of the SHARK integral package has been found!

================================================================================
                                       INPUT FILE
================================================================================
NAME = ox_es1_A_orca0039.inp
|  1> ! engrad PBE0 D3BJ def2-TZVP  
|  2> %pal nprocs 8 end
|  3> %maxcore 3000
|  4> 
|  5> %tddft
|  6>   nroots 1
|  7>   tda true
|  8>   Iroot 1
|  9>   end 
| 10> *xyz 0 1 
| 11> O   0.05327406875326757 0.7410598874949814 0.07046748200927899
| 12> C   -0.6139446838190374 -0.46516241802198294 -0.022275126070038592
| 13> C   0.801558763855885 -0.3680418827134644 -0.026143001357663415
| 14> H   -1.2848322708547928 -0.6823600404430253 0.8527536944482862
| 15> H   -1.30975536732421 -0.7184779483376035 -0.9583660982552065
| 16> H   1.2620885756306608 -0.6565601233731739 -0.8424511953592961
| 17> H   1.2139051679630606 -0.6190546900761708 0.9092767277887245
| 18> *
| 19> 
| 20>                          ****END OF INPUT****
================================================================================

                     *******************************
                     * Energy+Gradient Calculation *
                     *******************************

---------------------------------
CARTESIAN COORDINATES (ANGSTROEM)
---------------------------------
  O      0.053274    0.741060    0.070467
  C     -0.613945   -0.465162   -0.022275
  C      0.801559   -0.368042   -0.026143
  H     -1.284832   -0.682360    0.852754
  H     -1.309755   -0.718478   -0.958366
  H      1.262089   -0.656560   -0.842451
  H      1.213905   -0.619055    0.909277

----------------------------
CARTESIAN COORDINATES (A.U.)
----------------------------
  NO LB      ZA    FRAG     MASS         X           Y           Z
   0 O     8.0000    0    15.999    0.100673    1.400400    0.133164
   1 C     6.0000    0    12.011   -1.160187   -0.879030   -0.042094
   2 C     6.0000    0    12.011    1.514727   -0.695498   -0.049403
   3 H     1.0000    0     1.008   -2.427981   -1.289474    1.611471
   4 H     1.0000    0     1.008   -2.475079   -1.357727   -1.811049
   5 H     1.0000    0     1.008    2.385002   -1.240719   -1.592002
   6 H     1.0000    0     1.008    2.293948   -1.169844    1.718284

--------------------------------
INTERNAL COORDINATES (ANGSTROEM)
--------------------------------
 O      0   0   0     0.000000000000     0.00000000     0.00000000
 C      1   0   0     1.381576746136     0.00000000     0.00000000
 C      1   2   0     1.341406093284    62.78629008     0.00000000
 H      2   1   3     1.123806210324   113.87708265   120.63705378
 H      2   1   3     1.193560879631   121.29769773   244.19395359
 H      3   1   2     0.980657713130   124.41456034   103.59992723
 H      3   1   2     1.052638141109   110.59020944   255.99522227

---------------------------
INTERNAL COORDINATES (A.U.)
---------------------------
 O      0   0   0     0.000000000000     0.00000000     0.00000000
 C      1   0   0     2.610801683191     0.00000000     0.00000000
 C      1   2   0     2.534890150681    62.78629008     0.00000000
 H      2   1   3     2.123685965111   113.87708265   120.63705378
 H      2   1   3     2.255503186665   121.29769773   244.19395359
 H      3   1   2     1.853174508933   124.41456034   103.59992723
 H      3   1   2     1.989197804815   110.59020944   255.99522227

---------------------
BASIS SET INFORMATION
---------------------
There are 3 groups of distinct atoms

 Group   1 Type O   : 11s6p2d1f contracted to 5s3p2d1f pattern {62111/411/11/1}
 Group   2 Type C   : 11s6p2d1f contracted to 5s3p2d1f pattern {62111/411/11/1}
 Group   3 Type H   : 5s1p contracted to 3s1p pattern {311/1}

Atom   0O    basis set group =>   1
Atom   1C    basis set group =>   2
Atom   2C    basis set group =>   2
Atom   3H    basis set group =>   3
Atom   4H    basis set group =>   3
Atom   5H    basis set group =>   3
Atom   6H    basis set group =>   3
---------------------------------
AUXILIARY/J BASIS SET INFORMATION
---------------------------------
There are 3 groups of distinct atoms

 Group   1 Type O   : 12s5p4d2f1g contracted to 6s4p3d1f1g pattern {711111/2111/211/2/1}
 Group   2 Type C   : 12s5p4d2f1g contracted to 6s4p3d1f1g pattern {711111/2111/211/2/1}
 Group   3 Type H   : 5s2p1d contracted to 3s1p1d pattern {311/2/1}

Atom   0O    basis set group =>   1
Atom   1C    basis set group =>   2
Atom   2C    basis set group =>   2
Atom   3H    basis set group =>   3
Atom   4H    basis set group =>   3
Atom   5H    basis set group =>   3
Atom   6H    basis set group =>   3

Checking for AutoStart:
The File: ox_es1_A_orca0039.gbw exists
Trying to determine its content:
     ... Fine, the file contains calculation information
     ... Fine, the calculation information was read
     ... Fine, the file contains a basis set
     ... Fine, the basis set was read
     ... Fine, the file contains a geometry
     ... Fine, the geometry was read
     ... Fine, the file contains a set of orbitals
     ... Fine, the orbitals can be read
     => possible old guess file was deleted
     => GBW file was renamed to GES file
     => GES file is set as startup file
     => Guess is set to MORead
     ... now leaving AutoStart



           ************************************************************
           *        Program running with 8 parallel MPI-processes     *
           *              working on a common directory               *
           ************************************************************
------------------------------------------------------------------------------
                           ORCA GTO INTEGRAL CALCULATION
                           -- RI-GTO INTEGRALS CHOSEN --
------------------------------------------------------------------------------
------------------------------------------------------------------------------
                   ___                                                        
                  /   \      - P O W E R E D   B Y -                         
                 /     \                                                     
                 |  |  |   _    _      __       _____    __    __             
                 |  |  |  | |  | |    /  \     |  _  \  |  |  /  |          
                  \  \/   | |  | |   /    \    | | | |  |  | /  /          
                 / \  \   | |__| |  /  /\  \   | |_| |  |  |/  /          
                |  |  |   |  __  | /  /__\  \  |    /   |      \           
                |  |  |   | |  | | |   __   |  |    \   |  |\   \          
                \     /   | |  | | |  |  |  |  | |\  \  |  | \   \       
                 \___/    |_|  |_| |__|  |__|  |_| \__\ |__|  \__/        
                                                                              
                      - O R C A' S   B I G   F R I E N D -                    
                                      &                                       
                       - I N T E G R A L  F E E D E R -                       
                                                                              
 v1 FN, 2020, v2 2021                                                         
------------------------------------------------------------------------------


Reading SHARK input file ox_es1_A_orca0039.SHARKINP.tmp ... ok
----------------------
SHARK INTEGRAL PACKAGE
----------------------

Number of atoms                             ...      7
Number of basis functions                   ...    117
Number of shells                            ...     49
Maximum angular momentum                    ...      3
Integral batch strategy                     ... SHARK/LIBINT Hybrid
RI-J (if used) integral strategy            ... SPLIT-RIJ (Revised 2003 algorithm where possible)
Printlevel                                  ...      1
Contraction scheme used                     ... SEGMENTED contraction
Coulomb Range Separation                    ... NOT USED
Exchange Range Separation                   ... NOT USED
Finite Nucleus Model                        ... NOT USED
Auxiliary Coulomb fitting basis             ... AVAILABLE
   # of basis functions in Aux-J            ...    191
   # of shells in Aux-J                     ...     65
   Maximum angular momentum in Aux-J        ...      4
Auxiliary J/K fitting basis                 ... NOT available
Auxiliary Correlation fitting basis         ... NOT available
Auxiliary 'external' fitting basis          ... NOT available
Integral threshold                          ...     2.500000e-11
Primitive cut-off                           ...     2.500000e-12
Primitive pair pre-selection threshold      ...     2.500000e-12

Calculating pre-screening integrals         ... done (  0.0 sec) Dimension = 49
Organizing shell pair data                  ... done (  0.0 sec)
Shell pair information
Total number of shell pairs                 ...      1225
Shell pairs after pre-screening             ...      1221
Total number of primitive shell pairs       ...      3648
Primitive shell pairs kept                  ...      3164
          la=0 lb=0:    374 shell pairs
          la=1 lb=0:    351 shell pairs
          la=1 lb=1:     91 shell pairs
          la=2 lb=0:    162 shell pairs
          la=2 lb=1:     78 shell pairs
          la=2 lb=2:     21 shell pairs
          la=3 lb=0:     81 shell pairs
          la=3 lb=1:     39 shell pairs
          la=3 lb=2:     18 shell pairs
          la=3 lb=3:      6 shell pairs

Calculating one electron integrals          ... done (  0.0 sec)
Calculating RI/J V-Matrix + Cholesky decomp.... done (  0.0 sec)
Calculating Nuclear repulsion               ... done (  0.0 sec) ENN=     77.769818462110 Eh

SHARK setup successfully completed in   0.1 seconds

Maximum memory used throughout the entire GTOINT-calculation: 14.9 MB


           ************************************************************
           *        Program running with 8 parallel MPI-processes     *
           *              working on a common directory               *
           ************************************************************
-------------------------------------------------------------------------------
                                 ORCA SCF
-------------------------------------------------------------------------------

------------
SCF SETTINGS
------------
Hamiltonian:
 Density Functional     Method          .... DFT(GTOs)
 Exchange Functional    Exchange        .... PBE
   PBE kappa parameter   XKappa         ....  0.804000
   PBE mue parameter    XMuePBE         ....  0.219520
 Correlation Functional Correlation     .... PBE
   PBE beta parameter  CBetaPBE         ....  0.066725
 LDA part of GGA corr.  LDAOpt          .... PW91-LDA
 Gradients option       PostSCFGGA      .... off
 Hybrid DFT is turned on
   Fraction HF Exchange ScalHFX         ....  0.250000
   Scaling of DF-GGA-X  ScalDFX         ....  0.750000
   Scaling of DF-GGA-C  ScalDFC         ....  1.000000
   Scaling of DF-LDA-C  ScalLDAC        ....  1.000000
   Perturbative correction              ....  0.000000
   Density functional embedding theory  .... OFF
   NL short-range parameter             ....  6.900000
 RI-approximation to the Coulomb term is turned on
   Number of AuxJ basis functions       .... 191
   RIJ-COSX (HFX calculated with COS-X)).... on


General Settings:
 Integral files         IntName         .... ox_es1_A_orca0039
 Hartree-Fock type      HFTyp           .... RHF
 Total Charge           Charge          ....    0
 Multiplicity           Mult            ....    1
 Number of Electrons    NEL             ....   24
 Basis Dimension        Dim             ....  117
 Nuclear Repulsion      ENuc            ....     77.7698184621 Eh

Convergence Acceleration:
 DIIS                   CNVDIIS         .... on
   Start iteration      DIISMaxIt       ....    12
   Startup error        DIISStart       ....  0.200000
   # of expansion vecs  DIISMaxEq       ....     5
   Bias factor          DIISBfac        ....   1.050
   Max. coefficient     DIISMaxC        ....  10.000
 Trust-Rad. Augm. Hess. CNVTRAH         .... auto
   Auto Start mean grad. ratio tolernc. ....  1.125000
   Auto Start start iteration           ....     1
   Auto Start num. interpolation iter.  ....    10
   Max. Number of Micro iterations      ....    16
   Max. Number of Macro iterations      .... Maxiter - #DIIS iter
   Number of Davidson start vectors     ....     2
   Converg. threshold I  (grad. norm)   ....   1.000e-05
   Converg. threshold II (energy diff.) ....   1.000e-08
   Grad. Scal. Fac. for Micro threshold ....   0.100
   Minimum threshold for Micro iter.    ....   0.010
   NR start threshold (gradient norm)   ....   0.001
   Initial trust radius                 ....   0.400
   Minimum AH scaling param. (alpha)    ....   1.000
   Maximum AH scaling param. (alpha)    .... 1000.000
   Orbital update algorithm             .... Taylor
   White noise on init. David. guess    .... on
   Maximum white noise                  ....   0.010
   Quad. conv. algorithm                .... NR
 SOSCF                  CNVSOSCF        .... on
   Start iteration      SOSCFMaxIt      ....   150
   Startup grad/error   SOSCFStart      ....  0.003300
 Level Shifting         CNVShift        .... on
   Level shift para.    LevelShift      ....    0.2500
   Turn off err/grad.   ShiftErr        ....    0.0010
 Zerner damping         CNVZerner       .... off
 Static damping         CNVDamp         .... on
   Fraction old density DampFac         ....    0.7000
   Max. Damping (<1)    DampMax         ....    0.9800
   Min. Damping (>=0)   DampMin         ....    0.0000
   Turn off err/grad.   DampErr         ....    0.1000
 Fernandez-Rico         CNVRico         .... off

SCF Procedure:
 Maximum # iterations   MaxIter         ....   125
 SCF integral mode      SCFMode         .... Direct
   Integral package                     .... SHARK and LIBINT hybrid scheme
 Reset frequency        DirectResetFreq ....    20
 Integral Threshold     Thresh          ....  2.500e-11 Eh
 Primitive CutOff       TCut            ....  2.500e-12 Eh

Convergence Tolerance:
 Convergence Check Mode ConvCheckMode   .... Total+1el-Energy
 Convergence forced     ConvForced      .... 1
 Energy Change          TolE            ....  1.000e-08 Eh
 1-El. energy change                    ....  1.000e-05 Eh
 Orbital Gradient       TolG            ....  1.000e-05
 Orbital Rotation angle TolX            ....  1.000e-05
 DIIS Error             TolErr          ....  5.000e-07


Diagonalization of the overlap matrix:
Smallest eigenvalue                        ... 2.692e-04
Time for diagonalization                   ...    0.001 sec
Threshold for overlap eigenvalues          ... 1.000e-08
Number of eigenvalues below threshold      ... 0
Time for construction of square roots      ...    0.001 sec
Total time needed                          ...    0.003 sec

---------------------
INITIAL GUESS: MOREAD
---------------------
Guess MOs are being read from file: ox_es1_A_orca0039.ges
Input Geometry matches current geometry (good)
Input basis set matches current basis set (good)
MOs were renormalized
MOs were reorthogonalized (Cholesky)
                      ------------------
                      INITIAL GUESS DONE (   0.0 sec)
                      ------------------
-------------------
DFT GRID GENERATION
-------------------

General Integration Accuracy     IntAcc      ... 4.388
Radial Grid Type                 RadialGrid  ... OptM3 with GC (2021)
Angular Grid (max. ang.)         AngularGrid ... 4 (Lebedev-302)
Angular grid pruning method      GridPruning ... 4 (adaptive)
Weight generation scheme         WeightScheme... Becke
Basis function cutoff            BFCut       ... 1.0000e-11
Integration weight cutoff        WCut        ... 1.0000e-14
Angular grids for H and He will be reduced by one unit
Partially contracted basis set               ... off
Rotationally invariant grid construction     ... off

Total number of grid points                  ...    31290
Total number of batches                      ...      492
Average number of points per batch           ...       63
Average number of grid points per atom       ...     4470
Time for grid setup =    0.117 sec

--------------------
COSX GRID GENERATION
--------------------

GRIDX 1
-------
General Integration Accuracy     IntAcc      ... 3.816
Radial Grid Type                 RadialGrid  ... OptM3 with GC (2021)
Angular Grid (max. ang.)         AngularGrid ... 1 (Lebedev-50)
Angular grid pruning method      GridPruning ... 4 (adaptive)
Weight generation scheme         WeightScheme... Becke
Basis function cutoff            BFCut       ... 1.0000e-11
Integration weight cutoff        WCut        ... 1.0000e-14
Angular grids for H and He will be reduced by one unit
Partially contracted basis set               ... on
Rotationally invariant grid construction     ... off

Total number of grid points                  ...     4034
Total number of batches                      ...       67
Average number of points per batch           ...       60
Average number of grid points per atom       ...      576
UseSFitting                                  ... on

GRIDX 2
-------
General Integration Accuracy     IntAcc      ... 4.020
Radial Grid Type                 RadialGrid  ... OptM3 with GC (2021)
Angular Grid (max. ang.)         AngularGrid ... 2 (Lebedev-110)
Angular grid pruning method      GridPruning ... 4 (adaptive)
Weight generation scheme         WeightScheme... Becke
Basis function cutoff            BFCut       ... 1.0000e-11
Integration weight cutoff        WCut        ... 1.0000e-14
Angular grids for H and He will be reduced by one unit
Partially contracted basis set               ... on
Rotationally invariant grid construction     ... off

Total number of grid points                  ...     8701
Total number of batches                      ...      141
Average number of points per batch           ...       61
Average number of grid points per atom       ...     1243
UseSFitting                                  ... on

GRIDX 3
-------
General Integration Accuracy     IntAcc      ... 4.338
Radial Grid Type                 RadialGrid  ... OptM3 with GC (2021)
Angular Grid (max. ang.)         AngularGrid ... 3 (Lebedev-194)
Angular grid pruning method      GridPruning ... 4 (adaptive)
Weight generation scheme         WeightScheme... Becke
Basis function cutoff            BFCut       ... 1.0000e-11
Integration weight cutoff        WCut        ... 1.0000e-14
Angular grids for H and He will be reduced by one unit
Partially contracted basis set               ... on
Rotationally invariant grid construction     ... off

Total number of grid points                  ...    19235
Total number of batches                      ...      304
Average number of points per batch           ...       63
Average number of grid points per atom       ...     2748
UseSFitting                                  ... on

Time for X-Grid setup             =    0.072 sec

--------------
SCF ITERATIONS
--------------
ITER       Energy         Delta-E        Max-DP      RMS-DP      [F,P]     Damp
               ***  Starting incremental Fock matrix formation  ***
                      *** Initiating the SOSCF procedure ***
                      *** Re-Reading the Fockian *** 
                      *** Removing any level shift *** 
ITER      Energy       Delta-E        Grad      Rot      Max-DP    RMS-DP
  0   -153.64378104 -153.6437810446  0.000000  0.000000  0.000001  0.000000
               *** Restarting incremental Fock matrix formation ***
                 **** Energy Check signals convergence ****
              ***Rediagonalizing the Fockian in SOSCF/NRSCF***

               *****************************************************
               *                     SUCCESS                       *
               *           SCF CONVERGED AFTER   1 CYCLES          *
               *****************************************************

Old exchange energy                            =     -5.018534742 Eh
New exchange energy                            =     -5.018527203 Eh
Exchange energy change after final integration =      0.000007539 Eh
Total energy after final integration           =   -153.643773505 Eh
Final COS-X integration done in                =     0.282 sec

----------------
TOTAL SCF ENERGY
----------------

Total Energy       :         -153.64377351 Eh           -4180.85963 eV

Components:
Nuclear Repulsion  :           77.76981846 Eh            2116.22435 eV
Electronic Energy  :         -231.41359197 Eh           -6297.08397 eV
One Electron Energy:         -361.94131265 Eh           -9848.92383 eV
Two Electron Energy:          130.52772068 Eh            3551.83985 eV
Max COSX asymmetry :            0.00000096 Eh               0.00003 eV

Virial components:
Potential Energy   :         -306.95948856 Eh           -8352.79233 eV
Kinetic Energy     :          153.31571506 Eh            4171.93270 eV
Virial Ratio       :            2.00213976


DFT components:
N(Alpha)           :       11.999996703318 electrons
N(Beta)            :       11.999996703318 electrons
N(Total)           :       23.999993406637 electrons
E(X)               :      -15.017397108419 Eh       
E(C)               :       -0.796311462283 Eh       
E(XC)              :      -15.813708570702 Eh       
DFET-embed. en.    :        0.000000000000 Eh       

---------------
SCF CONVERGENCE
---------------

  Last Energy change         ...   -1.0374e-11  Tolerance :   1.0000e-08
  Last MAX-Density change    ...    1.1102e-15  Tolerance :   1.0000e-07
  Last RMS-Density change    ...    2.6264e-17  Tolerance :   5.0000e-09
  Last Orbital Gradient      ...    2.1531e-07  Tolerance :   1.0000e-05
  Last Orbital Rotation      ...    3.4972e-07  Tolerance :   1.0000e-05

             **** THE GBW FILE WAS UPDATED (ox_es1_A_orca0039.gbw) ****
             **** DENSITY ox_es1_A_orca0039.scfp WAS UPDATED ****
             **** ENERGY FILE WAS UPDATED (ox_es1_A_orca0039.en.tmp) ****
             **** THE GBW FILE WAS UPDATED (ox_es1_A_orca0039.gbw) ****
             **** DENSITY ox_es1_A_orca0039.scfp WAS UPDATED ****
----------------
ORBITAL ENERGIES
----------------

  NO   OCC          E(Eh)            E(eV) 
   0   2.0000     -19.226934      -523.1915 
   1   2.0000     -10.279961      -279.7320 
   2   2.0000     -10.258340      -279.1436 
   3   2.0000      -1.156454       -31.4687 
   4   2.0000      -0.706337       -19.2204 
   5   2.0000      -0.659469       -17.9451 
   6   2.0000      -0.549348       -14.9485 
   7   2.0000      -0.519650       -14.1404 
   8   2.0000      -0.439211       -11.9515 
   9   2.0000      -0.379545       -10.3279 
  10   2.0000      -0.333538        -9.0760 
  11   2.0000      -0.290573        -7.9069 
  12   0.0000       0.062378         1.6974 
  13   0.0000       0.084240         2.2923 
  14   0.0000       0.085577         2.3287 
  15   0.0000       0.104681         2.8485 
  16   0.0000       0.119371         3.2483 
  17   0.0000       0.155453         4.2301 
  18   0.0000       0.188230         5.1220 
  19   0.0000       0.231338         6.2950 
  20   0.0000       0.270052         7.3485 
  21   0.0000       0.277153         7.5417 
  22   0.0000       0.293225         7.9791 
  23   0.0000       0.352408         9.5895 
  24   0.0000       0.364667         9.9231 
  25   0.0000       0.396033        10.7766 
  26   0.0000       0.405595        11.0368 
  27   0.0000       0.430613        11.7176 
  28   0.0000       0.449039        12.2190 
  29   0.0000       0.498397        13.5621 
  30   0.0000       0.510071        13.8797 
  31   0.0000       0.527497        14.3539 
  32   0.0000       0.558522        15.1982 
  33   0.0000       0.703659        19.1475 
  34   0.0000       0.714040        19.4300 
  35   0.0000       0.731053        19.8930 
  36   0.0000       0.834871        22.7180 
  37   0.0000       0.862071        23.4582 
  38   0.0000       0.895673        24.3725 
  39   0.0000       0.960666        26.1410 
  40   0.0000       1.035706        28.1830 
  41   0.0000       1.042454        28.3666 
  42   0.0000       1.086722        29.5712 
  43   0.0000       1.107431        30.1347 
  44   0.0000       1.167640        31.7731 
  45   0.0000       1.360857        37.0308 
  46   0.0000       1.448785        39.4234 
  47   0.0000       1.497592        40.7516 
  48   0.0000       1.523700        41.4620 
  49   0.0000       1.535739        41.7896 
  50   0.0000       1.577797        42.9340 
  51   0.0000       1.621770        44.1306 
  52   0.0000       1.685638        45.8685 
  53   0.0000       1.704324        46.3770 
  54   0.0000       1.760858        47.9154 
  55   0.0000       1.791493        48.7490 
  56   0.0000       1.838239        50.0210 
  57   0.0000       1.927121        52.4396 
  58   0.0000       1.983378        53.9705 
  59   0.0000       1.996184        54.3189 
  60   0.0000       2.102312        57.2068 
  61   0.0000       2.169182        59.0264 
  62   0.0000       2.184658        59.4476 
  63   0.0000       2.259827        61.4930 
  64   0.0000       2.324671        63.2575 
  65   0.0000       2.408814        65.5472 
  66   0.0000       2.445508        66.5457 
  67   0.0000       2.519046        68.5467 
  68   0.0000       2.566878        69.8483 
  69   0.0000       2.624755        71.4232 
  70   0.0000       2.680268        72.9338 
  71   0.0000       2.685272        73.0700 
  72   0.0000       2.714184        73.8567 
  73   0.0000       2.742112        74.6167 
  74   0.0000       2.775600        75.5279 
  75   0.0000       2.853561        77.6493 
  76   0.0000       2.886260        78.5391 
  77   0.0000       2.938782        79.9683 
  78   0.0000       3.000672        81.6524 
  79   0.0000       3.026137        82.3454 
  80   0.0000       3.057868        83.2088 
  81   0.0000       3.086869        83.9980 
  82   0.0000       3.158658        85.9515 
  83   0.0000       3.299515        89.7844 
  84   0.0000       3.334943        90.7484 
  85   0.0000       3.353326        91.2486 
  86   0.0000       3.404268        92.6349 
  87   0.0000       3.480197        94.7010 
  88   0.0000       3.566427        97.0474 
  89   0.0000       3.659472        99.5793 
  90   0.0000       3.727084       101.4191 
  91   0.0000       3.766337       102.4872 
  92   0.0000       3.973138       108.1146 
  93   0.0000       4.011694       109.1638 
  94   0.0000       4.131945       112.4359 
  95   0.0000       4.180494       113.7570 
  96   0.0000       4.251120       115.6789 
  97   0.0000       4.324193       117.6673 
  98   0.0000       4.472667       121.7074 
  99   0.0000       4.610900       125.4690 
 100   0.0000       4.737581       128.9161 
 101   0.0000       4.886029       132.9556 
 102   0.0000       5.346088       145.4744 
 103   0.0000       5.521410       150.2452 
 104   0.0000       5.797253       157.7513 
 105   0.0000       5.839818       158.9095 
 106   0.0000       5.956087       162.0734 
 107   0.0000       6.018986       163.7849 
 108   0.0000       6.166397       167.7962 
 109   0.0000       6.633655       180.5109 
 110   0.0000       6.677224       181.6965 
 111   0.0000       6.834298       185.9707 
 112   0.0000       6.991808       190.2568 
 113   0.0000       7.182479       195.4452 
 114   0.0000      22.287624       606.4771 
 115   0.0000      22.828821       621.2038 
 116   0.0000      43.914775      1194.9818 

                    ********************************
                    * MULLIKEN POPULATION ANALYSIS *
                    ********************************

-----------------------
MULLIKEN ATOMIC CHARGES
-----------------------
   0 O :   -0.301771
   1 C :   -0.096539
   2 C :   -0.025284
   3 H :    0.118035
   4 H :    0.110138
   5 H :    0.105023
   6 H :    0.090398
Sum of atomic charges:   -0.0000000

--------------------------------
MULLIKEN REDUCED ORBITAL CHARGES
--------------------------------
  0 O s       :     3.839334  s :     3.839334
      pz      :     1.802102  p :     4.409520
      px      :     1.308140
      py      :     1.299278
      dz2     :     0.006069  d :     0.050233
      dxz     :     0.003587
      dyz     :     0.008536
      dx2y2   :     0.014610
      dxy     :     0.017431
      f0      :     0.000342  f :     0.002684
      f+1     :     0.000227
      f-1     :     0.000503
      f+2     :     0.000125
      f-2     :     0.000293
      f+3     :     0.000401
      f-3     :     0.000792
  1 C s       :     3.221460  s :     3.221460
      pz      :     1.061455  p :     2.740939
      px      :     0.902380
      py      :     0.777104
      dz2     :     0.004054  d :     0.120928
      dxz     :     0.031331
      dyz     :     0.032967
      dx2y2   :     0.031437
      dxy     :     0.021138
      f0      :     0.001597  f :     0.013212
      f+1     :     0.001250
      f-1     :     0.000754
      f+2     :     0.001996
      f-2     :     0.001845
      f+3     :     0.002383
      f-3     :     0.003388
  2 C s       :     3.178959  s :     3.178959
      pz      :     1.025959  p :     2.708002
      px      :     0.904142
      py      :     0.777902
      dz2     :     0.006186  d :     0.124892
      dxz     :     0.027868
      dyz     :     0.033584
      dx2y2   :     0.033524
      dxy     :     0.023729
      f0      :     0.001992  f :     0.013431
      f+1     :     0.001397
      f-1     :     0.000812
      f+2     :     0.001069
      f-2     :     0.002311
      f+3     :     0.002383
      f-3     :     0.003468
  3 H s       :     0.861876  s :     0.861876
      pz      :     0.009187  p :     0.020089
      px      :     0.007328
      py      :     0.003574
  4 H s       :     0.872559  s :     0.872559
      pz      :     0.008247  p :     0.017303
      px      :     0.006329
      py      :     0.002727
  5 H s       :     0.870950  s :     0.870950
      pz      :     0.010759  p :     0.024027
      px      :     0.007774
      py      :     0.005494
  6 H s       :     0.886952  s :     0.886952
      pz      :     0.011804  p :     0.022650
      px      :     0.005997
      py      :     0.004850


                     *******************************
                     * LOEWDIN POPULATION ANALYSIS *
                     *******************************

----------------------
LOEWDIN ATOMIC CHARGES
----------------------
   0 O :    0.213770
   1 C :   -0.336014
   2 C :   -0.338447
   3 H :    0.120167
   4 H :    0.128833
   5 H :    0.093679
   6 H :    0.118010

-------------------------------
LOEWDIN REDUCED ORBITAL CHARGES
-------------------------------
  0 O s       :     3.313417  s :     3.313417
      pz      :     1.663142  p :     4.348541
      px      :     1.283172
      py      :     1.402227
      dz2     :     0.012440  d :     0.115085
      dxz     :     0.010966
      dyz     :     0.019921
      dx2y2   :     0.042724
      dxy     :     0.029033
      f0      :     0.000924  f :     0.009187
      f+1     :     0.000334
      f-1     :     0.001049
      f+2     :     0.000257
      f-2     :     0.001338
      f+3     :     0.001486
      f-3     :     0.003798
  1 C s       :     2.820208  s :     2.820208
      pz      :     1.038349  p :     2.916160
      px      :     1.029839
      py      :     0.847971
      dz2     :     0.045701  d :     0.516714
      dxz     :     0.159603
      dyz     :     0.093904
      dx2y2   :     0.114692
      dxy     :     0.102814
      f0      :     0.009788  f :     0.082932
      f+1     :     0.005690
      f-1     :     0.006326
      f+2     :     0.012238
      f-2     :     0.007566
      f+3     :     0.015825
      f-3     :     0.025499
  2 C s       :     2.768206  s :     2.768206
      pz      :     1.042536  p :     2.925852
      px      :     1.039186
      py      :     0.844130
      dz2     :     0.060975  d :     0.549549
      dxz     :     0.142048
      dyz     :     0.108979
      dx2y2   :     0.120196
      dxy     :     0.117351
      f0      :     0.014539  f :     0.094840
      f+1     :     0.007349
      f-1     :     0.007122
      f+2     :     0.007549
      f-2     :     0.011774
      f+3     :     0.018198
      f-3     :     0.028310
  3 H s       :     0.823217  s :     0.823217
      pz      :     0.028001  p :     0.056616
      px      :     0.018314
      py      :     0.010302
  4 H s       :     0.824052  s :     0.824052
      pz      :     0.024329  p :     0.047114
      px      :     0.015311
      py      :     0.007474
  5 H s       :     0.827763  s :     0.827763
      pz      :     0.036626  p :     0.078558
      px      :     0.023464
      py      :     0.018468
  6 H s       :     0.816824  s :     0.816824
      pz      :     0.034295  p :     0.065166
      px      :     0.016487
      py      :     0.014384


                      *****************************
                      * MAYER POPULATION ANALYSIS *
                      *****************************

  NA   - Mulliken gross atomic population
  ZA   - Total nuclear charge
  QA   - Mulliken gross atomic charge
  VA   - Mayer's total valence
  BVA  - Mayer's bonded valence
  FA   - Mayer's free valence

  ATOM       NA         ZA         QA         VA         BVA        FA
  0 O      8.3018     8.0000    -0.3018     2.0256     2.0256    -0.0000
  1 C      6.0965     6.0000    -0.0965     3.9416     3.9416     0.0000
  2 C      6.0253     6.0000    -0.0253     4.0165     4.0165     0.0000
  3 H      0.8820     1.0000     0.1180     0.9612     0.9612    -0.0000
  4 H      0.8899     1.0000     0.1101     0.9603     0.9603    -0.0000
  5 H      0.8950     1.0000     0.1050     0.9520     0.9520    -0.0000
  6 H      0.9096     1.0000     0.0904     0.9635     0.9635    -0.0000

  Mayer bond orders larger than 0.100000
B(  0-O ,  1-C ) :   0.9751 B(  0-O ,  2-C ) :   1.0213 B(  1-C ,  2-C ) :   1.0584 
B(  1-C ,  3-H ) :   0.9555 B(  1-C ,  4-H ) :   0.9422 B(  2-C ,  5-H ) :   0.9550 
B(  2-C ,  6-H ) :   0.9649 

-------
TIMINGS
-------

Total SCF time: 0 days 0 hours 0 min 1 sec 

Total time                  ....       1.042 sec
Sum of individual times     ....       0.945 sec  ( 90.7%)

Fock matrix formation       ....       0.741 sec  ( 71.1%)
  Split-RI-J                ....       0.135 sec  ( 18.3% of F)
  Chain of spheres X        ....       0.541 sec  ( 73.0% of F)
  XC integration            ....       0.062 sec  (  8.4% of F)
    Basis function eval.    ....       0.018 sec  ( 28.8% of XC)
    Density eval.           ....       0.014 sec  ( 22.3% of XC)
    XC-Functional eval.     ....       0.004 sec  (  6.1% of XC)
    XC-Potential eval.      ....       0.020 sec  ( 32.2% of XC)
Diagonalization             ....       0.002 sec  (  0.2%)
Density matrix formation    ....       0.001 sec  (  0.0%)
Population analysis         ....       0.003 sec  (  0.3%)
Initial guess               ....       0.007 sec  (  0.6%)
Orbital Transformation      ....       0.000 sec  (  0.0%)
Orbital Orthonormalization  ....       0.001 sec  (  0.1%)
DIIS solution               ....       0.001 sec  (  0.1%)
SOSCF solution              ....       0.002 sec  (  0.2%)
Grid generation             ....       0.189 sec  ( 18.2%)

Maximum memory used throughout the entire SCF-calculation: 61.1 MB


           ************************************************************
           *        Program running with 8 parallel MPI-processes     *
           *              working on a common directory               *
           ************************************************************
------------------------------------------------------------------------------
                        ORCA TD-DFT/TDA CALCULATION
------------------------------------------------------------------------------

Input orbitals are from        ... ox_es1_A_orca0039.gbw
CI-vector output               ... ox_es1_A_orca0039.cis
Tamm-Dancoff approximation     ... operative
CIS-Integral strategy          ... AO-integrals
Integral handling              ... AO integral Direct
Max. core memory used          ... 3000 MB
Reference state                ... RHF
Generation of triplets         ... off
Follow IRoot                   ... off
Number of operators            ... 1
Orbital ranges used for CIS calculation:
 Operator 0:  Orbitals   3... 11  to  12...116
XAS localization array:
 Operator 0:  Orbitals  -1... -1

-------------------
XC-INTEGRATION GRID
-------------------

General Integration Accuracy     IntAcc      ... 3.467
Radial Grid Type                 RadialGrid  ... OptM3 with GC (2021)
Angular Grid (max. ang.)         AngularGrid ... 1 (Lebedev-50)
Angular grid pruning method      GridPruning ... 4 (adaptive)
Weight generation scheme         WeightScheme... Becke
Basis function cutoff            BFCut       ... 1.0000e-11
Integration weight cutoff        WCut        ... 1.0000e-14
Angular grids for H and He will be reduced by one unit
Partially contracted basis set               ... off
Rotationally invariant grid construction     ... off

Total number of grid points                  ...     4532
Total number of batches                      ...       76
Average number of points per batch           ...       59
Average number of grid points per atom       ...      647

---------------------
COSX-INTEGRATION GRID
---------------------

General Integration Accuracy     IntAcc      ... 3.067
Radial Grid Type                 RadialGrid  ... OptM3 with GC (2021)
Angular Grid (max. ang.)         AngularGrid ... 1 (Lebedev-50)
Angular grid pruning method      GridPruning ... 4 (adaptive)
Weight generation scheme         WeightScheme... Becke
Basis function cutoff            BFCut       ... 1.0000e-11
Integration weight cutoff        WCut        ... 1.0000e-14
Angular grids for H and He will be reduced by one unit
Partially contracted basis set               ... on
Rotationally invariant grid construction     ... off

Total number of grid points                  ...     2084
Total number of batches                      ...       37
Average number of points per batch           ...       56
Average number of grid points per atom       ...      298

---------------
TD-DFT XC SETUP
---------------

DFT calculation                         ... on
Name of the grid file                   ... ox_es1_A_orca0039.grid_cis.tmp
Exchange functional (TD-DFT)            ... PBE
   PBE kappa parameter  XKappa (TD-DFT) ...  0.804000
   PBE mue parameter   XMuePBE (TD-DFT) ...  0.219520
Correlation functional (TD-DFT)         ... PBE
   PBE beta parameter CBetaPBE (TD-DFT) ...  0.066725
 LDA part of GGA corr.  LDAOpt (TD-DFT) ... PW91-LDA
Hybrid DFT                              ... on
   Exchange mixing (TD-DFT)             ...  0.250
   GGA exch. scaling (TD-DFT)           ...  0.750
   GGA corr. scaling (TD-DFT)           ...  1.000

Building densities             ... done
Calculating rho(r) on the grid ... done
Building xc-kernel on the grid ... done
                    *** TD-DFT CALCULATION INITIALIZED ***

------------------------
DAVIDSON-DIAGONALIZATION
------------------------

Dimension of the eigenvalue problem            ...    945
Number of roots to be determined               ...      1
Maximum size of the expansion space            ...     10
Maximum number of iterations                   ...    100
Convergence tolerance for the residual         ...    2.500e-07
Convergence tolerance for the energies         ...    2.500e-07
Orthogonality tolerance                        ...    1.000e-14
Level Shift                                    ...    0.000e+00
Constructing the preconditioner                ... o.k.
Building the initial guess                     ... o.k.
Number of trial vectors determined             ...     10


                       ****Iteration    0****

   Memory handling for direct AO based CIS:
   Memory per vector needed      ...     1 MB
   Memory needed                 ...     1 MB
   Memory available              ...  3000 MB
   Number of vectors per batch   ...  3000
   Number of batches             ...     1
   Time for densities:            0.001
   Time for RI-J (Direct):        0.018
   Time for K (COSX):             0.063
   Time for XC-Integration:       0.019
   Time for Sigma-Completion:     0.000
   Size of expansion space: 3
   Lowest Energy          :     0.304240831875
   Maximum Energy change  :     0.304240831875 (vector 0)
   Maximum residual norm  :     0.000992197347

                       ****Iteration    1****
   Time for densities:            0.000
   Time for RI-J (Direct):        0.014
   Time for K (COSX):             0.058
   Time for XC-Integration:       0.008
   Time for Sigma-Completion:     0.000
   Size of expansion space: 4
   Lowest Energy          :     0.302683574089
   Maximum Energy change  :     0.001557257786 (vector 0)
   Maximum residual norm  :     0.000099043963

                       ****Iteration    2****
   Time for densities:            0.000
   Time for RI-J (Direct):        0.014
   Time for K (COSX):             0.059
   Time for XC-Integration:       0.008
   Time for Sigma-Completion:     0.000
   Size of expansion space: 5
   Lowest Energy          :     0.302517108399
   Maximum Energy change  :     0.000166465689 (vector 0)
   Maximum residual norm  :     0.000031560293

                       ****Iteration    3****
   Time for densities:            0.000
   Time for RI-J (Direct):        0.015
   Time for K (COSX):             0.059
   Time for XC-Integration:       0.008
   Time for Sigma-Completion:     0.000
   Size of expansion space: 6
   Lowest Energy          :     0.302450341439
   Maximum Energy change  :     0.000066766960 (vector 0)
   Maximum residual norm  :     0.000015902939

                       ****Iteration    4****
   Time for densities:            0.000
   Time for RI-J (Direct):        0.014
   Time for K (COSX):             0.059
   Time for XC-Integration:       0.008
   Time for Sigma-Completion:     0.000
   Size of expansion space: 7
   Lowest Energy          :     0.302419226953
   Maximum Energy change  :     0.000031114486 (vector 0)
   Maximum residual norm  :     0.000002928204

                       ****Iteration    5****
   Time for densities:            0.000
   Time for RI-J (Direct):        0.014
   Time for K (COSX):             0.059
   Time for XC-Integration:       0.008
   Time for Sigma-Completion:     0.000
   Size of expansion space: 8
   Lowest Energy          :     0.302414839512
   Maximum Energy change  :     0.000004387441 (vector 0)
   Maximum residual norm  :     0.000000335740

                       ****Iteration    6****
   Time for densities:            0.000
   Time for RI-J (Direct):        0.015
   Time for K (COSX):             0.059
   Time for XC-Integration:       0.008
   Time for Sigma-Completion:     0.000
   Size of expansion space: 9
   Lowest Energy          :     0.302414321121
   Maximum Energy change  :     0.000000518391 (vector 0)
   Maximum residual norm  :     0.000000035201

      *** CONVERGENCE OF RESIDUAL NORM REACHED ***

Storing the converged CI vectors               ... ox_es1_A_orca0039.cis1

                 *** DAVIDSON DONE ***

Total time for solving the CIS problem:     0.594sec

------------------------------------
TD-DFT/TDA EXCITED STATES (SINGLETS)
------------------------------------

the weight of the individual excitations are printed if larger than 1.0e-02

STATE  1:  E=   0.302414 au      8.229 eV    66372.3 cm**-1 <S**2> =   0.000000
    11a ->  12a  :     0.901733 (c=  0.94959644)
    11a ->  13a  :     0.082261 (c=  0.28681172)


-----------------------------
TD-DFT/TDA-EXCITATION SPECTRA
-----------------------------

Center of mass = (  0.1281, -0.0364,  0.0217)
Calculating the Dipole integrals                  ... done
Transforming integrals                            ... done
Calculating the Linear Momentum integrals         ... done
Transforming integrals                            ... done
Calculating angular momentum integrals            ... done
Transforming integrals                            ... done

-----------------------------------------------------------------------------
         ABSORPTION SPECTRUM VIA TRANSITION ELECTRIC DIPOLE MOMENTS
-----------------------------------------------------------------------------
State   Energy    Wavelength  fosc         T2        TX        TY        TZ  
        (cm-1)      (nm)                 (au**2)    (au)      (au)      (au) 
-----------------------------------------------------------------------------
   1   66372.3    150.7   0.088727536   0.44010  -0.09499  -0.01000  -0.65648

-----------------------------------------------------------------------------
         ABSORPTION SPECTRUM VIA TRANSITION VELOCITY DIPOLE MOMENTS
-----------------------------------------------------------------------------
State   Energy    Wavelength   fosc        P2         PX        PY        PZ  
        (cm-1)      (nm)                 (au**2)     (au)      (au)      (au) 
-----------------------------------------------------------------------------
   1   66372.3    150.7   0.050197469   0.02277   0.02142  -0.00391   0.14932

-------------------------------------------------------------------
                             CD SPECTRUM
-------------------------------------------------------------------
State  Energy     Wavelength     R         MX        MY        MZ   
       (cm-1)       (nm)     (1e40*cgs)   (au)      (au)      (au)  
-------------------------------------------------------------------
   1   66372.3    150.7    -11.08491   0.30271  -0.00978  -0.00784

-------------------------------------------------------------------
         CD SPECTRUM VIA TRANSITION VELOCITY DIPOLE MOMENTS        
-------------------------------------------------------------------
State  Energy     Wavelength     R         MX        MY        MZ   
       (cm-1)       (nm)     (1e40*cgs)   (au)      (au)      (au)  
-------------------------------------------------------------------
   1   66372.3    150.7      8.34272   0.30271  -0.00978  -0.00784

Total run time:        0.924 sec

           *** ORCA-CIS/TD-DFT FINISHED WITHOUT ERROR ***

Maximum memory used throughout the entire CIS-calculation: 49.4 MB

-----------------------
CIS/TD-DFT TOTAL ENERGY
-----------------------

    E(SCF)  =   -153.643773505 Eh
    DE(CIS) =      0.302414321 Eh (Root  1)
    ----------------------------- ---------
    E(tot)  =   -153.341359184 Eh



-------------------------------------------------------------------------------
                          DFT DISPERSION CORRECTION                            
                                                                               
                              DFTD3 V3.1  Rev 1                                
                          USING Becke-Johnson damping                          
-------------------------------------------------------------------------------
The PBE0 functional is recognized
Active option DFTDOPT                   ...         4   

molecular C6(AA) [au] = 350.989425 


            DFT-D V3
 parameters
 s6 scaling factor         :     1.0000 
 a1 scaling factor         :     0.4145 
 s8 scaling factor         :     1.2177 
 a2 scaling factor         :     4.8593 
 ad hoc parameters k1-k3   :    16.0000     1.3333    -4.0000 

 Edisp/kcal,au: -1.513374757347  -0.002411715932 
 E6   /kcal   :  -0.992670253 
 E8   /kcal   :  -0.520704504 
 % E8         :  34.406844795 

-------------------------   ----------------
Dispersion correction           -0.002411716
-------------------------   ----------------


-------------------------   --------------------
FINAL SINGLE POINT ENERGY      -153.343770900111
-------------------------   --------------------



           ************************************************************
           *        Program running with 8 parallel MPI-processes     *
           *              working on a common directory               *
           ************************************************************
------------------------------------------------------------------------------
                         ORCA SCF GRADIENT CALCULATION
------------------------------------------------------------------------------


------------------------
TD-DFT GRADIENT XC SETUP
------------------------

Building densities                     ... done
Calculating rho(r) on the grid         ... done
Building xc-kernel on the grid         ... done
Building xc 3rd derivative on the grid      ... done
                *** TD-DFT GRADIENT CALCULATION INITIALIZED ***

-------------------
TD-DFT/TDA GRADIENT
-------------------

Reference wavefunction             ... RHF
State of interest                  ... 1
Basis dimension                    ... 117
DFT-XC contribution needed         ... YES
RI-approximation                   ... ON
CIS-vectors being read from        ... ox_es1_A_orca0039.cis

 => Number of Vectors found: 1
 => Orbital Window: 3...11 -> 12...116

Reading the CIS file                     ... done
Norm of the CI vector                    ... 1.000000000
Making the CIS (pseudo)densities         ... done
Making operators G(D) and Q(T)           ... done
Transforming the Fock operators          ... done
Making the frozen-core relaxed density   ... done
Constructing the G(H) operator           ... done
Transforming the G(H) operator           ... done
Calculating the CIS Lagrangian           ... done
Solving the Z-vector equations           ... done
Finalizing the relaxed density           ... done
Storing the relaxed density              ... done
Constructing the G(Z) operator           ... done
Transforming the G(Z) operator           ... done
Making the W-matrix                      ... done
Finalizing the W-matrix                  ... done
Transforming the W-matrix                ... done
Nuclear repulsion gradient               ... done
One-Electron gradient                    ... done
Dispersion correction                    ... done
Prescreening matrices                    ... done
COSX-gradient                            ... done
Coulomb gradient (RI)                    ... done
Exchange-Correlation gradient            ... done

                 ---------------------------
                 EXCITED STATE GRADIENT DONE
                 ---------------------------

------------------
CARTESIAN GRADIENT
------------------

   1   O   :    0.039091606   -0.059852082    0.011865048
   2   C   :    0.067204481    0.035534763    0.018723650
   3   C   :   -0.013802120    0.040297421   -0.067123795
   4   H   :   -0.000099470   -0.008202449   -0.017587619
   5   H   :   -0.019634055   -0.021769240   -0.005461052
   6   H   :   -0.049869250    0.011371860    0.088466412
   7   H   :   -0.022903353    0.002597618   -0.028977876

Difference to translation invariance:
           :   -0.0000121617   -0.0000221097   -0.0000952315

Difference to rotation invariance:
           :   -0.0000371170   -0.0000410890   -0.0000577603

Norm of the cartesian gradient     ...    0.1754433108
RMS gradient                       ...    0.0382848691
MAX gradient                       ...    0.0884664119

------------------------------------------------------------------------------
                  RELAXED CIS/TDA DENSITY POPULATION ANALYSIS
                                   IROOT 1
------------------------------------------------------------------------------
------------------------------------------------------------------------------
                           ORCA POPULATION ANALYSIS
------------------------------------------------------------------------------
Input electron density              ... ox_es1_A_orca0039.cisp
BaseName (.gbw .S,...)              ... ox_es1_A_orca0039

                    ********************************
                    * MULLIKEN POPULATION ANALYSIS *
                    ********************************

-----------------------
MULLIKEN ATOMIC CHARGES
-----------------------
   0 O :    0.056801
   1 C :    0.667450
   2 C :   -0.111336
   3 H :   -0.398685
   4 H :   -0.341894
   5 H :    0.086131
   6 H :    0.041533
Sum of atomic charges:   -0.0000000

--------------------------------
MULLIKEN REDUCED ORBITAL CHARGES
--------------------------------
  0 O s       :     3.855941  s :     3.855941
      pz      :     1.210570  p :     4.030905
      px      :     1.453058
      py      :     1.367277
      dz2     :     0.006712  d :     0.053899
      dxz     :     0.004435
      dyz     :     0.009916
      dx2y2   :     0.016383
      dxy     :     0.016454
      f0      :     0.000245  f :     0.002454
      f+1     :     0.000087
      f-1     :     0.000339
      f+2     :     0.000137
      f-2     :     0.000325
      f+3     :     0.000417
      f-3     :     0.000903
  1 C s       :     2.652995  s :     2.652995
      pz      :     1.088812  p :     2.570803
      px      :     0.820072
      py      :     0.661919
      dz2     :     0.017462  d :     0.096561
      dxz     :     0.023281
      dyz     :     0.010072
      dx2y2   :     0.028521
      dxy     :     0.017225
      f0      :     0.001235  f :     0.012191
      f+1     :     0.001426
      f-1     :     0.000802
      f+2     :     0.001387
      f-2     :     0.001431
      f+3     :     0.002729
      f-3     :     0.003181
  2 C s       :     3.148943  s :     3.148943
      pz      :     1.076586  p :     2.854527
      px      :     1.072258
      py      :     0.705683
      dz2     :     0.007520  d :     0.095788
      dxz     :     0.021716
      dyz     :     0.011882
      dx2y2   :     0.027662
      dxy     :     0.027008
      f0      :     0.001483  f :     0.012078
      f+1     :     0.001328
      f-1     :     0.000871
      f+2     :     0.000841
      f-2     :     0.001675
      f+3     :     0.002580
      f-3     :     0.003302
  3 H s       :     1.367305  s :     1.367305
      pz      :     0.017738  p :     0.031380
      px      :     0.011006
      py      :     0.002636
  4 H s       :     1.314057  s :     1.314057
      pz      :     0.015829  p :     0.027837
      px      :     0.009876
      py      :     0.002133
  5 H s       :     0.886561  s :     0.886561
      pz      :     0.013387  p :     0.027307
      px      :     0.008397
      py      :     0.005524
  6 H s       :     0.932103  s :     0.932103
      pz      :     0.015296  p :     0.026364
      px      :     0.006331
      py      :     0.004737


                     *******************************
                     * LOEWDIN POPULATION ANALYSIS *
                     *******************************

----------------------
LOEWDIN ATOMIC CHARGES
----------------------
   0 O :    0.541935
   1 C :   -0.324586
   2 C :   -0.336964
   3 H :   -0.049607
   4 H :   -0.024318
   5 H :    0.093551
   6 H :    0.099988

-------------------------------
LOEWDIN REDUCED ORBITAL CHARGES
-------------------------------
  0 O s       :     3.341053  s :     3.341053
      pz      :     1.131419  p :     3.987700
      px      :     1.395268
      py      :     1.461013
      dz2     :     0.013755  d :     0.120141
      dxz     :     0.012918
      dyz     :     0.020278
      dx2y2   :     0.047515
      dxy     :     0.025673
      f0      :     0.000924  f :     0.009171
      f+1     :     0.000191
      f-1     :     0.000850
      f+2     :     0.000267
      f-2     :     0.001498
      f+3     :     0.001290
      f-3     :     0.004152
  1 C s       :     2.927355  s :     2.927355
      pz      :     1.017042  p :     2.844591
      px      :     1.053043
      py      :     0.774506
      dz2     :     0.072707  d :     0.471070
      dxz     :     0.126513
      dyz     :     0.038633
      dx2y2   :     0.135932
      dxy     :     0.097285
      f0      :     0.008109  f :     0.081569
      f+1     :     0.007215
      f-1     :     0.007106
      f+2     :     0.007989
      f-2     :     0.006211
      f+3     :     0.018702
      f-3     :     0.026237
  2 C s       :     2.780371  s :     2.780371
      pz      :     1.040980  p :     2.926375
      px      :     1.094191
      py      :     0.791204
      dz2     :     0.098401  d :     0.538040
      dxz     :     0.126618
      dyz     :     0.050292
      dx2y2   :     0.133348
      dxy     :     0.129380
      f0      :     0.011692  f :     0.092179
      f+1     :     0.007337
      f-1     :     0.007911
      f+2     :     0.006062
      f-2     :     0.009003
      f+3     :     0.020503
      f-3     :     0.029670
  3 H s       :     0.955286  s :     0.955286
      pz      :     0.057427  p :     0.094321
      px      :     0.029178
      py      :     0.007715
  4 H s       :     0.938795  s :     0.938795
      pz      :     0.053078  p :     0.085523
      px      :     0.026561
      py      :     0.005884
  5 H s       :     0.818339  s :     0.818339
      pz      :     0.043961  p :     0.088110
      px      :     0.025425
      py      :     0.018724
  6 H s       :     0.823166  s :     0.823166
      pz      :     0.044801  p :     0.076845
      px      :     0.017710
      py      :     0.014334


                      *****************************
                      * MAYER POPULATION ANALYSIS *
                      *****************************

  NA   - Mulliken gross atomic population
  ZA   - Total nuclear charge
  QA   - Mulliken gross atomic charge
  VA   - Mayer's total valence
  BVA  - Mayer's bonded valence
  FA   - Mayer's free valence

  ATOM       NA         ZA         QA         VA         BVA        FA
  0 O      7.9432     8.0000     0.0568     2.4371     1.7800     0.6571
  1 C      5.3326     6.0000     0.6674     1.2329     1.7281    -0.4953
  2 C      6.1113     6.0000    -0.1113     3.7644     3.6164     0.1480
  3 H      1.3987     1.0000    -0.3987     1.5055     0.8547     0.6508
  4 H      1.3419     1.0000    -0.3419     1.4726     0.8479     0.6247
  5 H      0.9139     1.0000     0.0861     1.1150     1.0072     0.1079
  6 H      0.9585     1.0000     0.0415     1.1515     1.0019     0.1496

  Mayer bond orders larger than 0.100000
B(  0-O ,  1-C ) :   0.9262 B(  0-O ,  2-C ) :   0.8551 B(  1-C ,  2-C ) :   0.7757 
B(  1-C ,  3-H ) :   0.1271 B(  1-C ,  6-H ) :  -0.1133 B(  2-C ,  3-H ) :   0.1021 
B(  2-C ,  5-H ) :   0.9113 B(  2-C ,  6-H ) :   0.8726 B(  3-H ,  4-H ) :   0.4561 
B(  4-H ,  6-H ) :   0.1212 


-------
TIMINGS
-------

Total TD-DFT gradient time         ...        5.821 sec

Fock matrix formation       ....       0.965 sec  ( 16.6%)
  Coulomb formation         ....       0.771 sec  ( 79.9% of F)
  RI-J                      ....       0.327 sec  ( 33.8% of F)
  Chain of spheres X        ....       0.444 sec  ( 46.0% of F)
  XC integration            ....       0.194 sec  ( 20.1% of F)
Z-vector equation           ....       1.562 sec  ( 26.8%)
One electron gradient       ....       0.038 sec  (  0.6%)
Prescreening matrices       ....       0.181 sec  (  3.1%)
RI-J Coulomb gradient       ....       0.289 sec  (  5.0%)
COSX gradient               ....       0.403 sec  (  6.9%)
XC gradient                 ....       2.049 sec  ( 35.2%)

Maximum memory used throughout the entire SCFGRAD-calculation: 130.3 MB

                            ***************************************
                            *     ORCA property calculations      *
                            ***************************************

                                    ---------------------
                                    Active property flags
                                    ---------------------
   (+) Dipole Moment


------------------------------------------------------------------------------
                       ORCA ELECTRIC PROPERTIES CALCULATION
------------------------------------------------------------------------------

Dipole Moment Calculation                       ... on
Quadrupole Moment Calculation                   ... off
Polarizability Calculation                      ... off
GBWName                                         ... ox_es1_A_orca0039.gbw
Electron density                                ... ox_es1_A_orca0039.scfp
The origin for moment calculation is the CENTER OF MASS  = ( 0.128099, -0.036431  0.021738)

-------------
DIPOLE MOMENT
-------------
                                X             Y             Z
Electronic contribution:      0.40103       1.78776       0.03211
Nuclear contribution   :     -0.36586      -2.42739      -0.07869
                        -----------------------------------------
Total Dipole Moment    :      0.03517      -0.63963      -0.04657
                        -----------------------------------------
Magnitude (a.u.)       :      0.64229
Magnitude (Debye)      :      1.63257



--------------------
Rotational spectrum 
--------------------
 
Rotational constants in cm-1:     0.940555     0.768886     0.503242 
Rotational constants in MHz : 28197.126628 23050.619157 15086.815005 

 Dipole components along the rotational axes: 
x,y,z [a.u.] :    -0.100854    -0.634065     0.018089 
x,y,z [Debye]:    -0.256351    -1.611665     0.045977 

 

                        *** CIS RELAXED DENSITY ***

------------------------------------------------------------------------------
                       ORCA ELECTRIC PROPERTIES CALCULATION
------------------------------------------------------------------------------

Dipole Moment Calculation                       ... on
Quadrupole Moment Calculation                   ... off
Polarizability Calculation                      ... off
GBWName                                         ... ox_es1_A_orca0039.gbw
Electron density                                ... ox_es1_A_orca0039.cisp
The origin for moment calculation is the CENTER OF MASS  = ( 0.128099, -0.036431  0.021738)

-------------
DIPOLE MOMENT
-------------
                                X             Y             Z
Electronic contribution:      1.61795       2.63690      -0.02202
Nuclear contribution   :     -0.36586      -2.42739      -0.07869
                        -----------------------------------------
Total Dipole Moment    :      1.25209       0.20951      -0.10070
                        -----------------------------------------
Magnitude (a.u.)       :      1.27348
Magnitude (Debye)      :      3.23694



--------------------
Rotational spectrum 
--------------------
 
Rotational constants in cm-1:     0.940555     0.768886     0.503242 
Rotational constants in MHz : 28197.126628 23050.619157 15086.815005 

 Dipole components along the rotational axes: 
x,y,z [a.u.] :     1.265285    -0.070348    -0.125964 
x,y,z [Debye]:     3.216099    -0.178811    -0.320174 

 

Timings for individual modules:

Sum of individual times         ...        8.823 sec (=   0.147 min)
GTO integral calculation        ...        0.309 sec (=   0.005 min)   3.5 %
SCF iterations                  ...        1.249 sec (=   0.021 min)  14.2 %
CIS module                      ...        1.164 sec (=   0.019 min)  13.2 %
SCF Gradient evaluation         ...        6.102 sec (=   0.102 min)  69.2 %
                             ****ORCA TERMINATED NORMALLY****
TOTAL RUN TIME: 0 days 0 hours 0 minutes 9 seconds 203 msec
