
                                 *****************
                                 * O   R   C   A *
                                 *****************

                                            #,                                       
                                            ###                                      
                                            ####                                     
                                            #####                                    
                                            ######                                   
                                           ########,                                 
                                     ,,################,,,,,                         
                               ,,#################################,,                 
                          ,,##########################################,,             
                       ,#########################################, ''#####,          
                    ,#############################################,,   '####,        
                  ,##################################################,,,,####,       
                ,###########''''           ''''###############################       
              ,#####''   ,,,,##########,,,,          '''####'''          '####       
            ,##' ,,,,###########################,,,                        '##       
           ' ,,###''''                  '''############,,,                           
         ,,##''                                '''############,,,,        ,,,,,,###''
      ,#''                                            '''#######################'''  
     '                                                          ''''####''''         
             ,#######,   #######,   ,#######,      ##                                
            ,#'     '#,  ##    ##  ,#'     '#,    #''#        ######   ,####,        
            ##       ##  ##   ,#'  ##            #'  '#       #        #'  '#        
            ##       ##  #######   ##           ,######,      #####,   #    #        
            '#,     ,#'  ##    ##  '#,     ,#' ,#      #,         ##   #,  ,#        
             '#######'   ##     ##  '#######'  #'      '#     #####' # '####'        



                  #######################################################
                  #                        -***-                        #
                  #          Department of theory and spectroscopy      #
                  #    Directorship and core code : Frank Neese         #
                  #        Max Planck Institute fuer Kohlenforschung    #
                  #                Kaiser Wilhelm Platz 1               #
                  #                 D-45470 Muelheim/Ruhr               #
                  #                      Germany                        #
                  #                                                     #
                  #                  All rights reserved                #
                  #                        -***-                        #
                  #######################################################


                         Program Version 5.0.2 -  RELEASE  -


 With contributions from (in alphabetic order):
   Daniel Aravena         : Magnetic Suceptibility
   Michael Atanasov       : Ab Initio Ligand Field Theory (pilot matlab implementation)
   Alexander A. Auer      : GIAO ZORA, VPT2 properties, NMR spectrum
   Ute Becker             : Parallelization
   Giovanni Bistoni       : ED, misc. LED, open-shell LED, HFLD
   Martin Brehm           : Molecular dynamics
   Dmytro Bykov           : SCF Hessian
   Vijay G. Chilkuri      : MRCI spin determinant printing, contributions to CSF-ICE
   Dipayan Datta          : RHF DLPNO-CCSD density
   Achintya Kumar Dutta   : EOM-CC, STEOM-CC
   Dmitry Ganyushin       : Spin-Orbit,Spin-Spin,Magnetic field MRCI
   Miquel Garcia          : C-PCM and meta-GGA Hessian, CC/C-PCM, Gaussian charge scheme
   Yang Guo               : DLPNO-NEVPT2, F12-NEVPT2, CIM, IAO-localization
   Andreas Hansen         : Spin unrestricted coupled pair/coupled cluster methods
   Benjamin Helmich-Paris : MC-RPA, TRAH-SCF, COSX integrals
   Lee Huntington         : MR-EOM, pCC
   Robert Izsak           : Overlap fitted RIJCOSX, COSX-SCS-MP3, EOM
   Marcus Kettner         : VPT2
   Christian Kollmar      : KDIIS, OOCD, Brueckner-CCSD(T), CCSD density, CASPT2, CASPT2-K
   Simone Kossmann        : Meta GGA functionals, TD-DFT gradient, OOMP2, MP2 Hessian
   Martin Krupicka        : Initial AUTO-CI
   Lucas Lang             : DCDCAS
   Marvin Lechner         : AUTO-CI (C++ implementation), FIC-MRCC
   Dagmar Lenk            : GEPOL surface, SMD
   Dimitrios Liakos       : Extrapolation schemes; Compound Job, initial MDCI parallelization
   Dimitrios Manganas     : Further ROCIS development; embedding schemes
   Dimitrios Pantazis     : SARC Basis sets
   Anastasios Papadopoulos: AUTO-CI, single reference methods and gradients
   Taras Petrenko         : DFT Hessian,TD-DFT gradient, ASA, ECA, R-Raman, ABS, FL, XAS/XES, NRVS
   Peter Pinski           : DLPNO-MP2, DLPNO-MP2 Gradient
   Christoph Reimann      : Effective Core Potentials
   Marius Retegan         : Local ZFS, SOC
   Christoph Riplinger    : Optimizer, TS searches, QM/MM, DLPNO-CCSD(T), (RO)-DLPNO pert. Triples
   Tobias Risthaus        : Range-separated hybrids, TD-DFT gradient, RPA, STAB
   Michael Roemelt        : Original ROCIS implementation
   Masaaki Saitow         : Open-shell DLPNO-CCSD energy and density
   Barbara Sandhoefer     : DKH picture change effects
   Avijit Sen             : IP-ROCIS
   Kantharuban Sivalingam : CASSCF convergence, NEVPT2, FIC-MRCI
   Bernardo de Souza      : ESD, SOC TD-DFT
   Georgi Stoychev        : AutoAux, RI-MP2 NMR, DLPNO-MP2 response
   Willem Van den Heuvel  : Paramagnetic NMR
   Boris Wezisla          : Elementary symmetry handling
   Frank Wennmohs         : Technical directorship


 We gratefully acknowledge several colleagues who have allowed us to
 interface, adapt or use parts of their codes:
   Stefan Grimme, W. Hujo, H. Kruse, P. Pracht,  : VdW corrections, initial TS optimization,
                  C. Bannwarth, S. Ehlert          DFT functionals, gCP, sTDA/sTD-DF
   Ed Valeev, F. Pavosevic, A. Kumar             : LibInt (2-el integral package), F12 methods
   Garnet Chan, S. Sharma, J. Yang, R. Olivares  : DMRG
   Ulf Ekstrom                                   : XCFun DFT Library
   Mihaly Kallay                                 : mrcc  (arbitrary order and MRCC methods)
   Jiri Pittner, Ondrej Demel                    : Mk-CCSD
   Frank Weinhold                                : gennbo (NPA and NBO analysis)
   Christopher J. Cramer and Donald G. Truhlar   : smd solvation model
   Lars Goerigk                                  : TD-DFT with DH, B97 family of functionals
   V. Asgeirsson, H. Jonsson                     : NEB implementation
   FAccTs GmbH                                   : IRC, NEB, NEB-TS, DLPNO-Multilevel, CI-OPT
                                                   MM, QMMM, 2- and 3-layer-ONIOM, Crystal-QMMM,
                                                   LR-CPCM, SF, NACMEs, symmetry and pop. for TD-DFT,
                                                   nearIR, NL-DFT gradient (VV10), updates on ESD,
                                                   ML-optimized integration grids
   S Lehtola, MJT Oliveira, MAL Marques          : LibXC Library
   Liviu Ungur et al                             : ANISO software


 Your calculation uses the libint2 library for the computation of 2-el integrals
 For citations please refer to: http://libint.valeyev.net

 Your ORCA version has been built with support for libXC version: 5.1.0
 For citations please refer to: https://tddft.org/programs/libxc/

 This ORCA versions uses:
   CBLAS   interface :  Fast vector & matrix operations
   LAPACKE interface :  Fast linear algebra routines
   SCALAPACK package :  Parallel linear algebra routines
   Shared memory     :  Shared parallel matrices
   BLAS/LAPACK       :  OpenBLAS 0.3.15  USE64BITINT DYNAMIC_ARCH NO_AFFINITY SkylakeX SINGLE_THREADED
        Core in use  :  SkylakeX
   Copyright (c) 2011-2014, The OpenBLAS Project


Your calculation utilizes the atom-pairwise dispersion correction
with the Becke-Johnson damping scheme (D3BJ)
Cite in your paper:
S.Grimme, S.Ehrlich, L.Goerigk, J Comput Chem, (2011), 32, 1456–1465 
S.Grimme, J.Antony, S.Ehrlich and H.Krieg, J.Chem.Phys., 132, (2010), 154104 
   

================================================================================

----- Orbital basis set information -----
Your calculation utilizes the basis: def2-TZVP
   F. Weigend and R. Ahlrichs, Phys. Chem. Chem. Phys. 7, 3297 (2005).

----- AuxJ basis set information -----
Your calculation utilizes the auxiliary basis: def2/J
   F. Weigend, Phys. Chem. Chem. Phys. 8, 1057 (2006).

================================================================================
                                        WARNINGS
                       Please study these warnings very carefully!
================================================================================

INFO   : Checking CIS options ...

WARNING: CIS/ROCIS methods need fully converged wavefunctions
  ===> : Setting SCFConvForced true
         You can overwrite this default with %scf ConvForced false 


INFO   : the flag for use of the SHARK integral package has been found!

================================================================================
                                       INPUT FILE
================================================================================
NAME = ox_es1_A_orca0018.inp
|  1> ! engrad PBE0 D3BJ def2-TZVP  
|  2> %pal nprocs 8 end
|  3> %maxcore 3000
|  4> 
|  5> %tddft
|  6>   nroots 1
|  7>   tda true
|  8>   Iroot 1
|  9>   end 
| 10> *xyz 0 1 
| 11> O   0.10949019666088362 0.7265093957322425 -0.04198598210903881
| 12> C   -0.758859222272201 -0.5532152762154904 -0.026287751084038052
| 13> C   0.690932906922315 -0.43950080067618963 0.017087798788857973
| 14> H   -1.1700143880392055 -0.6207496180906975 0.8911310372168798
| 15> H   -1.308743503567418 -0.6436749514246748 -0.9859878803510321
| 16> H   1.3553957582927176 -0.6092988539639357 -0.9434350026052353
| 17> H   1.1781661435454562 -0.6005771912917294 0.9142491777373691
| 18> *
| 19> 
| 20>                          ****END OF INPUT****
================================================================================

                     *******************************
                     * Energy+Gradient Calculation *
                     *******************************

---------------------------------
CARTESIAN COORDINATES (ANGSTROEM)
---------------------------------
  O      0.109490    0.726509   -0.041986
  C     -0.758859   -0.553215   -0.026288
  C      0.690933   -0.439501    0.017088
  H     -1.170014   -0.620750    0.891131
  H     -1.308744   -0.643675   -0.985988
  H      1.355396   -0.609299   -0.943435
  H      1.178166   -0.600577    0.914249

----------------------------
CARTESIAN COORDINATES (A.U.)
----------------------------
  NO LB      ZA    FRAG     MASS         X           Y           Z
   0 O     8.0000    0    15.999    0.206906    1.372904   -0.079342
   1 C     6.0000    0    12.011   -1.434036   -1.045425   -0.049677
   2 C     6.0000    0    12.011    1.305674   -0.830536    0.032291
   3 H     1.0000    0     1.008   -2.211007   -1.173047    1.683994
   4 H     1.0000    0     1.008   -2.473167   -1.216369   -1.863247
   5 H     1.0000    0     1.008    2.561327   -1.151408   -1.782834
   6 H     1.0000    0     1.008    2.226411   -1.134926    1.727681

--------------------------------
INTERNAL COORDINATES (ANGSTROEM)
--------------------------------
 O      0   0   0     0.000000000000     0.00000000     0.00000000
 C      1   0   0     1.546600266329     0.00000000     0.00000000
 C      1   2   0     1.304279538686    60.66670444     0.00000000
 H      2   1   3     1.007604431708   107.08586409   105.64203460
 H      2   1   3     1.109765747250   109.68622235   244.58978796
 H      3   1   2     1.180231465328   110.04366846   117.11052226
 H      3   1   2     1.033557144216   112.87952030   246.72491958

---------------------------
INTERNAL COORDINATES (A.U.)
---------------------------
 O      0   0   0     0.000000000000     0.00000000     0.00000000
 C      1   0   0     2.922650942012     0.00000000     0.00000000
 C      1   2   0     2.464731130193    60.66670444     0.00000000
 H      2   1   3     1.904096427253   107.08586409   105.64203460
 H      2   1   3     2.097153335109   109.68622235   244.58978796
 H      3   1   2     2.230314244106   110.04366846   117.11052226
 H      3   1   2     1.953139946327   112.87952030   246.72491958

---------------------
BASIS SET INFORMATION
---------------------
There are 3 groups of distinct atoms

 Group   1 Type O   : 11s6p2d1f contracted to 5s3p2d1f pattern {62111/411/11/1}
 Group   2 Type C   : 11s6p2d1f contracted to 5s3p2d1f pattern {62111/411/11/1}
 Group   3 Type H   : 5s1p contracted to 3s1p pattern {311/1}

Atom   0O    basis set group =>   1
Atom   1C    basis set group =>   2
Atom   2C    basis set group =>   2
Atom   3H    basis set group =>   3
Atom   4H    basis set group =>   3
Atom   5H    basis set group =>   3
Atom   6H    basis set group =>   3
---------------------------------
AUXILIARY/J BASIS SET INFORMATION
---------------------------------
There are 3 groups of distinct atoms

 Group   1 Type O   : 12s5p4d2f1g contracted to 6s4p3d1f1g pattern {711111/2111/211/2/1}
 Group   2 Type C   : 12s5p4d2f1g contracted to 6s4p3d1f1g pattern {711111/2111/211/2/1}
 Group   3 Type H   : 5s2p1d contracted to 3s1p1d pattern {311/2/1}

Atom   0O    basis set group =>   1
Atom   1C    basis set group =>   2
Atom   2C    basis set group =>   2
Atom   3H    basis set group =>   3
Atom   4H    basis set group =>   3
Atom   5H    basis set group =>   3
Atom   6H    basis set group =>   3

Checking for AutoStart:
The File: ox_es1_A_orca0018.gbw exists
Trying to determine its content:
     ... Fine, the file contains calculation information
     ... Fine, the calculation information was read
     ... Fine, the file contains a basis set
     ... Fine, the basis set was read
     ... Fine, the file contains a geometry
     ... Fine, the geometry was read
     ... Fine, the file contains a set of orbitals
     ... Fine, the orbitals can be read
     => possible old guess file was deleted
     => GBW file was renamed to GES file
     => GES file is set as startup file
     => Guess is set to MORead
     ... now leaving AutoStart



           ************************************************************
           *        Program running with 8 parallel MPI-processes     *
           *              working on a common directory               *
           ************************************************************
------------------------------------------------------------------------------
                           ORCA GTO INTEGRAL CALCULATION
                           -- RI-GTO INTEGRALS CHOSEN --
------------------------------------------------------------------------------
------------------------------------------------------------------------------
                   ___                                                        
                  /   \      - P O W E R E D   B Y -                         
                 /     \                                                     
                 |  |  |   _    _      __       _____    __    __             
                 |  |  |  | |  | |    /  \     |  _  \  |  |  /  |          
                  \  \/   | |  | |   /    \    | | | |  |  | /  /          
                 / \  \   | |__| |  /  /\  \   | |_| |  |  |/  /          
                |  |  |   |  __  | /  /__\  \  |    /   |      \           
                |  |  |   | |  | | |   __   |  |    \   |  |\   \          
                \     /   | |  | | |  |  |  |  | |\  \  |  | \   \       
                 \___/    |_|  |_| |__|  |__|  |_| \__\ |__|  \__/        
                                                                              
                      - O R C A' S   B I G   F R I E N D -                    
                                      &                                       
                       - I N T E G R A L  F E E D E R -                       
                                                                              
 v1 FN, 2020, v2 2021                                                         
------------------------------------------------------------------------------


Reading SHARK input file ox_es1_A_orca0018.SHARKINP.tmp ... ok
----------------------
SHARK INTEGRAL PACKAGE
----------------------

Number of atoms                             ...      7
Number of basis functions                   ...    117
Number of shells                            ...     49
Maximum angular momentum                    ...      3
Integral batch strategy                     ... SHARK/LIBINT Hybrid
RI-J (if used) integral strategy            ... SPLIT-RIJ (Revised 2003 algorithm where possible)
Printlevel                                  ...      1
Contraction scheme used                     ... SEGMENTED contraction
Coulomb Range Separation                    ... NOT USED
Exchange Range Separation                   ... NOT USED
Finite Nucleus Model                        ... NOT USED
Auxiliary Coulomb fitting basis             ... AVAILABLE
   # of basis functions in Aux-J            ...    191
   # of shells in Aux-J                     ...     65
   Maximum angular momentum in Aux-J        ...      4
Auxiliary J/K fitting basis                 ... NOT available
Auxiliary Correlation fitting basis         ... NOT available
Auxiliary 'external' fitting basis          ... NOT available
Integral threshold                          ...     2.500000e-11
Primitive cut-off                           ...     2.500000e-12
Primitive pair pre-selection threshold      ...     2.500000e-12

Calculating pre-screening integrals         ... done (  0.0 sec) Dimension = 49
Organizing shell pair data                  ... done (  0.0 sec)
Shell pair information
Total number of shell pairs                 ...      1225
Shell pairs after pre-screening             ...      1221
Total number of primitive shell pairs       ...      3648
Primitive shell pairs kept                  ...      3156
          la=0 lb=0:    374 shell pairs
          la=1 lb=0:    351 shell pairs
          la=1 lb=1:     91 shell pairs
          la=2 lb=0:    162 shell pairs
          la=2 lb=1:     78 shell pairs
          la=2 lb=2:     21 shell pairs
          la=3 lb=0:     81 shell pairs
          la=3 lb=1:     39 shell pairs
          la=3 lb=2:     18 shell pairs
          la=3 lb=3:      6 shell pairs

Calculating one electron integrals          ... done (  0.0 sec)
Calculating RI/J V-Matrix + Cholesky decomp.... done (  0.0 sec)
Calculating Nuclear repulsion               ... done (  0.0 sec) ENN=     76.114277477210 Eh

SHARK setup successfully completed in   0.1 seconds

Maximum memory used throughout the entire GTOINT-calculation: 14.9 MB


           ************************************************************
           *        Program running with 8 parallel MPI-processes     *
           *              working on a common directory               *
           ************************************************************
-------------------------------------------------------------------------------
                                 ORCA SCF
-------------------------------------------------------------------------------

------------
SCF SETTINGS
------------
Hamiltonian:
 Density Functional     Method          .... DFT(GTOs)
 Exchange Functional    Exchange        .... PBE
   PBE kappa parameter   XKappa         ....  0.804000
   PBE mue parameter    XMuePBE         ....  0.219520
 Correlation Functional Correlation     .... PBE
   PBE beta parameter  CBetaPBE         ....  0.066725
 LDA part of GGA corr.  LDAOpt          .... PW91-LDA
 Gradients option       PostSCFGGA      .... off
 Hybrid DFT is turned on
   Fraction HF Exchange ScalHFX         ....  0.250000
   Scaling of DF-GGA-X  ScalDFX         ....  0.750000
   Scaling of DF-GGA-C  ScalDFC         ....  1.000000
   Scaling of DF-LDA-C  ScalLDAC        ....  1.000000
   Perturbative correction              ....  0.000000
   Density functional embedding theory  .... OFF
   NL short-range parameter             ....  6.900000
 RI-approximation to the Coulomb term is turned on
   Number of AuxJ basis functions       .... 191
   RIJ-COSX (HFX calculated with COS-X)).... on


General Settings:
 Integral files         IntName         .... ox_es1_A_orca0018
 Hartree-Fock type      HFTyp           .... RHF
 Total Charge           Charge          ....    0
 Multiplicity           Mult            ....    1
 Number of Electrons    NEL             ....   24
 Basis Dimension        Dim             ....  117
 Nuclear Repulsion      ENuc            ....     76.1142774772 Eh

Convergence Acceleration:
 DIIS                   CNVDIIS         .... on
   Start iteration      DIISMaxIt       ....    12
   Startup error        DIISStart       ....  0.200000
   # of expansion vecs  DIISMaxEq       ....     5
   Bias factor          DIISBfac        ....   1.050
   Max. coefficient     DIISMaxC        ....  10.000
 Trust-Rad. Augm. Hess. CNVTRAH         .... auto
   Auto Start mean grad. ratio tolernc. ....  1.125000
   Auto Start start iteration           ....     1
   Auto Start num. interpolation iter.  ....    10
   Max. Number of Micro iterations      ....    16
   Max. Number of Macro iterations      .... Maxiter - #DIIS iter
   Number of Davidson start vectors     ....     2
   Converg. threshold I  (grad. norm)   ....   1.000e-05
   Converg. threshold II (energy diff.) ....   1.000e-08
   Grad. Scal. Fac. for Micro threshold ....   0.100
   Minimum threshold for Micro iter.    ....   0.010
   NR start threshold (gradient norm)   ....   0.001
   Initial trust radius                 ....   0.400
   Minimum AH scaling param. (alpha)    ....   1.000
   Maximum AH scaling param. (alpha)    .... 1000.000
   Orbital update algorithm             .... Taylor
   White noise on init. David. guess    .... on
   Maximum white noise                  ....   0.010
   Quad. conv. algorithm                .... NR
 SOSCF                  CNVSOSCF        .... on
   Start iteration      SOSCFMaxIt      ....   150
   Startup grad/error   SOSCFStart      ....  0.003300
 Level Shifting         CNVShift        .... on
   Level shift para.    LevelShift      ....    0.2500
   Turn off err/grad.   ShiftErr        ....    0.0010
 Zerner damping         CNVZerner       .... off
 Static damping         CNVDamp         .... on
   Fraction old density DampFac         ....    0.7000
   Max. Damping (<1)    DampMax         ....    0.9800
   Min. Damping (>=0)   DampMin         ....    0.0000
   Turn off err/grad.   DampErr         ....    0.1000
 Fernandez-Rico         CNVRico         .... off

SCF Procedure:
 Maximum # iterations   MaxIter         ....   125
 SCF integral mode      SCFMode         .... Direct
   Integral package                     .... SHARK and LIBINT hybrid scheme
 Reset frequency        DirectResetFreq ....    20
 Integral Threshold     Thresh          ....  2.500e-11 Eh
 Primitive CutOff       TCut            ....  2.500e-12 Eh

Convergence Tolerance:
 Convergence Check Mode ConvCheckMode   .... Total+1el-Energy
 Convergence forced     ConvForced      .... 1
 Energy Change          TolE            ....  1.000e-08 Eh
 1-El. energy change                    ....  1.000e-05 Eh
 Orbital Gradient       TolG            ....  1.000e-05
 Orbital Rotation angle TolX            ....  1.000e-05
 DIIS Error             TolErr          ....  5.000e-07


Diagonalization of the overlap matrix:
Smallest eigenvalue                        ... 3.531e-04
Time for diagonalization                   ...    0.001 sec
Threshold for overlap eigenvalues          ... 1.000e-08
Number of eigenvalues below threshold      ... 0
Time for construction of square roots      ...    0.001 sec
Total time needed                          ...    0.003 sec

---------------------
INITIAL GUESS: MOREAD
---------------------
Guess MOs are being read from file: ox_es1_A_orca0018.ges
Input Geometry matches current geometry (good)
Input basis set matches current basis set (good)
MOs were renormalized
MOs were reorthogonalized (Cholesky)
                      ------------------
                      INITIAL GUESS DONE (   0.0 sec)
                      ------------------
-------------------
DFT GRID GENERATION
-------------------

General Integration Accuracy     IntAcc      ... 4.388
Radial Grid Type                 RadialGrid  ... OptM3 with GC (2021)
Angular Grid (max. ang.)         AngularGrid ... 4 (Lebedev-302)
Angular grid pruning method      GridPruning ... 4 (adaptive)
Weight generation scheme         WeightScheme... Becke
Basis function cutoff            BFCut       ... 1.0000e-11
Integration weight cutoff        WCut        ... 1.0000e-14
Angular grids for H and He will be reduced by one unit
Partially contracted basis set               ... off
Rotationally invariant grid construction     ... off

Total number of grid points                  ...    31296
Total number of batches                      ...      493
Average number of points per batch           ...       63
Average number of grid points per atom       ...     4471
Time for grid setup =    0.117 sec

--------------------
COSX GRID GENERATION
--------------------

GRIDX 1
-------
General Integration Accuracy     IntAcc      ... 3.816
Radial Grid Type                 RadialGrid  ... OptM3 with GC (2021)
Angular Grid (max. ang.)         AngularGrid ... 1 (Lebedev-50)
Angular grid pruning method      GridPruning ... 4 (adaptive)
Weight generation scheme         WeightScheme... Becke
Basis function cutoff            BFCut       ... 1.0000e-11
Integration weight cutoff        WCut        ... 1.0000e-14
Angular grids for H and He will be reduced by one unit
Partially contracted basis set               ... on
Rotationally invariant grid construction     ... off

Total number of grid points                  ...     4035
Total number of batches                      ...       67
Average number of points per batch           ...       60
Average number of grid points per atom       ...      576
UseSFitting                                  ... on

GRIDX 2
-------
General Integration Accuracy     IntAcc      ... 4.020
Radial Grid Type                 RadialGrid  ... OptM3 with GC (2021)
Angular Grid (max. ang.)         AngularGrid ... 2 (Lebedev-110)
Angular grid pruning method      GridPruning ... 4 (adaptive)
Weight generation scheme         WeightScheme... Becke
Basis function cutoff            BFCut       ... 1.0000e-11
Integration weight cutoff        WCut        ... 1.0000e-14
Angular grids for H and He will be reduced by one unit
Partially contracted basis set               ... on
Rotationally invariant grid construction     ... off

Total number of grid points                  ...     8708
Total number of batches                      ...      140
Average number of points per batch           ...       62
Average number of grid points per atom       ...     1244
UseSFitting                                  ... on

GRIDX 3
-------
General Integration Accuracy     IntAcc      ... 4.338
Radial Grid Type                 RadialGrid  ... OptM3 with GC (2021)
Angular Grid (max. ang.)         AngularGrid ... 3 (Lebedev-194)
Angular grid pruning method      GridPruning ... 4 (adaptive)
Weight generation scheme         WeightScheme... Becke
Basis function cutoff            BFCut       ... 1.0000e-11
Integration weight cutoff        WCut        ... 1.0000e-14
Angular grids for H and He will be reduced by one unit
Partially contracted basis set               ... on
Rotationally invariant grid construction     ... off

Total number of grid points                  ...    19223
Total number of batches                      ...      302
Average number of points per batch           ...       63
Average number of grid points per atom       ...     2746
UseSFitting                                  ... on

Time for X-Grid setup             =    0.072 sec

--------------
SCF ITERATIONS
--------------
ITER       Energy         Delta-E        Max-DP      RMS-DP      [F,P]     Damp
               ***  Starting incremental Fock matrix formation  ***
                      *** Initiating the SOSCF procedure ***
                      *** Re-Reading the Fockian *** 
                      *** Removing any level shift *** 
ITER      Energy       Delta-E        Grad      Rot      Max-DP    RMS-DP
  0   -153.64408985 -153.6440898535  0.000001  0.000001  0.000001  0.000000
               *** Restarting incremental Fock matrix formation ***
                  ***Gradient check signals convergence***
              ***Rediagonalizing the Fockian in SOSCF/NRSCF***

               *****************************************************
               *                     SUCCESS                       *
               *           SCF CONVERGED AFTER   1 CYCLES          *
               *****************************************************

Old exchange energy                            =     -5.006638684 Eh
New exchange energy                            =     -5.006631569 Eh
Exchange energy change after final integration =      0.000007115 Eh
Total energy after final integration           =   -153.644082738 Eh
Final COS-X integration done in                =     0.261 sec

----------------
TOTAL SCF ENERGY
----------------

Total Energy       :         -153.64408274 Eh           -4180.86804 eV

Components:
Nuclear Repulsion  :           76.11427748 Eh            2071.17479 eV
Electronic Energy  :         -229.75836022 Eh           -6252.04283 eV
One Electron Energy:         -358.80893700 Eh           -9763.68755 eV
Two Electron Energy:          129.05057679 Eh            3511.64472 eV
Max COSX asymmetry :            0.00000267 Eh               0.00007 eV

Virial components:
Potential Energy   :         -306.82646305 Eh           -8349.17252 eV
Kinetic Energy     :          153.18238031 Eh            4168.30448 eV
Virial Ratio       :            2.00301407


DFT components:
N(Alpha)           :       12.000003417199 electrons
N(Beta)            :       12.000003417199 electrons
N(Total)           :       24.000006834397 electrons
E(X)               :      -14.988334824870 Eh       
E(C)               :       -0.791792540731 Eh       
E(XC)              :      -15.780127365601 Eh       
DFET-embed. en.    :        0.000000000000 Eh       

---------------
SCF CONVERGENCE
---------------

  Last Energy change         ...    2.1600e-12  Tolerance :   1.0000e-08
  Last MAX-Density change    ...    6.6613e-16  Tolerance :   1.0000e-07
  Last RMS-Density change    ...    2.8554e-17  Tolerance :   5.0000e-09
  Last Orbital Gradient      ...    2.0710e-07  Tolerance :   1.0000e-05
  Last Orbital Rotation      ...    3.1380e-07  Tolerance :   1.0000e-05

             **** THE GBW FILE WAS UPDATED (ox_es1_A_orca0018.gbw) ****
             **** DENSITY ox_es1_A_orca0018.scfp WAS UPDATED ****
             **** ENERGY FILE WAS UPDATED (ox_es1_A_orca0018.en.tmp) ****
             **** THE GBW FILE WAS UPDATED (ox_es1_A_orca0018.gbw) ****
             **** DENSITY ox_es1_A_orca0018.scfp WAS UPDATED ****
----------------
ORBITAL ENERGIES
----------------

  NO   OCC          E(Eh)            E(eV) 
   0   2.0000     -19.214283      -522.8472 
   1   2.0000     -10.276728      -279.6440 
   2   2.0000     -10.271805      -279.5100 
   3   2.0000      -1.119457       -30.4620 
   4   2.0000      -0.713083       -19.4040 
   5   2.0000      -0.648224       -17.6391 
   6   2.0000      -0.544142       -14.8069 
   7   2.0000      -0.499735       -13.5985 
   8   2.0000      -0.420440       -11.4408 
   9   2.0000      -0.406584       -11.0637 
  10   2.0000      -0.327814        -8.9203 
  11   2.0000      -0.279237        -7.5984 
  12   0.0000       0.045241         1.2311 
  13   0.0000       0.062261         1.6942 
  14   0.0000       0.084410         2.2969 
  15   0.0000       0.097552         2.6545 
  16   0.0000       0.126190         3.4338 
  17   0.0000       0.152139         4.1399 
  18   0.0000       0.187522         5.1027 
  19   0.0000       0.207731         5.6527 
  20   0.0000       0.260395         7.0857 
  21   0.0000       0.270724         7.3668 
  22   0.0000       0.291920         7.9435 
  23   0.0000       0.342568         9.3218 
  24   0.0000       0.396084        10.7780 
  25   0.0000       0.401867        10.9354 
  26   0.0000       0.425176        11.5696 
  27   0.0000       0.445685        12.1277 
  28   0.0000       0.463438        12.6108 
  29   0.0000       0.485580        13.2133 
  30   0.0000       0.507729        13.8160 
  31   0.0000       0.525098        14.2886 
  32   0.0000       0.565501        15.3881 
  33   0.0000       0.686879        18.6909 
  34   0.0000       0.697018        18.9668 
  35   0.0000       0.748935        20.3796 
  36   0.0000       0.815350        22.1868 
  37   0.0000       0.831822        22.6350 
  38   0.0000       0.880148        23.9501 
  39   0.0000       0.929814        25.3015 
  40   0.0000       1.015437        27.6315 
  41   0.0000       1.046559        28.4783 
  42   0.0000       1.067305        29.0428 
  43   0.0000       1.078816        29.3561 
  44   0.0000       1.197544        32.5868 
  45   0.0000       1.353960        36.8431 
  46   0.0000       1.439086        39.1595 
  47   0.0000       1.495436        40.6929 
  48   0.0000       1.518888        41.3310 
  49   0.0000       1.536465        41.8093 
  50   0.0000       1.606172        43.7062 
  51   0.0000       1.639491        44.6128 
  52   0.0000       1.666576        45.3499 
  53   0.0000       1.680708        45.7344 
  54   0.0000       1.762880        47.9704 
  55   0.0000       1.797979        48.9255 
  56   0.0000       1.825914        49.6857 
  57   0.0000       1.860425        50.6247 
  58   0.0000       1.953688        53.1625 
  59   0.0000       2.044366        55.6300 
  60   0.0000       2.098197        57.0949 
  61   0.0000       2.139711        58.2245 
  62   0.0000       2.221003        60.4366 
  63   0.0000       2.255296        61.3697 
  64   0.0000       2.301397        62.6242 
  65   0.0000       2.400042        65.3085 
  66   0.0000       2.445080        66.5340 
  67   0.0000       2.481193        67.5167 
  68   0.0000       2.572038        69.9887 
  69   0.0000       2.610439        71.0337 
  70   0.0000       2.619460        71.2791 
  71   0.0000       2.651295        72.1454 
  72   0.0000       2.698110        73.4193 
  73   0.0000       2.770358        75.3853 
  74   0.0000       2.807589        76.3984 
  75   0.0000       2.868090        78.0447 
  76   0.0000       2.926103        79.6233 
  77   0.0000       2.959712        80.5379 
  78   0.0000       2.966467        80.7217 
  79   0.0000       3.044674        82.8498 
  80   0.0000       3.074174        83.6525 
  81   0.0000       3.099582        84.3439 
  82   0.0000       3.149198        85.6940 
  83   0.0000       3.287538        89.4585 
  84   0.0000       3.307334        89.9971 
  85   0.0000       3.331253        90.6480 
  86   0.0000       3.387427        92.1766 
  87   0.0000       3.425660        93.2169 
  88   0.0000       3.552466        96.6675 
  89   0.0000       3.603551        98.0576 
  90   0.0000       3.664214        99.7083 
  91   0.0000       3.744406       101.8905 
  92   0.0000       3.895021       105.9889 
  93   0.0000       3.994397       108.6931 
  94   0.0000       4.067774       110.6898 
  95   0.0000       4.110735       111.8588 
  96   0.0000       4.139904       112.6525 
  97   0.0000       4.345839       118.2563 
  98   0.0000       4.389510       119.4446 
  99   0.0000       4.565624       124.2369 
 100   0.0000       4.718771       128.4043 
 101   0.0000       4.921010       133.9075 
 102   0.0000       5.350026       145.5816 
 103   0.0000       5.404892       147.0746 
 104   0.0000       5.585414       151.9868 
 105   0.0000       5.790075       157.5560 
 106   0.0000       5.925766       161.2483 
 107   0.0000       5.987585       162.9305 
 108   0.0000       6.147236       167.2748 
 109   0.0000       6.628350       180.3666 
 110   0.0000       6.632314       180.4744 
 111   0.0000       6.845403       186.2729 
 112   0.0000       6.981582       189.9785 
 113   0.0000       7.189363       195.6325 
 114   0.0000      22.280144       606.2735 
 115   0.0000      22.628310       615.7476 
 116   0.0000      43.876828      1193.9492 

                    ********************************
                    * MULLIKEN POPULATION ANALYSIS *
                    ********************************

-----------------------
MULLIKEN ATOMIC CHARGES
-----------------------
   0 O :   -0.309293
   1 C :   -0.147563
   2 C :   -0.007721
   3 H :    0.137251
   4 H :    0.148691
   5 H :    0.084373
   6 H :    0.094263
Sum of atomic charges:   -0.0000000

--------------------------------
MULLIKEN REDUCED ORBITAL CHARGES
--------------------------------
  0 O s       :     3.851236  s :     3.851236
      pz      :     1.837035  p :     4.412411
      px      :     1.312099
      py      :     1.263277
      dz2     :     0.005368  d :     0.043352
      dxz     :     0.002991
      dyz     :     0.007368
      dx2y2   :     0.012305
      dxy     :     0.015319
      f0      :     0.000284  f :     0.002295
      f+1     :     0.000189
      f-1     :     0.000467
      f+2     :     0.000114
      f-2     :     0.000235
      f+3     :     0.000406
      f-3     :     0.000600
  1 C s       :     3.258938  s :     3.258938
      pz      :     1.060341  p :     2.786702
      px      :     0.916637
      py      :     0.809724
      dz2     :     0.009423  d :     0.092004
      dxz     :     0.022792
      dyz     :     0.020506
      dx2y2   :     0.021811
      dxy     :     0.017472
      f0      :     0.001457  f :     0.009919
      f+1     :     0.001373
      f-1     :     0.000296
      f+2     :     0.001058
      f-2     :     0.001259
      f+3     :     0.002067
      f-3     :     0.002410
  2 C s       :     3.194367  s :     3.194367
      pz      :     1.024744  p :     2.656765
      px      :     0.878575
      py      :     0.753447
      dz2     :     0.005852  d :     0.142311
      dxz     :     0.030759
      dyz     :     0.040853
      dx2y2   :     0.037684
      dxy     :     0.027163
      f0      :     0.002052  f :     0.014278
      f+1     :     0.001520
      f-1     :     0.000789
      f+2     :     0.002154
      f-2     :     0.001849
      f+3     :     0.001884
      f-3     :     0.004030
  3 H s       :     0.838462  s :     0.838462
      pz      :     0.012648  p :     0.024288
      px      :     0.006236
      py      :     0.005404
  4 H s       :     0.830203  s :     0.830203
      pz      :     0.011322  p :     0.021106
      px      :     0.005938
      py      :     0.003846
  5 H s       :     0.898010  s :     0.898010
      pz      :     0.008946  p :     0.017617
      px      :     0.005878
      py      :     0.002793
  6 H s       :     0.883045  s :     0.883045
      pz      :     0.011481  p :     0.022691
      px      :     0.006704
      py      :     0.004506


                     *******************************
                     * LOEWDIN POPULATION ANALYSIS *
                     *******************************

----------------------
LOEWDIN ATOMIC CHARGES
----------------------
   0 O :    0.146967
   1 C :   -0.185260
   2 C :   -0.426238
   3 H :    0.105217
   4 H :    0.134766
   5 H :    0.124465
   6 H :    0.100083

-------------------------------
LOEWDIN REDUCED ORBITAL CHARGES
-------------------------------
  0 O s       :     3.364908  s :     3.364908
      pz      :     1.709553  p :     4.380373
      px      :     1.288576
      py      :     1.382244
      dz2     :     0.011392  d :     0.100046
      dxz     :     0.008570
      dyz     :     0.018860
      dx2y2   :     0.033666
      dxy     :     0.027558
      f0      :     0.000803  f :     0.007706
      f+1     :     0.000291
      f-1     :     0.000957
      f+2     :     0.000351
      f-2     :     0.001125
      f+3     :     0.001411
      f-3     :     0.002767
  1 C s       :     2.844445  s :     2.844445
      pz      :     1.060089  p :     2.914200
      px      :     1.041489
      py      :     0.812621
      dz2     :     0.054746  d :     0.370655
      dxz     :     0.114823
      dyz     :     0.047737
      dx2y2   :     0.078090
      dxy     :     0.075258
      f0      :     0.008861  f :     0.055960
      f+1     :     0.005431
      f-1     :     0.004103
      f+2     :     0.006220
      f-2     :     0.004255
      f+3     :     0.011820
      f-3     :     0.015269
  2 C s       :     2.806276  s :     2.806276
      pz      :     1.030631  p :     2.904191
      px      :     1.010849
      py      :     0.862710
      dz2     :     0.062429  d :     0.613004
      dxz     :     0.151366
      dyz     :     0.121933
      dx2y2   :     0.143540
      dxy     :     0.133735
      f0      :     0.014826  f :     0.102767
      f+1     :     0.006814
      f-1     :     0.007551
      f+2     :     0.014864
      f-2     :     0.010203
      f+3     :     0.016630
      f-3     :     0.031880
  3 H s       :     0.817706  s :     0.817706
      pz      :     0.040367  p :     0.077077
      px      :     0.019737
      py      :     0.016973
  4 H s       :     0.805548  s :     0.805548
      pz      :     0.032564  p :     0.059686
      px      :     0.016048
      py      :     0.011074
  5 H s       :     0.829097  s :     0.829097
      pz      :     0.025003  p :     0.046438
      px      :     0.014135
      py      :     0.007299
  6 H s       :     0.831434  s :     0.831434
      pz      :     0.035891  p :     0.068483
      px      :     0.018965
      py      :     0.013627


                      *****************************
                      * MAYER POPULATION ANALYSIS *
                      *****************************

  NA   - Mulliken gross atomic population
  ZA   - Total nuclear charge
  QA   - Mulliken gross atomic charge
  VA   - Mayer's total valence
  BVA  - Mayer's bonded valence
  FA   - Mayer's free valence

  ATOM       NA         ZA         QA         VA         BVA        FA
  0 O      8.3093     8.0000    -0.3093     1.9807     1.9807     0.0000
  1 C      6.1476     6.0000    -0.1476     3.9378     3.9378    -0.0000
  2 C      6.0077     6.0000    -0.0077     4.0227     4.0227     0.0000
  3 H      0.8627     1.0000     0.1373     0.9685     0.9685     0.0000
  4 H      0.8513     1.0000     0.1487     0.9659     0.9659     0.0000
  5 H      0.9156     1.0000     0.0844     0.9633     0.9633    -0.0000
  6 H      0.9057     1.0000     0.0943     0.9523     0.9523     0.0000

  Mayer bond orders larger than 0.100000
B(  0-O ,  1-C ) :   0.9218 B(  0-O ,  2-C ) :   1.0513 B(  1-C ,  2-C ) :   1.0681 
B(  1-C ,  3-H ) :   0.9670 B(  1-C ,  4-H ) :   0.9521 B(  2-C ,  5-H ) :   0.9444 
B(  2-C ,  6-H ) :   0.9519 

-------
TIMINGS
-------

Total SCF time: 0 days 0 hours 0 min 1 sec 

Total time                  ....       1.007 sec
Sum of individual times     ....       0.916 sec  ( 90.9%)

Fock matrix formation       ....       0.708 sec  ( 70.3%)
  Split-RI-J                ....       0.121 sec  ( 17.0% of F)
  Chain of spheres X        ....       0.521 sec  ( 73.6% of F)
  XC integration            ....       0.064 sec  (  9.1% of F)
    Basis function eval.    ....       0.017 sec  ( 26.6% of XC)
    Density eval.           ....       0.013 sec  ( 20.7% of XC)
    XC-Functional eval.     ....       0.004 sec  (  5.9% of XC)
    XC-Potential eval.      ....       0.019 sec  ( 30.2% of XC)
Diagonalization             ....       0.002 sec  (  0.2%)
Density matrix formation    ....       0.000 sec  (  0.0%)
Population analysis         ....       0.002 sec  (  0.2%)
Initial guess               ....       0.010 sec  (  1.0%)
Orbital Transformation      ....       0.000 sec  (  0.0%)
Orbital Orthonormalization  ....       0.001 sec  (  0.1%)
DIIS solution               ....       0.001 sec  (  0.1%)
SOSCF solution              ....       0.002 sec  (  0.2%)
Grid generation             ....       0.189 sec  ( 18.8%)

Maximum memory used throughout the entire SCF-calculation: 61.1 MB


           ************************************************************
           *        Program running with 8 parallel MPI-processes     *
           *              working on a common directory               *
           ************************************************************
------------------------------------------------------------------------------
                        ORCA TD-DFT/TDA CALCULATION
------------------------------------------------------------------------------

Input orbitals are from        ... ox_es1_A_orca0018.gbw
CI-vector output               ... ox_es1_A_orca0018.cis
Tamm-Dancoff approximation     ... operative
CIS-Integral strategy          ... AO-integrals
Integral handling              ... AO integral Direct
Max. core memory used          ... 3000 MB
Reference state                ... RHF
Generation of triplets         ... off
Follow IRoot                   ... off
Number of operators            ... 1
Orbital ranges used for CIS calculation:
 Operator 0:  Orbitals   3... 11  to  12...116
XAS localization array:
 Operator 0:  Orbitals  -1... -1

-------------------
XC-INTEGRATION GRID
-------------------

General Integration Accuracy     IntAcc      ... 3.467
Radial Grid Type                 RadialGrid  ... OptM3 with GC (2021)
Angular Grid (max. ang.)         AngularGrid ... 1 (Lebedev-50)
Angular grid pruning method      GridPruning ... 4 (adaptive)
Weight generation scheme         WeightScheme... Becke
Basis function cutoff            BFCut       ... 1.0000e-11
Integration weight cutoff        WCut        ... 1.0000e-14
Angular grids for H and He will be reduced by one unit
Partially contracted basis set               ... off
Rotationally invariant grid construction     ... off

Total number of grid points                  ...     4536
Total number of batches                      ...       75
Average number of points per batch           ...       60
Average number of grid points per atom       ...      648

---------------------
COSX-INTEGRATION GRID
---------------------

General Integration Accuracy     IntAcc      ... 3.067
Radial Grid Type                 RadialGrid  ... OptM3 with GC (2021)
Angular Grid (max. ang.)         AngularGrid ... 1 (Lebedev-50)
Angular grid pruning method      GridPruning ... 4 (adaptive)
Weight generation scheme         WeightScheme... Becke
Basis function cutoff            BFCut       ... 1.0000e-11
Integration weight cutoff        WCut        ... 1.0000e-14
Angular grids for H and He will be reduced by one unit
Partially contracted basis set               ... on
Rotationally invariant grid construction     ... off

Total number of grid points                  ...     2087
Total number of batches                      ...       37
Average number of points per batch           ...       56
Average number of grid points per atom       ...      298

---------------
TD-DFT XC SETUP
---------------

DFT calculation                         ... on
Name of the grid file                   ... ox_es1_A_orca0018.grid_cis.tmp
Exchange functional (TD-DFT)            ... PBE
   PBE kappa parameter  XKappa (TD-DFT) ...  0.804000
   PBE mue parameter   XMuePBE (TD-DFT) ...  0.219520
Correlation functional (TD-DFT)         ... PBE
   PBE beta parameter CBetaPBE (TD-DFT) ...  0.066725
 LDA part of GGA corr.  LDAOpt (TD-DFT) ... PW91-LDA
Hybrid DFT                              ... on
   Exchange mixing (TD-DFT)             ...  0.250
   GGA exch. scaling (TD-DFT)           ...  0.750
   GGA corr. scaling (TD-DFT)           ...  1.000

Building densities             ... done
Calculating rho(r) on the grid ... done
Building xc-kernel on the grid ... done
                    *** TD-DFT CALCULATION INITIALIZED ***

------------------------
DAVIDSON-DIAGONALIZATION
------------------------

Dimension of the eigenvalue problem            ...    945
Number of roots to be determined               ...      1
Maximum size of the expansion space            ...     10
Maximum number of iterations                   ...    100
Convergence tolerance for the residual         ...    2.500e-07
Convergence tolerance for the energies         ...    2.500e-07
Orthogonality tolerance                        ...    1.000e-14
Level Shift                                    ...    0.000e+00
Constructing the preconditioner                ... o.k.
Building the initial guess                     ... o.k.
Number of trial vectors determined             ...     10


                       ****Iteration    0****

   Memory handling for direct AO based CIS:
   Memory per vector needed      ...     1 MB
   Memory needed                 ...     1 MB
   Memory available              ...  3000 MB
   Number of vectors per batch   ...  3000
   Number of batches             ...     1
   Time for densities:            0.001
   Time for RI-J (Direct):        0.016
   Time for K (COSX):             0.056
   Time for XC-Integration:       0.016
   Time for Sigma-Completion:     0.000
   Size of expansion space: 3
   Lowest Energy          :     0.251675060382
   Maximum Energy change  :     0.251675060382 (vector 0)
   Maximum residual norm  :     0.003626563174

                       ****Iteration    1****
   Time for densities:            0.000
   Time for RI-J (Direct):        0.013
   Time for K (COSX):             0.049
   Time for XC-Integration:       0.007
   Time for Sigma-Completion:     0.000
   Size of expansion space: 4
   Lowest Energy          :     0.247950839743
   Maximum Energy change  :     0.003724220639 (vector 0)
   Maximum residual norm  :     0.000286972555

                       ****Iteration    2****
   Time for densities:            0.000
   Time for RI-J (Direct):        0.012
   Time for K (COSX):             0.049
   Time for XC-Integration:       0.007
   Time for Sigma-Completion:     0.000
   Size of expansion space: 5
   Lowest Energy          :     0.247710962470
   Maximum Energy change  :     0.000239877273 (vector 0)
   Maximum residual norm  :     0.000056382469

                       ****Iteration    3****
   Time for densities:            0.000
   Time for RI-J (Direct):        0.012
   Time for K (COSX):             0.049
   Time for XC-Integration:       0.007
   Time for Sigma-Completion:     0.000
   Size of expansion space: 6
   Lowest Energy          :     0.247664912794
   Maximum Energy change  :     0.000046049676 (vector 0)
   Maximum residual norm  :     0.000005336098

                       ****Iteration    4****
   Time for densities:            0.000
   Time for RI-J (Direct):        0.012
   Time for K (COSX):             0.050
   Time for XC-Integration:       0.007
   Time for Sigma-Completion:     0.000
   Size of expansion space: 7
   Lowest Energy          :     0.247657467647
   Maximum Energy change  :     0.000007445148 (vector 0)
   Maximum residual norm  :     0.000001008003

                       ****Iteration    5****
   Time for densities:            0.000
   Time for RI-J (Direct):        0.012
   Time for K (COSX):             0.050
   Time for XC-Integration:       0.007
   Time for Sigma-Completion:     0.000
   Size of expansion space: 8
   Lowest Energy          :     0.247656454753
   Maximum Energy change  :     0.000001012894 (vector 0)
   Maximum residual norm  :     0.000000064072

      *** CONVERGENCE OF RESIDUAL NORM REACHED ***

Storing the converged CI vectors               ... ox_es1_A_orca0018.cis1

                 *** DAVIDSON DONE ***

Total time for solving the CIS problem:     0.439sec

------------------------------------
TD-DFT/TDA EXCITED STATES (SINGLETS)
------------------------------------

the weight of the individual excitations are printed if larger than 1.0e-02

STATE  1:  E=   0.247656 au      6.739 eV    54354.3 cm**-1 <S**2> =   0.000000
    11a ->  12a  :     0.974140 (c= -0.98698514)


-----------------------------
TD-DFT/TDA-EXCITATION SPECTRA
-----------------------------

Center of mass = (  0.0425, -0.1199, -0.0389)
Calculating the Dipole integrals                  ... done
Transforming integrals                            ... done
Calculating the Linear Momentum integrals         ... done
Transforming integrals                            ... done
Calculating angular momentum integrals            ... done
Transforming integrals                            ... done

-----------------------------------------------------------------------------
         ABSORPTION SPECTRUM VIA TRANSITION ELECTRIC DIPOLE MOMENTS
-----------------------------------------------------------------------------
State   Energy    Wavelength  fosc         T2        TX        TY        TZ  
        (cm-1)      (nm)                 (au**2)    (au)      (au)      (au) 
-----------------------------------------------------------------------------
   1   54354.3    184.0   0.003010036   0.01823   0.01099   0.02932   0.13134

-----------------------------------------------------------------------------
         ABSORPTION SPECTRUM VIA TRANSITION VELOCITY DIPOLE MOMENTS
-----------------------------------------------------------------------------
State   Energy    Wavelength   fosc        P2         PX        PY        PZ  
        (cm-1)      (nm)                 (au**2)     (au)      (au)      (au) 
-----------------------------------------------------------------------------
   1   54354.3    184.0   0.015029752   0.00558   0.00260  -0.00756  -0.07429

-------------------------------------------------------------------
                             CD SPECTRUM
-------------------------------------------------------------------
State  Energy     Wavelength     R         MX        MY        MZ   
       (cm-1)       (nm)     (1e40*cgs)   (au)      (au)      (au)  
-------------------------------------------------------------------
   1   54354.3    184.0      4.35469   0.14226   0.21405   0.01063

-------------------------------------------------------------------
         CD SPECTRUM VIA TRANSITION VELOCITY DIPOLE MOMENTS        
-------------------------------------------------------------------
State  Energy     Wavelength     R         MX        MY        MZ   
       (cm-1)       (nm)     (1e40*cgs)   (au)      (au)      (au)  
-------------------------------------------------------------------
   1   54354.3    184.0     -3.88034   0.14226   0.21405   0.01063

Total run time:        0.702 sec

           *** ORCA-CIS/TD-DFT FINISHED WITHOUT ERROR ***

Maximum memory used throughout the entire CIS-calculation: 49.4 MB

-----------------------
CIS/TD-DFT TOTAL ENERGY
-----------------------

    E(SCF)  =   -153.644082738 Eh
    DE(CIS) =      0.247656455 Eh (Root  1)
    ----------------------------- ---------
    E(tot)  =   -153.396426284 Eh



-------------------------------------------------------------------------------
                          DFT DISPERSION CORRECTION                            
                                                                               
                              DFTD3 V3.1  Rev 1                                
                          USING Becke-Johnson damping                          
-------------------------------------------------------------------------------
The PBE0 functional is recognized
Active option DFTDOPT                   ...         4   

molecular C6(AA) [au] = 351.177721 


            DFT-D V3
 parameters
 s6 scaling factor         :     1.0000 
 a1 scaling factor         :     0.4145 
 s8 scaling factor         :     1.2177 
 a2 scaling factor         :     4.8593 
 ad hoc parameters k1-k3   :    16.0000     1.3333    -4.0000 

 Edisp/kcal,au: -1.513594245030  -0.002412065708 
 E6   /kcal   :  -0.992799688 
 E8   /kcal   :  -0.520794557 
 % E8         :  34.407805036 

-------------------------   ----------------
Dispersion correction           -0.002412066
-------------------------   ----------------


-------------------------   --------------------
FINAL SINGLE POINT ENERGY      -153.398838349356
-------------------------   --------------------



           ************************************************************
           *        Program running with 8 parallel MPI-processes     *
           *              working on a common directory               *
           ************************************************************
------------------------------------------------------------------------------
                         ORCA SCF GRADIENT CALCULATION
------------------------------------------------------------------------------


------------------------
TD-DFT GRADIENT XC SETUP
------------------------

Building densities                     ... done
Calculating rho(r) on the grid         ... done
Building xc-kernel on the grid         ... done
Building xc 3rd derivative on the grid      ... done
                *** TD-DFT GRADIENT CALCULATION INITIALIZED ***

-------------------
TD-DFT/TDA GRADIENT
-------------------

Reference wavefunction             ... RHF
State of interest                  ... 1
Basis dimension                    ... 117
DFT-XC contribution needed         ... YES
RI-approximation                   ... ON
CIS-vectors being read from        ... ox_es1_A_orca0018.cis

 => Number of Vectors found: 1
 => Orbital Window: 3...11 -> 12...116

Reading the CIS file                     ... done
Norm of the CI vector                    ... 1.000000000
Making the CIS (pseudo)densities         ... done
Making operators G(D) and Q(T)           ... done
Transforming the Fock operators          ... done
Making the frozen-core relaxed density   ... done
Constructing the G(H) operator           ... done
Transforming the G(H) operator           ... done
Calculating the CIS Lagrangian           ... done
Solving the Z-vector equations           ... done
Finalizing the relaxed density           ... done
Storing the relaxed density              ... done
Constructing the G(Z) operator           ... done
Transforming the G(Z) operator           ... done
Making the W-matrix                      ... done
Finalizing the W-matrix                  ... done
Transforming the W-matrix                ... done
Nuclear repulsion gradient               ... done
One-Electron gradient                    ... done
Dispersion correction                    ... done
Prescreening matrices                    ... done
COSX-gradient                            ... done
Coulomb gradient (RI)                    ... done
Exchange-Correlation gradient            ... done

                 ---------------------------
                 EXCITED STATE GRADIENT DONE
                 ---------------------------

------------------
CARTESIAN GRADIENT
------------------

   1   O   :   -0.077972391   -0.200140960    0.006675743
   2   C   :    0.054528930    0.156860698    0.063061967
   3   C   :    0.012122364    0.039478096    0.073243784
   4   H   :    0.037202448    0.002066545   -0.050574296
   5   H   :   -0.008685190   -0.006067081   -0.020896964
   6   H   :    0.015283302   -0.003131251   -0.034574782
   7   H   :   -0.032500071    0.010943078   -0.036900874

Difference to translation invariance:
           :   -0.0000206074    0.0000091256    0.0000345777

Difference to rotation invariance:
           :    0.0002056270   -0.0000654384   -0.0001189314

Norm of the cartesian gradient     ...    0.3054140441
RMS gradient                       ...    0.0666468084
MAX gradient                       ...    0.2001409599

------------------------------------------------------------------------------
                  RELAXED CIS/TDA DENSITY POPULATION ANALYSIS
                                   IROOT 1
------------------------------------------------------------------------------
------------------------------------------------------------------------------
                           ORCA POPULATION ANALYSIS
------------------------------------------------------------------------------
Input electron density              ... ox_es1_A_orca0018.cisp
BaseName (.gbw .S,...)              ... ox_es1_A_orca0018

                    ********************************
                    * MULLIKEN POPULATION ANALYSIS *
                    ********************************

-----------------------
MULLIKEN ATOMIC CHARGES
-----------------------
   0 O :    0.065235
   1 C :   -0.643421
   2 C :   -0.078656
   3 H :    0.162324
   4 H :    0.167819
   5 H :    0.168875
   6 H :    0.157824
Sum of atomic charges:   -0.0000000

--------------------------------
MULLIKEN REDUCED ORBITAL CHARGES
--------------------------------
  0 O s       :     3.757166  s :     3.757166
      pz      :     1.124938  p :     4.134571
      px      :     1.580606
      py      :     1.429027
      dz2     :     0.003663  d :     0.041304
      dxz     :     0.003314
      dyz     :     0.008028
      dx2y2   :     0.011584
      dxy     :     0.014716
      f0      :     0.000143  f :     0.001723
      f+1     :    -0.000040
      f-1     :     0.000172
      f+2     :     0.000127
      f-2     :     0.000248
      f+3     :     0.000457
      f-3     :     0.000616
  1 C s       :     3.305696  s :     3.305696
      pz      :     1.075245  p :     3.248487
      px      :     0.852063
      py      :     1.321179
      dz2     :     0.009926  d :     0.079803
      dxz     :     0.011838
      dyz     :     0.003906
      dx2y2   :     0.032178
      dxy     :     0.021954
      f0      :     0.001083  f :     0.009435
      f+1     :     0.001221
      f-1     :     0.000687
      f+2     :     0.000799
      f-2     :     0.000669
      f+3     :     0.002974
      f-3     :     0.002003
  2 C s       :     3.197396  s :     3.197396
      pz      :     0.994231  p :     2.753334
      px      :     0.972942
      py      :     0.786161
      dz2     :     0.005864  d :     0.114984
      dxz     :     0.026951
      dyz     :     0.019004
      dx2y2   :     0.037087
      dxy     :     0.026078
      f0      :     0.001255  f :     0.012941
      f+1     :     0.001669
      f-1     :     0.000588
      f+2     :     0.001275
      f-2     :     0.001246
      f+3     :     0.002918
      f-3     :     0.003991
  3 H s       :     0.809448  s :     0.809448
      pz      :     0.011440  p :     0.028228
      px      :     0.006207
      py      :     0.010581
  4 H s       :     0.807413  s :     0.807413
      pz      :     0.010323  p :     0.024768
      px      :     0.005968
      py      :     0.008477
  5 H s       :     0.812400  s :     0.812400
      pz      :     0.009453  p :     0.018725
      px      :     0.006415
      py      :     0.002856
  6 H s       :     0.818310  s :     0.818310
      pz      :     0.011894  p :     0.023866
      px      :     0.007379
      py      :     0.004593


                     *******************************
                     * LOEWDIN POPULATION ANALYSIS *
                     *******************************

----------------------
LOEWDIN ATOMIC CHARGES
----------------------
   0 O :    0.368083
   1 C :   -0.532896
   2 C :   -0.395006
   3 H :    0.102026
   4 H :    0.132111
   5 H :    0.183942
   6 H :    0.141741

-------------------------------
LOEWDIN REDUCED ORBITAL CHARGES
-------------------------------
  0 O s       :     3.410581  s :     3.410581
      pz      :     1.061932  p :     4.093509
      px      :     1.527125
      py      :     1.504451
      dz2     :     0.012836  d :     0.120104
      dxz     :     0.008989
      dyz     :     0.017483
      dx2y2   :     0.036708
      dxy     :     0.044088
      f0      :     0.000779  f :     0.007723
      f+1     :     0.000240
      f-1     :     0.000791
      f+2     :     0.000301
      f-2     :     0.001081
      f+3     :     0.001690
      f-3     :     0.002841
  1 C s       :     2.842941  s :     2.842941
      pz      :     1.055628  p :     3.168152
      px      :     1.007663
      py      :     1.104861
      dz2     :     0.081261  d :     0.458037
      dxz     :     0.100220
      dyz     :     0.019240
      dx2y2   :     0.123124
      dxy     :     0.134191
      f0      :     0.007584  f :     0.063768
      f+1     :     0.005434
      f-1     :     0.007009
      f+2     :     0.004315
      f-2     :     0.002541
      f+3     :     0.022204
      f-3     :     0.014680
  2 C s       :     2.808367  s :     2.808367
      pz      :     0.977965  p :     2.958958
      px      :     1.069435
      py      :     0.911558
      dz2     :     0.064940  d :     0.528118
      dxz     :     0.128791
      dyz     :     0.058499
      dx2y2   :     0.145144
      dxy     :     0.130744
      f0      :     0.009654  f :     0.099563
      f+1     :     0.007349
      f-1     :     0.007545
      f+2     :     0.009702
      f-2     :     0.006806
      f+3     :     0.025947
      f-3     :     0.032559
  3 H s       :     0.810558  s :     0.810558
      pz      :     0.037677  p :     0.087417
      px      :     0.019504
      py      :     0.030236
  4 H s       :     0.799490  s :     0.799490
      pz      :     0.030413  p :     0.068400
      px      :     0.015883
      py      :     0.022104
  5 H s       :     0.767486  s :     0.767486
      pz      :     0.025700  p :     0.048572
      px      :     0.015561
      py      :     0.007311
  6 H s       :     0.786525  s :     0.786525
      pz      :     0.036556  p :     0.071734
      px      :     0.021325
      py      :     0.013853


                      *****************************
                      * MAYER POPULATION ANALYSIS *
                      *****************************

  NA   - Mulliken gross atomic population
  ZA   - Total nuclear charge
  QA   - Mulliken gross atomic charge
  VA   - Mayer's total valence
  BVA  - Mayer's bonded valence
  FA   - Mayer's free valence

  ATOM       NA         ZA         QA         VA         BVA        FA
  0 O      7.9348     8.0000     0.0652     1.8220     1.1267     0.6953
  1 C      6.6434     6.0000    -0.6434     4.0092     3.1241     0.8851
  2 C      6.0787     6.0000    -0.0787     3.9536     3.8077     0.1459
  3 H      0.8377     1.0000     0.1623     0.9813     0.9682     0.0131
  4 H      0.8322     1.0000     0.1678     0.9728     0.9628     0.0099
  5 H      0.8311     1.0000     0.1689     0.9558     0.8758     0.0800
  6 H      0.8422     1.0000     0.1578     0.9660     0.9078     0.0582

  Mayer bond orders larger than 0.100000
B(  0-O ,  1-C ) :   0.1197 B(  0-O ,  2-C ) :   1.0148 B(  1-C ,  2-C ) :   1.0526 
B(  1-C ,  3-H ) :   0.9731 B(  1-C ,  4-H ) :   0.9586 B(  2-C ,  5-H ) :   0.8487 
B(  2-C ,  6-H ) :   0.8946 


-------
TIMINGS
-------

Total TD-DFT gradient time         ...        5.202 sec

Fock matrix formation       ....       0.847 sec  ( 16.3%)
  Coulomb formation         ....       0.685 sec  ( 80.8% of F)
  RI-J                      ....       0.293 sec  ( 34.6% of F)
  Chain of spheres X        ....       0.391 sec  ( 46.2% of F)
  XC integration            ....       0.162 sec  ( 19.2% of F)
Z-vector equation           ....       1.404 sec  ( 27.0%)
One electron gradient       ....       0.033 sec  (  0.6%)
Prescreening matrices       ....       0.160 sec  (  3.1%)
RI-J Coulomb gradient       ....       0.270 sec  (  5.2%)
COSX gradient               ....       0.357 sec  (  6.9%)
XC gradient                 ....       1.792 sec  ( 34.4%)

Maximum memory used throughout the entire SCFGRAD-calculation: 130.3 MB

                            ***************************************
                            *     ORCA property calculations      *
                            ***************************************

                                    ---------------------
                                    Active property flags
                                    ---------------------
   (+) Dipole Moment


------------------------------------------------------------------------------
                       ORCA ELECTRIC PROPERTIES CALCULATION
------------------------------------------------------------------------------

Dipole Moment Calculation                       ... on
Quadrupole Moment Calculation                   ... off
Polarizability Calculation                      ... off
GBWName                                         ... ox_es1_A_orca0018.gbw
Electron density                                ... ox_es1_A_orca0018.scfp
The origin for moment calculation is the CENTER OF MASS  = ( 0.042515, -0.119861 -0.038919)

-------------
DIPOLE MOMENT
-------------
                                X             Y             Z
Electronic contribution:     -0.11523       1.40155       0.10439
Nuclear contribution   :     -0.03173      -2.07162      -0.03940
                        -----------------------------------------
Total Dipole Moment    :     -0.14696      -0.67007       0.06499
                        -----------------------------------------
Magnitude (a.u.)       :      0.68907
Magnitude (Debye)      :      1.75148



--------------------
Rotational spectrum 
--------------------
 
Rotational constants in cm-1:     0.947410     0.695151     0.481530 
Rotational constants in MHz : 28402.647529 20840.103659 14435.903137 

 Dipole components along the rotational axes: 
x,y,z [a.u.] :    -0.455351    -0.515168     0.045572 
x,y,z [Debye]:    -1.157411    -1.309453     0.115835 

 

                        *** CIS RELAXED DENSITY ***

------------------------------------------------------------------------------
                       ORCA ELECTRIC PROPERTIES CALCULATION
------------------------------------------------------------------------------

Dipole Moment Calculation                       ... on
Quadrupole Moment Calculation                   ... off
Polarizability Calculation                      ... off
GBWName                                         ... ox_es1_A_orca0018.gbw
Electron density                                ... ox_es1_A_orca0018.cisp
The origin for moment calculation is the CENTER OF MASS  = ( 0.042515, -0.119861 -0.038919)

-------------
DIPOLE MOMENT
-------------
                                X             Y             Z
Electronic contribution:      0.83414       2.08545       0.06435
Nuclear contribution   :     -0.03173      -2.07162      -0.03940
                        -----------------------------------------
Total Dipole Moment    :      0.80241       0.01382       0.02494
                        -----------------------------------------
Magnitude (a.u.)       :      0.80292
Magnitude (Debye)      :      2.04086



--------------------
Rotational spectrum 
--------------------
 
Rotational constants in cm-1:     0.947410     0.695151     0.481530 
Rotational constants in MHz : 28402.647529 20840.103659 14435.903137 

 Dipole components along the rotational axes: 
x,y,z [a.u.] :     0.706816    -0.380904     0.001193 
x,y,z [Debye]:     1.796584    -0.968181     0.003032 

 

Timings for individual modules:

Sum of individual times         ...        7.883 sec (=   0.131 min)
GTO integral calculation        ...        0.322 sec (=   0.005 min)   4.1 %
SCF iterations                  ...        1.208 sec (=   0.020 min)  15.3 %
CIS module                      ...        0.934 sec (=   0.016 min)  11.8 %
SCF Gradient evaluation         ...        5.419 sec (=   0.090 min)  68.7 %
                             ****ORCA TERMINATED NORMALLY****
TOTAL RUN TIME: 0 days 0 hours 0 minutes 8 seconds 259 msec
