
                                 *****************
                                 * O   R   C   A *
                                 *****************

                                            #,                                       
                                            ###                                      
                                            ####                                     
                                            #####                                    
                                            ######                                   
                                           ########,                                 
                                     ,,################,,,,,                         
                               ,,#################################,,                 
                          ,,##########################################,,             
                       ,#########################################, ''#####,          
                    ,#############################################,,   '####,        
                  ,##################################################,,,,####,       
                ,###########''''           ''''###############################       
              ,#####''   ,,,,##########,,,,          '''####'''          '####       
            ,##' ,,,,###########################,,,                        '##       
           ' ,,###''''                  '''############,,,                           
         ,,##''                                '''############,,,,        ,,,,,,###''
      ,#''                                            '''#######################'''  
     '                                                          ''''####''''         
             ,#######,   #######,   ,#######,      ##                                
            ,#'     '#,  ##    ##  ,#'     '#,    #''#        ######   ,####,        
            ##       ##  ##   ,#'  ##            #'  '#       #        #'  '#        
            ##       ##  #######   ##           ,######,      #####,   #    #        
            '#,     ,#'  ##    ##  '#,     ,#' ,#      #,         ##   #,  ,#        
             '#######'   ##     ##  '#######'  #'      '#     #####' # '####'        



                  #######################################################
                  #                        -***-                        #
                  #          Department of theory and spectroscopy      #
                  #    Directorship and core code : Frank Neese         #
                  #        Max Planck Institute fuer Kohlenforschung    #
                  #                Kaiser Wilhelm Platz 1               #
                  #                 D-45470 Muelheim/Ruhr               #
                  #                      Germany                        #
                  #                                                     #
                  #                  All rights reserved                #
                  #                        -***-                        #
                  #######################################################


                         Program Version 5.0.2 -  RELEASE  -


 With contributions from (in alphabetic order):
   Daniel Aravena         : Magnetic Suceptibility
   Michael Atanasov       : Ab Initio Ligand Field Theory (pilot matlab implementation)
   Alexander A. Auer      : GIAO ZORA, VPT2 properties, NMR spectrum
   Ute Becker             : Parallelization
   Giovanni Bistoni       : ED, misc. LED, open-shell LED, HFLD
   Martin Brehm           : Molecular dynamics
   Dmytro Bykov           : SCF Hessian
   Vijay G. Chilkuri      : MRCI spin determinant printing, contributions to CSF-ICE
   Dipayan Datta          : RHF DLPNO-CCSD density
   Achintya Kumar Dutta   : EOM-CC, STEOM-CC
   Dmitry Ganyushin       : Spin-Orbit,Spin-Spin,Magnetic field MRCI
   Miquel Garcia          : C-PCM and meta-GGA Hessian, CC/C-PCM, Gaussian charge scheme
   Yang Guo               : DLPNO-NEVPT2, F12-NEVPT2, CIM, IAO-localization
   Andreas Hansen         : Spin unrestricted coupled pair/coupled cluster methods
   Benjamin Helmich-Paris : MC-RPA, TRAH-SCF, COSX integrals
   Lee Huntington         : MR-EOM, pCC
   Robert Izsak           : Overlap fitted RIJCOSX, COSX-SCS-MP3, EOM
   Marcus Kettner         : VPT2
   Christian Kollmar      : KDIIS, OOCD, Brueckner-CCSD(T), CCSD density, CASPT2, CASPT2-K
   Simone Kossmann        : Meta GGA functionals, TD-DFT gradient, OOMP2, MP2 Hessian
   Martin Krupicka        : Initial AUTO-CI
   Lucas Lang             : DCDCAS
   Marvin Lechner         : AUTO-CI (C++ implementation), FIC-MRCC
   Dagmar Lenk            : GEPOL surface, SMD
   Dimitrios Liakos       : Extrapolation schemes; Compound Job, initial MDCI parallelization
   Dimitrios Manganas     : Further ROCIS development; embedding schemes
   Dimitrios Pantazis     : SARC Basis sets
   Anastasios Papadopoulos: AUTO-CI, single reference methods and gradients
   Taras Petrenko         : DFT Hessian,TD-DFT gradient, ASA, ECA, R-Raman, ABS, FL, XAS/XES, NRVS
   Peter Pinski           : DLPNO-MP2, DLPNO-MP2 Gradient
   Christoph Reimann      : Effective Core Potentials
   Marius Retegan         : Local ZFS, SOC
   Christoph Riplinger    : Optimizer, TS searches, QM/MM, DLPNO-CCSD(T), (RO)-DLPNO pert. Triples
   Tobias Risthaus        : Range-separated hybrids, TD-DFT gradient, RPA, STAB
   Michael Roemelt        : Original ROCIS implementation
   Masaaki Saitow         : Open-shell DLPNO-CCSD energy and density
   Barbara Sandhoefer     : DKH picture change effects
   Avijit Sen             : IP-ROCIS
   Kantharuban Sivalingam : CASSCF convergence, NEVPT2, FIC-MRCI
   Bernardo de Souza      : ESD, SOC TD-DFT
   Georgi Stoychev        : AutoAux, RI-MP2 NMR, DLPNO-MP2 response
   Willem Van den Heuvel  : Paramagnetic NMR
   Boris Wezisla          : Elementary symmetry handling
   Frank Wennmohs         : Technical directorship


 We gratefully acknowledge several colleagues who have allowed us to
 interface, adapt or use parts of their codes:
   Stefan Grimme, W. Hujo, H. Kruse, P. Pracht,  : VdW corrections, initial TS optimization,
                  C. Bannwarth, S. Ehlert          DFT functionals, gCP, sTDA/sTD-DF
   Ed Valeev, F. Pavosevic, A. Kumar             : LibInt (2-el integral package), F12 methods
   Garnet Chan, S. Sharma, J. Yang, R. Olivares  : DMRG
   Ulf Ekstrom                                   : XCFun DFT Library
   Mihaly Kallay                                 : mrcc  (arbitrary order and MRCC methods)
   Jiri Pittner, Ondrej Demel                    : Mk-CCSD
   Frank Weinhold                                : gennbo (NPA and NBO analysis)
   Christopher J. Cramer and Donald G. Truhlar   : smd solvation model
   Lars Goerigk                                  : TD-DFT with DH, B97 family of functionals
   V. Asgeirsson, H. Jonsson                     : NEB implementation
   FAccTs GmbH                                   : IRC, NEB, NEB-TS, DLPNO-Multilevel, CI-OPT
                                                   MM, QMMM, 2- and 3-layer-ONIOM, Crystal-QMMM,
                                                   LR-CPCM, SF, NACMEs, symmetry and pop. for TD-DFT,
                                                   nearIR, NL-DFT gradient (VV10), updates on ESD,
                                                   ML-optimized integration grids
   S Lehtola, MJT Oliveira, MAL Marques          : LibXC Library
   Liviu Ungur et al                             : ANISO software


 Your calculation uses the libint2 library for the computation of 2-el integrals
 For citations please refer to: http://libint.valeyev.net

 Your ORCA version has been built with support for libXC version: 5.1.0
 For citations please refer to: https://tddft.org/programs/libxc/

 This ORCA versions uses:
   CBLAS   interface :  Fast vector & matrix operations
   LAPACKE interface :  Fast linear algebra routines
   SCALAPACK package :  Parallel linear algebra routines
   Shared memory     :  Shared parallel matrices
   BLAS/LAPACK       :  OpenBLAS 0.3.15  USE64BITINT DYNAMIC_ARCH NO_AFFINITY SkylakeX SINGLE_THREADED
        Core in use  :  SkylakeX
   Copyright (c) 2011-2014, The OpenBLAS Project


Your calculation utilizes the atom-pairwise dispersion correction
with the Becke-Johnson damping scheme (D3BJ)
Cite in your paper:
S.Grimme, S.Ehrlich, L.Goerigk, J Comput Chem, (2011), 32, 1456–1465 
S.Grimme, J.Antony, S.Ehrlich and H.Krieg, J.Chem.Phys., 132, (2010), 154104 
   

================================================================================

----- Orbital basis set information -----
Your calculation utilizes the basis: def2-TZVP
   F. Weigend and R. Ahlrichs, Phys. Chem. Chem. Phys. 7, 3297 (2005).

----- AuxJ basis set information -----
Your calculation utilizes the auxiliary basis: def2/J
   F. Weigend, Phys. Chem. Chem. Phys. 8, 1057 (2006).

================================================================================
                                        WARNINGS
                       Please study these warnings very carefully!
================================================================================

INFO   : Checking CIS options ...

WARNING: CIS/ROCIS methods need fully converged wavefunctions
  ===> : Setting SCFConvForced true
         You can overwrite this default with %scf ConvForced false 


INFO   : the flag for use of the SHARK integral package has been found!

================================================================================
                                       INPUT FILE
================================================================================
NAME = ox_es1_B_orca0002.inp
|  1> ! engrad PBE0 D3BJ def2-TZVP  
|  2> %pal nprocs 8 end
|  3> %maxcore 3000
|  4> 
|  5> %tddft
|  6>   nroots 1
|  7>   tda true
|  8>   Iroot 1
|  9>   end 
| 10> *xyz 0 1 
| 11> O   -0.24279572793726087 0.7797975819716157 0.012389730554989153
| 12> C   -0.7737474292219849 -0.4538602316630674 0.0009144595674609653
| 13> C   0.7666602391199067 -0.43625706095152783 0.04205043974656955
| 14> H   -1.3361134338522151 -0.7383694740750422 0.9149303100025543
| 15> H   -1.2912348924593426 -0.6755018854184692 -0.9022752033900381
| 16> H   1.2620471687360928 -0.6399839446968703 -0.8426932797687221
| 17> H   1.2151110533116343 -0.6717880538552051 0.9353746127608017
| 18> *
| 19> 
| 20>                          ****END OF INPUT****
================================================================================

                     *******************************
                     * Energy+Gradient Calculation *
                     *******************************

---------------------------------
CARTESIAN COORDINATES (ANGSTROEM)
---------------------------------
  O     -0.242796    0.779798    0.012390
  C     -0.773747   -0.453860    0.000914
  C      0.766660   -0.436257    0.042050
  H     -1.336113   -0.738369    0.914930
  H     -1.291235   -0.675502   -0.902275
  H      1.262047   -0.639984   -0.842693
  H      1.215111   -0.671788    0.935375

----------------------------
CARTESIAN COORDINATES (A.U.)
----------------------------
  NO LB      ZA    FRAG     MASS         X           Y           Z
   0 O     8.0000    0    15.999   -0.458817    1.473604    0.023413
   1 C     6.0000    0    12.011   -1.462171   -0.857672    0.001728
   2 C     6.0000    0    12.011    1.448778   -0.824406    0.079464
   3 H     1.0000    0     1.008   -2.524888   -1.395316    1.728968
   4 H     1.0000    0     1.008   -2.440080   -1.276514   -1.705053
   5 H     1.0000    0     1.008    2.384924   -1.209394   -1.592460
   6 H     1.0000    0     1.008    2.296227   -1.269495    1.767602

--------------------------------
INTERNAL COORDINATES (ANGSTROEM)
--------------------------------
 O      0   0   0     0.000000000000     0.00000000     0.00000000
 C      1   0   0     1.343113171733     0.00000000     0.00000000
 C      2   1   0     1.541057372446    66.05449974     0.00000000
 H      2   1   3     1.110236914820   115.37749323   112.29900245
 H      2   1   3     1.064269639030   113.00133117   245.23016431
 H      3   2   1     1.034255433835   116.98085396   257.01342552
 H      3   2   1     1.026942578462   117.20023946   105.41919205

---------------------------
INTERNAL COORDINATES (A.U.)
---------------------------
 O      0   0   0     0.000000000000     0.00000000     0.00000000
 C      1   0   0     2.538116061438     0.00000000     0.00000000
 C      2   1   0     2.912176390584    66.05449974     0.00000000
 H      2   1   3     2.098043712779   115.37749323   112.29900245
 H      2   1   3     2.011178150413   113.00133117   245.23016431
 H      3   2   1     1.954459522468   116.98085396   257.01342552
 H      3   2   1     1.940640228557   117.20023946   105.41919205

---------------------
BASIS SET INFORMATION
---------------------
There are 3 groups of distinct atoms

 Group   1 Type O   : 11s6p2d1f contracted to 5s3p2d1f pattern {62111/411/11/1}
 Group   2 Type C   : 11s6p2d1f contracted to 5s3p2d1f pattern {62111/411/11/1}
 Group   3 Type H   : 5s1p contracted to 3s1p pattern {311/1}

Atom   0O    basis set group =>   1
Atom   1C    basis set group =>   2
Atom   2C    basis set group =>   2
Atom   3H    basis set group =>   3
Atom   4H    basis set group =>   3
Atom   5H    basis set group =>   3
Atom   6H    basis set group =>   3
---------------------------------
AUXILIARY/J BASIS SET INFORMATION
---------------------------------
There are 3 groups of distinct atoms

 Group   1 Type O   : 12s5p4d2f1g contracted to 6s4p3d1f1g pattern {711111/2111/211/2/1}
 Group   2 Type C   : 12s5p4d2f1g contracted to 6s4p3d1f1g pattern {711111/2111/211/2/1}
 Group   3 Type H   : 5s2p1d contracted to 3s1p1d pattern {311/2/1}

Atom   0O    basis set group =>   1
Atom   1C    basis set group =>   2
Atom   2C    basis set group =>   2
Atom   3H    basis set group =>   3
Atom   4H    basis set group =>   3
Atom   5H    basis set group =>   3
Atom   6H    basis set group =>   3

Checking for AutoStart:
The File: ox_es1_B_orca0002.gbw exists
Trying to determine its content:
     ... Fine, the file contains calculation information
     ... Fine, the calculation information was read
     ... Fine, the file contains a basis set
     ... Fine, the basis set was read
     ... Fine, the file contains a geometry
     ... Fine, the geometry was read
     ... Fine, the file contains a set of orbitals
     ... Fine, the orbitals can be read
     => possible old guess file was deleted
     => GBW file was renamed to GES file
     => GES file is set as startup file
     => Guess is set to MORead
     ... now leaving AutoStart



           ************************************************************
           *        Program running with 8 parallel MPI-processes     *
           *              working on a common directory               *
           ************************************************************
------------------------------------------------------------------------------
                           ORCA GTO INTEGRAL CALCULATION
                           -- RI-GTO INTEGRALS CHOSEN --
------------------------------------------------------------------------------
------------------------------------------------------------------------------
                   ___                                                        
                  /   \      - P O W E R E D   B Y -                         
                 /     \                                                     
                 |  |  |   _    _      __       _____    __    __             
                 |  |  |  | |  | |    /  \     |  _  \  |  |  /  |          
                  \  \/   | |  | |   /    \    | | | |  |  | /  /          
                 / \  \   | |__| |  /  /\  \   | |_| |  |  |/  /          
                |  |  |   |  __  | /  /__\  \  |    /   |      \           
                |  |  |   | |  | | |   __   |  |    \   |  |\   \          
                \     /   | |  | | |  |  |  |  | |\  \  |  | \   \       
                 \___/    |_|  |_| |__|  |__|  |_| \__\ |__|  \__/        
                                                                              
                      - O R C A' S   B I G   F R I E N D -                    
                                      &                                       
                       - I N T E G R A L  F E E D E R -                       
                                                                              
 v1 FN, 2020, v2 2021                                                         
------------------------------------------------------------------------------


Reading SHARK input file ox_es1_B_orca0002.SHARKINP.tmp ... ok
----------------------
SHARK INTEGRAL PACKAGE
----------------------

Number of atoms                             ...      7
Number of basis functions                   ...    117
Number of shells                            ...     49
Maximum angular momentum                    ...      3
Integral batch strategy                     ... SHARK/LIBINT Hybrid
RI-J (if used) integral strategy            ... SPLIT-RIJ (Revised 2003 algorithm where possible)
Printlevel                                  ...      1
Contraction scheme used                     ... SEGMENTED contraction
Coulomb Range Separation                    ... NOT USED
Exchange Range Separation                   ... NOT USED
Finite Nucleus Model                        ... NOT USED
Auxiliary Coulomb fitting basis             ... AVAILABLE
   # of basis functions in Aux-J            ...    191
   # of shells in Aux-J                     ...     65
   Maximum angular momentum in Aux-J        ...      4
Auxiliary J/K fitting basis                 ... NOT available
Auxiliary Correlation fitting basis         ... NOT available
Auxiliary 'external' fitting basis          ... NOT available
Integral threshold                          ...     2.500000e-11
Primitive cut-off                           ...     2.500000e-12
Primitive pair pre-selection threshold      ...     2.500000e-12

Calculating pre-screening integrals         ... done (  0.0 sec) Dimension = 49
Organizing shell pair data                  ... done (  0.0 sec)
Shell pair information
Total number of shell pairs                 ...      1225
Shell pairs after pre-screening             ...      1221
Total number of primitive shell pairs       ...      3648
Primitive shell pairs kept                  ...      3154
          la=0 lb=0:    374 shell pairs
          la=1 lb=0:    351 shell pairs
          la=1 lb=1:     91 shell pairs
          la=2 lb=0:    162 shell pairs
          la=2 lb=1:     78 shell pairs
          la=2 lb=2:     21 shell pairs
          la=3 lb=0:     81 shell pairs
          la=3 lb=1:     39 shell pairs
          la=3 lb=2:     18 shell pairs
          la=3 lb=3:      6 shell pairs

Calculating one electron integrals          ... done (  0.0 sec)
Calculating RI/J V-Matrix + Cholesky decomp.... done (  0.0 sec)
Calculating Nuclear repulsion               ... done (  0.0 sec) ENN=     74.248808570547 Eh

SHARK setup successfully completed in   0.1 seconds

Maximum memory used throughout the entire GTOINT-calculation: 14.9 MB


           ************************************************************
           *        Program running with 8 parallel MPI-processes     *
           *              working on a common directory               *
           ************************************************************
-------------------------------------------------------------------------------
                                 ORCA SCF
-------------------------------------------------------------------------------

------------
SCF SETTINGS
------------
Hamiltonian:
 Density Functional     Method          .... DFT(GTOs)
 Exchange Functional    Exchange        .... PBE
   PBE kappa parameter   XKappa         ....  0.804000
   PBE mue parameter    XMuePBE         ....  0.219520
 Correlation Functional Correlation     .... PBE
   PBE beta parameter  CBetaPBE         ....  0.066725
 LDA part of GGA corr.  LDAOpt          .... PW91-LDA
 Gradients option       PostSCFGGA      .... off
 Hybrid DFT is turned on
   Fraction HF Exchange ScalHFX         ....  0.250000
   Scaling of DF-GGA-X  ScalDFX         ....  0.750000
   Scaling of DF-GGA-C  ScalDFC         ....  1.000000
   Scaling of DF-LDA-C  ScalLDAC        ....  1.000000
   Perturbative correction              ....  0.000000
   Density functional embedding theory  .... OFF
   NL short-range parameter             ....  6.900000
 RI-approximation to the Coulomb term is turned on
   Number of AuxJ basis functions       .... 191
   RIJ-COSX (HFX calculated with COS-X)).... on


General Settings:
 Integral files         IntName         .... ox_es1_B_orca0002
 Hartree-Fock type      HFTyp           .... RHF
 Total Charge           Charge          ....    0
 Multiplicity           Mult            ....    1
 Number of Electrons    NEL             ....   24
 Basis Dimension        Dim             ....  117
 Nuclear Repulsion      ENuc            ....     74.2488085705 Eh

Convergence Acceleration:
 DIIS                   CNVDIIS         .... on
   Start iteration      DIISMaxIt       ....    12
   Startup error        DIISStart       ....  0.200000
   # of expansion vecs  DIISMaxEq       ....     5
   Bias factor          DIISBfac        ....   1.050
   Max. coefficient     DIISMaxC        ....  10.000
 Trust-Rad. Augm. Hess. CNVTRAH         .... auto
   Auto Start mean grad. ratio tolernc. ....  1.125000
   Auto Start start iteration           ....     1
   Auto Start num. interpolation iter.  ....    10
   Max. Number of Micro iterations      ....    16
   Max. Number of Macro iterations      .... Maxiter - #DIIS iter
   Number of Davidson start vectors     ....     2
   Converg. threshold I  (grad. norm)   ....   1.000e-05
   Converg. threshold II (energy diff.) ....   1.000e-08
   Grad. Scal. Fac. for Micro threshold ....   0.100
   Minimum threshold for Micro iter.    ....   0.010
   NR start threshold (gradient norm)   ....   0.001
   Initial trust radius                 ....   0.400
   Minimum AH scaling param. (alpha)    ....   1.000
   Maximum AH scaling param. (alpha)    .... 1000.000
   Orbital update algorithm             .... Taylor
   White noise on init. David. guess    .... on
   Maximum white noise                  ....   0.010
   Quad. conv. algorithm                .... NR
 SOSCF                  CNVSOSCF        .... on
   Start iteration      SOSCFMaxIt      ....   150
   Startup grad/error   SOSCFStart      ....  0.003300
 Level Shifting         CNVShift        .... on
   Level shift para.    LevelShift      ....    0.2500
   Turn off err/grad.   ShiftErr        ....    0.0010
 Zerner damping         CNVZerner       .... off
 Static damping         CNVDamp         .... on
   Fraction old density DampFac         ....    0.7000
   Max. Damping (<1)    DampMax         ....    0.9800
   Min. Damping (>=0)   DampMin         ....    0.0000
   Turn off err/grad.   DampErr         ....    0.1000
 Fernandez-Rico         CNVRico         .... off

SCF Procedure:
 Maximum # iterations   MaxIter         ....   125
 SCF integral mode      SCFMode         .... Direct
   Integral package                     .... SHARK and LIBINT hybrid scheme
 Reset frequency        DirectResetFreq ....    20
 Integral Threshold     Thresh          ....  2.500e-11 Eh
 Primitive CutOff       TCut            ....  2.500e-12 Eh

Convergence Tolerance:
 Convergence Check Mode ConvCheckMode   .... Total+1el-Energy
 Convergence forced     ConvForced      .... 1
 Energy Change          TolE            ....  1.000e-08 Eh
 1-El. energy change                    ....  1.000e-05 Eh
 Orbital Gradient       TolG            ....  1.000e-05
 Orbital Rotation angle TolX            ....  1.000e-05
 DIIS Error             TolErr          ....  5.000e-07


Diagonalization of the overlap matrix:
Smallest eigenvalue                        ... 6.090e-04
Time for diagonalization                   ...    0.001 sec
Threshold for overlap eigenvalues          ... 1.000e-08
Number of eigenvalues below threshold      ... 0
Time for construction of square roots      ...    0.001 sec
Total time needed                          ...    0.003 sec

---------------------
INITIAL GUESS: MOREAD
---------------------
Guess MOs are being read from file: ox_es1_B_orca0002.ges
Input Geometry matches current geometry (good)
Input basis set matches current basis set (good)
MOs were renormalized
MOs were reorthogonalized (Cholesky)
                      ------------------
                      INITIAL GUESS DONE (   0.0 sec)
                      ------------------
-------------------
DFT GRID GENERATION
-------------------

General Integration Accuracy     IntAcc      ... 4.388
Radial Grid Type                 RadialGrid  ... OptM3 with GC (2021)
Angular Grid (max. ang.)         AngularGrid ... 4 (Lebedev-302)
Angular grid pruning method      GridPruning ... 4 (adaptive)
Weight generation scheme         WeightScheme... Becke
Basis function cutoff            BFCut       ... 1.0000e-11
Integration weight cutoff        WCut        ... 1.0000e-14
Angular grids for H and He will be reduced by one unit
Partially contracted basis set               ... off
Rotationally invariant grid construction     ... off

Total number of grid points                  ...    31313
Total number of batches                      ...      493
Average number of points per batch           ...       63
Average number of grid points per atom       ...     4473
Time for grid setup =    0.119 sec

--------------------
COSX GRID GENERATION
--------------------

GRIDX 1
-------
General Integration Accuracy     IntAcc      ... 3.816
Radial Grid Type                 RadialGrid  ... OptM3 with GC (2021)
Angular Grid (max. ang.)         AngularGrid ... 1 (Lebedev-50)
Angular grid pruning method      GridPruning ... 4 (adaptive)
Weight generation scheme         WeightScheme... Becke
Basis function cutoff            BFCut       ... 1.0000e-11
Integration weight cutoff        WCut        ... 1.0000e-14
Angular grids for H and He will be reduced by one unit
Partially contracted basis set               ... on
Rotationally invariant grid construction     ... off

Total number of grid points                  ...     4035
Total number of batches                      ...       67
Average number of points per batch           ...       60
Average number of grid points per atom       ...      576
UseSFitting                                  ... on

GRIDX 2
-------
General Integration Accuracy     IntAcc      ... 4.020
Radial Grid Type                 RadialGrid  ... OptM3 with GC (2021)
Angular Grid (max. ang.)         AngularGrid ... 2 (Lebedev-110)
Angular grid pruning method      GridPruning ... 4 (adaptive)
Weight generation scheme         WeightScheme... Becke
Basis function cutoff            BFCut       ... 1.0000e-11
Integration weight cutoff        WCut        ... 1.0000e-14
Angular grids for H and He will be reduced by one unit
Partially contracted basis set               ... on
Rotationally invariant grid construction     ... off

Total number of grid points                  ...     8726
Total number of batches                      ...      141
Average number of points per batch           ...       61
Average number of grid points per atom       ...     1247
UseSFitting                                  ... on

GRIDX 3
-------
General Integration Accuracy     IntAcc      ... 4.338
Radial Grid Type                 RadialGrid  ... OptM3 with GC (2021)
Angular Grid (max. ang.)         AngularGrid ... 3 (Lebedev-194)
Angular grid pruning method      GridPruning ... 4 (adaptive)
Weight generation scheme         WeightScheme... Becke
Basis function cutoff            BFCut       ... 1.0000e-11
Integration weight cutoff        WCut        ... 1.0000e-14
Angular grids for H and He will be reduced by one unit
Partially contracted basis set               ... on
Rotationally invariant grid construction     ... off

Total number of grid points                  ...    19251
Total number of batches                      ...      304
Average number of points per batch           ...       63
Average number of grid points per atom       ...     2750
UseSFitting                                  ... on

Time for X-Grid setup             =    0.072 sec

--------------
SCF ITERATIONS
--------------
ITER       Energy         Delta-E        Max-DP      RMS-DP      [F,P]     Damp
               ***  Starting incremental Fock matrix formation  ***
                      *** Initiating the SOSCF procedure ***
                      *** Re-Reading the Fockian *** 
                      *** Removing any level shift *** 
ITER      Energy       Delta-E        Grad      Rot      Max-DP    RMS-DP
  0   -153.65069117 -153.6506911715  0.000002  0.000002  0.000003  0.000000
               *** Restarting incremental Fock matrix formation ***
                  ***Gradient check signals convergence***
              ***Rediagonalizing the Fockian in SOSCF/NRSCF***

               *****************************************************
               *                     SUCCESS                       *
               *           SCF CONVERGED AFTER   1 CYCLES          *
               *****************************************************

Old exchange energy                            =     -4.995778758 Eh
New exchange energy                            =     -4.995782090 Eh
Exchange energy change after final integration =     -0.000003332 Eh
Total energy after final integration           =   -153.650694504 Eh
Final COS-X integration done in                =     0.247 sec

----------------
TOTAL SCF ENERGY
----------------

Total Energy       :         -153.65069450 Eh           -4181.04796 eV

Components:
Nuclear Repulsion  :           74.24880857 Eh            2020.41280 eV
Electronic Energy  :         -227.89950307 Eh           -6201.46075 eV
One Electron Energy:         -355.14409199 Eh           -9663.96205 eV
Two Electron Energy:          127.24458892 Eh            3462.50129 eV
Max COSX asymmetry :            0.00000252 Eh               0.00007 eV

Virial components:
Potential Energy   :         -306.64566230 Eh           -8344.25268 eV
Kinetic Energy     :          152.99496779 Eh            4163.20473 eV
Virial Ratio       :            2.00428594


DFT components:
N(Alpha)           :       12.000001898937 electrons
N(Beta)            :       12.000001898937 electrons
N(Total)           :       24.000003797874 electrons
E(X)               :      -14.961341363969 Eh       
E(C)               :       -0.787670447529 Eh       
E(XC)              :      -15.749011811497 Eh       
DFET-embed. en.    :        0.000000000000 Eh       

---------------
SCF CONVERGENCE
---------------

  Last Energy change         ...   -1.6692e-10  Tolerance :   1.0000e-08
  Last MAX-Density change    ...    6.6613e-16  Tolerance :   1.0000e-07
  Last RMS-Density change    ...    1.6896e-17  Tolerance :   5.0000e-09
  Last Orbital Gradient      ...    1.1685e-06  Tolerance :   1.0000e-05
  Last Orbital Rotation      ...    1.4505e-06  Tolerance :   1.0000e-05

             **** THE GBW FILE WAS UPDATED (ox_es1_B_orca0002.gbw) ****
             **** DENSITY ox_es1_B_orca0002.scfp WAS UPDATED ****
             **** ENERGY FILE WAS UPDATED (ox_es1_B_orca0002.en.tmp) ****
             **** THE GBW FILE WAS UPDATED (ox_es1_B_orca0002.gbw) ****
             **** DENSITY ox_es1_B_orca0002.scfp WAS UPDATED ****
----------------
ORBITAL ENERGIES
----------------

  NO   OCC          E(Eh)            E(eV) 
   0   2.0000     -19.225071      -523.1408 
   1   2.0000     -10.277941      -279.6770 
   2   2.0000     -10.275324      -279.6058 
   3   2.0000      -1.092920       -29.7399 
   4   2.0000      -0.712996       -19.4016 
   5   2.0000      -0.652306       -17.7502 
   6   2.0000      -0.529995       -14.4219 
   7   2.0000      -0.497196       -13.5294 
   8   2.0000      -0.422141       -11.4870 
   9   2.0000      -0.418515       -11.3884 
  10   2.0000      -0.313727        -8.5370 
  11   2.0000      -0.287208        -7.8153 
  12   0.0000       0.033303         0.9062 
  13   0.0000       0.071252         1.9389 
  14   0.0000       0.078639         2.1399 
  15   0.0000       0.106454         2.8968 
  16   0.0000       0.115663         3.1473 
  17   0.0000       0.154984         4.2173 
  18   0.0000       0.190879         5.1941 
  19   0.0000       0.201812         5.4916 
  20   0.0000       0.258932         7.0459 
  21   0.0000       0.270413         7.3583 
  22   0.0000       0.288455         7.8493 
  23   0.0000       0.323006         8.7894 
  24   0.0000       0.384787        10.4706 
  25   0.0000       0.392555        10.6820 
  26   0.0000       0.413355        11.2480 
  27   0.0000       0.424399        11.5485 
  28   0.0000       0.458969        12.4892 
  29   0.0000       0.479021        13.0348 
  30   0.0000       0.504102        13.7173 
  31   0.0000       0.520960        14.1761 
  32   0.0000       0.541596        14.7376 
  33   0.0000       0.685275        18.6473 
  34   0.0000       0.699598        19.0370 
  35   0.0000       0.741642        20.1811 
  36   0.0000       0.824616        22.4390 
  37   0.0000       0.867971        23.6187 
  38   0.0000       0.899501        24.4767 
  39   0.0000       0.919066        25.0091 
  40   0.0000       0.986950        26.8563 
  41   0.0000       1.035542        28.1785 
  42   0.0000       1.061332        28.8803 
  43   0.0000       1.074932        29.2504 
  44   0.0000       1.150386        31.3036 
  45   0.0000       1.350100        36.7381 
  46   0.0000       1.441331        39.2206 
  47   0.0000       1.466522        39.9061 
  48   0.0000       1.498365        40.7726 
  49   0.0000       1.511710        41.1357 
  50   0.0000       1.608403        43.7669 
  51   0.0000       1.631528        44.3961 
  52   0.0000       1.641206        44.6595 
  53   0.0000       1.714801        46.6621 
  54   0.0000       1.786379        48.6098 
  55   0.0000       1.816939        49.4414 
  56   0.0000       1.826081        49.6902 
  57   0.0000       1.882917        51.2368 
  58   0.0000       1.948219        53.0137 
  59   0.0000       1.969740        53.5993 
  60   0.0000       2.105031        57.2808 
  61   0.0000       2.110146        57.4200 
  62   0.0000       2.180362        59.3307 
  63   0.0000       2.263832        61.6020 
  64   0.0000       2.277069        61.9622 
  65   0.0000       2.423495        65.9466 
  66   0.0000       2.465992        67.1031 
  67   0.0000       2.511512        68.3417 
  68   0.0000       2.561879        69.7123 
  69   0.0000       2.576155        70.1008 
  70   0.0000       2.608790        70.9888 
  71   0.0000       2.621451        71.3333 
  72   0.0000       2.646635        72.0186 
  73   0.0000       2.707737        73.6813 
  74   0.0000       2.751482        74.8716 
  75   0.0000       2.783880        75.7532 
  76   0.0000       2.907834        79.1262 
  77   0.0000       2.947419        80.2034 
  78   0.0000       3.001376        81.6716 
  79   0.0000       3.034216        82.5652 
  80   0.0000       3.051438        83.0338 
  81   0.0000       3.108050        84.5744 
  82   0.0000       3.148085        85.6637 
  83   0.0000       3.206131        87.2433 
  84   0.0000       3.299261        89.7775 
  85   0.0000       3.325823        90.5002 
  86   0.0000       3.349509        91.1448 
  87   0.0000       3.393040        92.3293 
  88   0.0000       3.572177        97.2039 
  89   0.0000       3.605279        98.1046 
  90   0.0000       3.641196        99.0820 
  91   0.0000       3.709625       100.9440 
  92   0.0000       3.819499       103.9338 
  93   0.0000       3.988428       108.5306 
  94   0.0000       4.078706       110.9872 
  95   0.0000       4.097314       111.4936 
  96   0.0000       4.163600       113.2973 
  97   0.0000       4.329080       117.8003 
  98   0.0000       4.349793       118.3639 
  99   0.0000       4.574649       124.4825 
 100   0.0000       4.613716       125.5456 
 101   0.0000       4.903637       133.4348 
 102   0.0000       5.319638       144.7547 
 103   0.0000       5.375449       146.2734 
 104   0.0000       5.543424       150.8442 
 105   0.0000       5.749665       156.4563 
 106   0.0000       5.845257       159.0575 
 107   0.0000       5.904562       160.6713 
 108   0.0000       6.079517       165.4321 
 109   0.0000       6.564864       178.6390 
 110   0.0000       6.619721       180.1318 
 111   0.0000       6.804068       185.1481 
 112   0.0000       6.951215       189.1522 
 113   0.0000       7.172240       195.1666 
 114   0.0000      22.317940       607.3020 
 115   0.0000      22.506408       612.4305 
 116   0.0000      43.827113      1192.5964 

                    ********************************
                    * MULLIKEN POPULATION ANALYSIS *
                    ********************************

-----------------------
MULLIKEN ATOMIC CHARGES
-----------------------
   0 O :   -0.305388
   1 C :   -0.022578
   2 C :   -0.143458
   3 H :    0.099262
   4 H :    0.104901
   5 H :    0.133297
   6 H :    0.133964
Sum of atomic charges:   -0.0000000

--------------------------------
MULLIKEN REDUCED ORBITAL CHARGES
--------------------------------
  0 O s       :     3.859530  s :     3.859530
      pz      :     1.847094  p :     4.403673
      px      :     1.282177
      py      :     1.274402
      dz2     :     0.005209  d :     0.040182
      dxz     :     0.002203
      dyz     :     0.006601
      dx2y2   :     0.011201
      dxy     :     0.014967
      f0      :     0.000246  f :     0.002003
      f+1     :     0.000187
      f-1     :     0.000432
      f+2     :     0.000104
      f-2     :     0.000170
      f+3     :     0.000408
      f-3     :     0.000457
  1 C s       :     3.207225  s :     3.207225
      pz      :     1.044807  p :     2.674186
      px      :     0.888456
      py      :     0.740923
      dz2     :     0.005138  d :     0.128537
      dxz     :     0.024681
      dyz     :     0.042103
      dx2y2   :     0.031393
      dxy     :     0.025223
      f0      :     0.001804  f :     0.012630
      f+1     :     0.001341
      f-1     :     0.000848
      f+2     :     0.001845
      f-2     :     0.001430
      f+3     :     0.002009
      f-3     :     0.003353
  2 C s       :     3.248243  s :     3.248243
      pz      :     1.049175  p :     2.802689
      px      :     0.909499
      py      :     0.844015
      dz2     :     0.008437  d :     0.083496
      dxz     :     0.020686
      dyz     :     0.018112
      dx2y2   :     0.018529
      dxy     :     0.017732
      f0      :     0.001101  f :     0.009030
      f+1     :     0.001390
      f-1     :     0.000381
      f+2     :     0.000691
      f-2     :     0.001325
      f+3     :     0.002156
      f-3     :     0.001985
  3 H s       :     0.880611  s :     0.880611
      pz      :     0.010066  p :     0.020128
      px      :     0.006340
      py      :     0.003721
  4 H s       :     0.873329  s :     0.873329
      pz      :     0.010970  p :     0.021769
      px      :     0.006637
      py      :     0.004162
  5 H s       :     0.843105  s :     0.843105
      pz      :     0.011372  p :     0.023598
      px      :     0.007070
      py      :     0.005156
  6 H s       :     0.842227  s :     0.842227
      pz      :     0.011615  p :     0.023809
      px      :     0.006810
      py      :     0.005384


                     *******************************
                     * LOEWDIN POPULATION ANALYSIS *
                     *******************************

----------------------
LOEWDIN ATOMIC CHARGES
----------------------
   0 O :    0.112693
   1 C :   -0.369345
   2 C :   -0.167421
   3 H :    0.111941
   4 H :    0.103141
   5 H :    0.105706
   6 H :    0.103284

-------------------------------
LOEWDIN REDUCED ORBITAL CHARGES
-------------------------------
  0 O s       :     3.400345  s :     3.400345
      pz      :     1.731671  p :     4.389710
      px      :     1.263356
      py      :     1.394682
      dz2     :     0.010868  d :     0.090812
      dxz     :     0.006609
      dyz     :     0.016177
      dx2y2   :     0.029700
      dxy     :     0.027458
      f0      :     0.000634  f :     0.006440
      f+1     :     0.000274
      f-1     :     0.000838
      f+2     :     0.000375
      f-2     :     0.000808
      f+3     :     0.001433
      f-3     :     0.002077
  1 C s       :     2.824150  s :     2.824150
      pz      :     1.055425  p :     2.910529
      px      :     0.996502
      py      :     0.858602
      dz2     :     0.057086  d :     0.549157
      dxz     :     0.121588
      dyz     :     0.125540
      dx2y2   :     0.128939
      dxy     :     0.116004
      f0      :     0.012083  f :     0.085510
      f+1     :     0.005671
      f-1     :     0.007331
      f+2     :     0.013049
      f-2     :     0.006962
      f+3     :     0.015365
      f-3     :     0.025049
  2 C s       :     2.841299  s :     2.841299
      pz      :     1.083946  p :     2.942987
      px      :     1.013206
      py      :     0.845835
      dz2     :     0.048391  d :     0.337909
      dxz     :     0.101616
      dyz     :     0.048731
      dx2y2   :     0.068660
      dxy     :     0.070511
      f0      :     0.005945  f :     0.045225
      f+1     :     0.005213
      f-1     :     0.003572
      f+2     :     0.003848
      f-2     :     0.004858
      f+3     :     0.010832
      f-3     :     0.010956
  3 H s       :     0.830551  s :     0.830551
      pz      :     0.030007  p :     0.057508
      px      :     0.016856
      py      :     0.010644
  4 H s       :     0.832020  s :     0.832020
      pz      :     0.033946  p :     0.064838
      px      :     0.018487
      py      :     0.012404
  5 H s       :     0.820865  s :     0.820865
      pz      :     0.036375  p :     0.073429
      px      :     0.020723
      py      :     0.016331
  6 H s       :     0.821935  s :     0.821935
      pz      :     0.037397  p :     0.074781
      px      :     0.020234
      py      :     0.017150


                      *****************************
                      * MAYER POPULATION ANALYSIS *
                      *****************************

  NA   - Mulliken gross atomic population
  ZA   - Total nuclear charge
  QA   - Mulliken gross atomic charge
  VA   - Mayer's total valence
  BVA  - Mayer's bonded valence
  FA   - Mayer's free valence

  ATOM       NA         ZA         QA         VA         BVA        FA
  0 O      8.3054     8.0000    -0.3054     1.9936     1.9936    -0.0000
  1 C      6.0226     6.0000    -0.0226     3.9801     3.9801    -0.0000
  2 C      6.1435     6.0000    -0.1435     3.9276     3.9276    -0.0000
  3 H      0.9007     1.0000     0.0993     0.9582     0.9582     0.0000
  4 H      0.8951     1.0000     0.1049     0.9585     0.9585     0.0000
  5 H      0.8667     1.0000     0.1333     0.9628     0.9628    -0.0000
  6 H      0.8660     1.0000     0.1340     0.9623     0.9623    -0.0000

  Mayer bond orders larger than 0.100000
B(  0-O ,  1-C ) :   1.0219 B(  0-O ,  2-C ) :   0.9561 B(  1-C ,  2-C ) :   1.0402 
B(  1-C ,  3-H ) :   0.9512 B(  1-C ,  4-H ) :   0.9596 B(  2-C ,  5-H ) :   0.9599 
B(  2-C ,  6-H ) :   0.9587 

-------
TIMINGS
-------

Total SCF time: 0 days 0 hours 0 min 0 sec 

Total time                  ....       0.976 sec
Sum of individual times     ....       0.880 sec  ( 90.1%)

Fock matrix formation       ....       0.675 sec  ( 69.2%)
  Split-RI-J                ....       0.113 sec  ( 16.7% of F)
  Chain of spheres X        ....       0.497 sec  ( 73.7% of F)
  XC integration            ....       0.063 sec  (  9.4% of F)
    Basis function eval.    ....       0.018 sec  ( 27.7% of XC)
    Density eval.           ....       0.014 sec  ( 21.6% of XC)
    XC-Functional eval.     ....       0.004 sec  (  5.7% of XC)
    XC-Potential eval.      ....       0.021 sec  ( 33.7% of XC)
Diagonalization             ....       0.002 sec  (  0.2%)
Density matrix formation    ....       0.000 sec  (  0.0%)
Population analysis         ....       0.002 sec  (  0.3%)
Initial guess               ....       0.005 sec  (  0.5%)
Orbital Transformation      ....       0.000 sec  (  0.0%)
Orbital Orthonormalization  ....       0.001 sec  (  0.1%)
DIIS solution               ....       0.001 sec  (  0.1%)
SOSCF solution              ....       0.002 sec  (  0.2%)
Grid generation             ....       0.191 sec  ( 19.6%)

Maximum memory used throughout the entire SCF-calculation: 61.1 MB


           ************************************************************
           *        Program running with 8 parallel MPI-processes     *
           *              working on a common directory               *
           ************************************************************
------------------------------------------------------------------------------
                        ORCA TD-DFT/TDA CALCULATION
------------------------------------------------------------------------------

Input orbitals are from        ... ox_es1_B_orca0002.gbw
CI-vector output               ... ox_es1_B_orca0002.cis
Tamm-Dancoff approximation     ... operative
CIS-Integral strategy          ... AO-integrals
Integral handling              ... AO integral Direct
Max. core memory used          ... 3000 MB
Reference state                ... RHF
Generation of triplets         ... off
Follow IRoot                   ... off
Number of operators            ... 1
Orbital ranges used for CIS calculation:
 Operator 0:  Orbitals   3... 11  to  12...116
XAS localization array:
 Operator 0:  Orbitals  -1... -1

-------------------
XC-INTEGRATION GRID
-------------------

General Integration Accuracy     IntAcc      ... 3.467
Radial Grid Type                 RadialGrid  ... OptM3 with GC (2021)
Angular Grid (max. ang.)         AngularGrid ... 1 (Lebedev-50)
Angular grid pruning method      GridPruning ... 4 (adaptive)
Weight generation scheme         WeightScheme... Becke
Basis function cutoff            BFCut       ... 1.0000e-11
Integration weight cutoff        WCut        ... 1.0000e-14
Angular grids for H and He will be reduced by one unit
Partially contracted basis set               ... off
Rotationally invariant grid construction     ... off

Total number of grid points                  ...     4535
Total number of batches                      ...       75
Average number of points per batch           ...       60
Average number of grid points per atom       ...      648

---------------------
COSX-INTEGRATION GRID
---------------------

General Integration Accuracy     IntAcc      ... 3.067
Radial Grid Type                 RadialGrid  ... OptM3 with GC (2021)
Angular Grid (max. ang.)         AngularGrid ... 1 (Lebedev-50)
Angular grid pruning method      GridPruning ... 4 (adaptive)
Weight generation scheme         WeightScheme... Becke
Basis function cutoff            BFCut       ... 1.0000e-11
Integration weight cutoff        WCut        ... 1.0000e-14
Angular grids for H and He will be reduced by one unit
Partially contracted basis set               ... on
Rotationally invariant grid construction     ... off

Total number of grid points                  ...     2084
Total number of batches                      ...       37
Average number of points per batch           ...       56
Average number of grid points per atom       ...      298

---------------
TD-DFT XC SETUP
---------------

DFT calculation                         ... on
Name of the grid file                   ... ox_es1_B_orca0002.grid_cis.tmp
Exchange functional (TD-DFT)            ... PBE
   PBE kappa parameter  XKappa (TD-DFT) ...  0.804000
   PBE mue parameter   XMuePBE (TD-DFT) ...  0.219520
Correlation functional (TD-DFT)         ... PBE
   PBE beta parameter CBetaPBE (TD-DFT) ...  0.066725
 LDA part of GGA corr.  LDAOpt (TD-DFT) ... PW91-LDA
Hybrid DFT                              ... on
   Exchange mixing (TD-DFT)             ...  0.250
   GGA exch. scaling (TD-DFT)           ...  0.750
   GGA corr. scaling (TD-DFT)           ...  1.000

Building densities             ... done
Calculating rho(r) on the grid ... done
Building xc-kernel on the grid ... done
                    *** TD-DFT CALCULATION INITIALIZED ***

------------------------
DAVIDSON-DIAGONALIZATION
------------------------

Dimension of the eigenvalue problem            ...    945
Number of roots to be determined               ...      1
Maximum size of the expansion space            ...     10
Maximum number of iterations                   ...    100
Convergence tolerance for the residual         ...    2.500e-07
Convergence tolerance for the energies         ...    2.500e-07
Orthogonality tolerance                        ...    1.000e-14
Level Shift                                    ...    0.000e+00
Constructing the preconditioner                ... o.k.
Building the initial guess                     ... o.k.
Number of trial vectors determined             ...     10


                       ****Iteration    0****

   Memory handling for direct AO based CIS:
   Memory per vector needed      ...     1 MB
   Memory needed                 ...     1 MB
   Memory available              ...  3000 MB
   Number of vectors per batch   ...  3000
   Number of batches             ...     1
   Time for densities:            0.000
   Time for RI-J (Direct):        0.622
   Time for K (COSX):             0.073
   Time for XC-Integration:       0.015
   Time for Sigma-Completion:     0.000
   Size of expansion space: 3
   Lowest Energy          :     0.245453637780
   Maximum Energy change  :     0.245453637780 (vector 0)
   Maximum residual norm  :     0.003923706199

                       ****Iteration    1****
   Time for densities:            0.000
   Time for RI-J (Direct):        0.703
   Time for K (COSX):             0.049
   Time for XC-Integration:       0.006
   Time for Sigma-Completion:     0.000
   Size of expansion space: 4
   Lowest Energy          :     0.241556627615
   Maximum Energy change  :     0.003897010165 (vector 0)
   Maximum residual norm  :     0.000259772213

                       ****Iteration    2****
   Time for densities:            0.000
   Time for RI-J (Direct):        0.012
   Time for K (COSX):             0.048
   Time for XC-Integration:       0.007
   Time for Sigma-Completion:     0.000
   Size of expansion space: 5
   Lowest Energy          :     0.241357229687
   Maximum Energy change  :     0.000199397929 (vector 0)
   Maximum residual norm  :     0.000014501825

                       ****Iteration    3****
   Time for densities:            0.000
   Time for RI-J (Direct):        0.012
   Time for K (COSX):             0.049
   Time for XC-Integration:       0.006
   Time for Sigma-Completion:     0.000
   Size of expansion space: 6
   Lowest Energy          :     0.241339880299
   Maximum Energy change  :     0.000017349388 (vector 0)
   Maximum residual norm  :     0.000002636737

                       ****Iteration    4****
   Time for densities:            0.000
   Time for RI-J (Direct):        0.012
   Time for K (COSX):             0.049
   Time for XC-Integration:       0.006
   Time for Sigma-Completion:     0.000
   Size of expansion space: 7
   Lowest Energy          :     0.241335918000
   Maximum Energy change  :     0.000003962299 (vector 0)
   Maximum residual norm  :     0.000000312509

                       ****Iteration    5****
   Time for densities:            0.000
   Time for RI-J (Direct):        0.012
   Time for K (COSX):             0.049
   Time for XC-Integration:       0.006
   Time for Sigma-Completion:     0.000
   Size of expansion space: 8
   Lowest Energy          :     0.241335491006
   Maximum Energy change  :     0.000000426994 (vector 0)
   Maximum residual norm  :     0.000000030838

      *** CONVERGENCE OF RESIDUAL NORM REACHED ***

Storing the converged CI vectors               ... ox_es1_B_orca0002.cis1

                 *** DAVIDSON DONE ***

Total time for solving the CIS problem:     1.751sec

------------------------------------
TD-DFT/TDA EXCITED STATES (SINGLETS)
------------------------------------

the weight of the individual excitations are printed if larger than 1.0e-02

STATE  1:  E=   0.241335 au      6.567 eV    52967.0 cm**-1 <S**2> =   0.000000
    11a ->  12a  :     0.962159 (c=  0.98089709)
    11a ->  13a  :     0.018693 (c=  0.13672380)


-----------------------------
TD-DFT/TDA-EXCITATION SPECTRA
-----------------------------

Center of mass = ( -0.1768, -0.0413,  0.0352)
Calculating the Dipole integrals                  ... done
Transforming integrals                            ... done
Calculating the Linear Momentum integrals         ... done
Transforming integrals                            ... done
Calculating angular momentum integrals            ... done
Transforming integrals                            ... done

-----------------------------------------------------------------------------
         ABSORPTION SPECTRUM VIA TRANSITION ELECTRIC DIPOLE MOMENTS
-----------------------------------------------------------------------------
State   Energy    Wavelength  fosc         T2        TX        TY        TZ  
        (cm-1)      (nm)                 (au**2)    (au)      (au)      (au) 
-----------------------------------------------------------------------------
   1   52967.0    188.8   0.006001921   0.03730  -0.03562   0.00142   0.18983

-----------------------------------------------------------------------------
         ABSORPTION SPECTRUM VIA TRANSITION VELOCITY DIPOLE MOMENTS
-----------------------------------------------------------------------------
State   Energy    Wavelength   fosc        P2         PX        PY        PZ  
        (cm-1)      (nm)                 (au**2)     (au)      (au)      (au) 
-----------------------------------------------------------------------------
   1   52967.0    188.8   0.016593022   0.00601   0.00400  -0.00132  -0.07739

-------------------------------------------------------------------
                             CD SPECTRUM
-------------------------------------------------------------------
State  Energy     Wavelength     R         MX        MY        MZ   
       (cm-1)       (nm)     (1e40*cgs)   (au)      (au)      (au)  
-------------------------------------------------------------------
   1   52967.0    188.8     -1.74065   0.08866  -0.21635  -0.00120

-------------------------------------------------------------------
         CD SPECTRUM VIA TRANSITION VELOCITY DIPOLE MOMENTS        
-------------------------------------------------------------------
State  Energy     Wavelength     R         MX        MY        MZ   
       (cm-1)       (nm)     (1e40*cgs)   (au)      (au)      (au)  
-------------------------------------------------------------------
   1   52967.0    188.8      1.43066   0.08866  -0.21635  -0.00120

Total run time:        2.131 sec

           *** ORCA-CIS/TD-DFT FINISHED WITHOUT ERROR ***

Maximum memory used throughout the entire CIS-calculation: 49.4 MB

-----------------------
CIS/TD-DFT TOTAL ENERGY
-----------------------

    E(SCF)  =   -153.650694504 Eh
    DE(CIS) =      0.241335491 Eh (Root  1)
    ----------------------------- ---------
    E(tot)  =   -153.409359013 Eh



-------------------------------------------------------------------------------
                          DFT DISPERSION CORRECTION                            
                                                                               
                              DFTD3 V3.1  Rev 1                                
                          USING Becke-Johnson damping                          
-------------------------------------------------------------------------------
The PBE0 functional is recognized
Active option DFTDOPT                   ...         4   

molecular C6(AA) [au] = 351.223505 


            DFT-D V3
 parameters
 s6 scaling factor         :     1.0000 
 a1 scaling factor         :     0.4145 
 s8 scaling factor         :     1.2177 
 a2 scaling factor         :     4.8593 
 ad hoc parameters k1-k3   :    16.0000     1.3333    -4.0000 

 Edisp/kcal,au: -1.508545368535  -0.002404019812 
 E6   /kcal   :  -0.988744882 
 E8   /kcal   :  -0.519800487 
 % E8         :  34.457066908 

-------------------------   ----------------
Dispersion correction           -0.002404020
-------------------------   ----------------


-------------------------   --------------------
FINAL SINGLE POINT ENERGY      -153.411763032707
-------------------------   --------------------



           ************************************************************
           *        Program running with 8 parallel MPI-processes     *
           *              working on a common directory               *
           ************************************************************
------------------------------------------------------------------------------
                         ORCA SCF GRADIENT CALCULATION
------------------------------------------------------------------------------


------------------------
TD-DFT GRADIENT XC SETUP
------------------------

Building densities                     ... done
Calculating rho(r) on the grid         ... done
Building xc-kernel on the grid         ... done
Building xc 3rd derivative on the grid      ... done
                *** TD-DFT GRADIENT CALCULATION INITIALIZED ***

-------------------
TD-DFT/TDA GRADIENT
-------------------

Reference wavefunction             ... RHF
State of interest                  ... 1
Basis dimension                    ... 117
DFT-XC contribution needed         ... YES
RI-approximation                   ... ON
CIS-vectors being read from        ... ox_es1_B_orca0002.cis

 => Number of Vectors found: 1
 => Orbital Window: 3...11 -> 12...116

Reading the CIS file                     ... done
Norm of the CI vector                    ... 1.000000000
Making the CIS (pseudo)densities         ... done
Making operators G(D) and Q(T)           ... done
Transforming the Fock operators          ... done
Making the frozen-core relaxed density   ... done
Constructing the G(H) operator           ... done
Transforming the G(H) operator           ... done
Calculating the CIS Lagrangian           ... done
Solving the Z-vector equations           ... done
Finalizing the relaxed density           ... done
Storing the relaxed density              ... done
Constructing the G(Z) operator           ... done
Transforming the G(Z) operator           ... done
Making the W-matrix                      ... done
Finalizing the W-matrix                  ... done
Transforming the W-matrix                ... done
Nuclear repulsion gradient               ... done
One-Electron gradient                    ... done
Dispersion correction                    ... done
Prescreening matrices                    ... done
COSX-gradient                            ... done
Coulomb gradient (RI)                    ... done
Exchange-Correlation gradient            ... done

                 ---------------------------
                 EXCITED STATE GRADIENT DONE
                 ---------------------------

------------------
CARTESIAN GRADIENT
------------------

   1   O   :    0.099227945   -0.150346093    0.001759350
   2   C   :   -0.071227829    0.023392612   -0.024612670
   3   C   :   -0.005127663    0.115673353    0.006217093
   4   H   :    0.001121664   -0.005716445    0.007327449
   5   H   :    0.016631415    0.003605902    0.016647413
   6   H   :   -0.020026958    0.004442985    0.031174819
   7   H   :   -0.020541011    0.008894191   -0.038511308

Difference to translation invariance:
           :    0.0000575631   -0.0000534950    0.0000021451

Difference to rotation invariance:
           :   -0.0000372170   -0.0000263628   -0.0000255814

Norm of the cartesian gradient     ...    0.2369728227
RMS gradient                       ...    0.0517117094
MAX gradient                       ...    0.1503460932

------------------------------------------------------------------------------
                  RELAXED CIS/TDA DENSITY POPULATION ANALYSIS
                                   IROOT 1
------------------------------------------------------------------------------
------------------------------------------------------------------------------
                           ORCA POPULATION ANALYSIS
------------------------------------------------------------------------------
Input electron density              ... ox_es1_B_orca0002.cisp
BaseName (.gbw .S,...)              ... ox_es1_B_orca0002

                    ********************************
                    * MULLIKEN POPULATION ANALYSIS *
                    ********************************

-----------------------
MULLIKEN ATOMIC CHARGES
-----------------------
   0 O :    0.050772
   1 C :   -0.096138
   2 C :   -0.571465
   3 H :    0.162066
   4 H :    0.157275
   5 H :    0.149018
   6 H :    0.148472
Sum of atomic charges:   -0.0000000

--------------------------------
MULLIKEN REDUCED ORBITAL CHARGES
--------------------------------
  0 O s       :     3.788198  s :     3.788198
      pz      :     1.105286  p :     4.121434
      px      :     1.600031
      py      :     1.416117
      dz2     :     0.003564  d :     0.038185
      dxz     :     0.002401
      dyz     :     0.007038
      dx2y2   :     0.010886
      dxy     :     0.014296
      f0      :     0.000093  f :     0.001412
      f+1     :    -0.000063
      f-1     :     0.000146
      f+2     :     0.000124
      f-2     :     0.000177
      f+3     :     0.000481
      f-3     :     0.000453
  1 C s       :     3.218966  s :     3.218966
      pz      :     1.011431  p :     2.766069
      px      :     1.005663
      py      :     0.748975
      dz2     :     0.004580  d :     0.099361
      dxz     :     0.021565
      dyz     :     0.017421
      dx2y2   :     0.030788
      dxy     :     0.025006
      f0      :     0.001018  f :     0.011743
      f+1     :     0.001475
      f-1     :     0.000655
      f+2     :     0.001084
      f-2     :     0.001078
      f+3     :     0.003124
      f-3     :     0.003308
  2 C s       :     3.309413  s :     3.309413
      pz      :     1.070092  p :     3.176882
      px      :     0.824833
      py      :     1.281958
      dz2     :     0.009437  d :     0.076542
      dxz     :     0.009785
      dyz     :     0.003372
      dx2y2   :     0.022924
      dxy     :     0.031024
      f0      :     0.000769  f :     0.008628
      f+1     :     0.001240
      f-1     :     0.000757
      f+2     :     0.000604
      f-2     :     0.000759
      f+3     :     0.002796
      f-3     :     0.001702
  3 H s       :     0.816493  s :     0.816493
      pz      :     0.010328  p :     0.021440
      px      :     0.007171
      py      :     0.003941
  4 H s       :     0.819731  s :     0.819731
      pz      :     0.011269  p :     0.022994
      px      :     0.007442
      py      :     0.004283
  5 H s       :     0.823330  s :     0.823330
      pz      :     0.010212  p :     0.027652
      px      :     0.006850
      py      :     0.010590
  6 H s       :     0.823303  s :     0.823303
      pz      :     0.010439  p :     0.028225
      px      :     0.006567
      py      :     0.011219


                     *******************************
                     * LOEWDIN POPULATION ANALYSIS *
                     *******************************

----------------------
LOEWDIN ATOMIC CHARGES
----------------------
   0 O :    0.334805
   1 C :   -0.347750
   2 C :   -0.485215
   3 H :    0.158933
   4 H :    0.142146
   5 H :    0.100148
   6 H :    0.096932

-------------------------------
LOEWDIN REDUCED ORBITAL CHARGES
-------------------------------
  0 O s       :     3.444547  s :     3.444547
      pz      :     1.049562  p :     4.102770
      px      :     1.550846
      py      :     1.502363
      dz2     :     0.013177  d :     0.111465
      dxz     :     0.006968
      dyz     :     0.015395
      dx2y2   :     0.030359
      dxy     :     0.045567
      f0      :     0.000632  f :     0.006413
      f+1     :     0.000231
      f-1     :     0.000669
      f+2     :     0.000326
      f-2     :     0.000785
      f+3     :     0.001695
      f-3     :     0.002075
  1 C s       :     2.828188  s :     2.828188
      pz      :     1.010505  p :     2.970604
      px      :     1.071124
      py      :     0.888975
      dz2     :     0.057133  d :     0.465378
      dxz     :     0.103712
      dyz     :     0.058885
      dx2y2   :     0.129119
      dxy     :     0.116529
      f0      :     0.007628  f :     0.083580
      f+1     :     0.006181
      f-1     :     0.007423
      f+2     :     0.008226
      f-2     :     0.005216
      f+3     :     0.023450
      f-3     :     0.025457
  2 C s       :     2.860733  s :     2.860733
      pz      :     1.083650  p :     3.158707
      px      :     0.967207
      py      :     1.107850
      dz2     :     0.059429  d :     0.410337
      dxz     :     0.085522
      dyz     :     0.020030
      dx2y2   :     0.090403
      dxy     :     0.154953
      f0      :     0.004884  f :     0.055438
      f+1     :     0.006301
      f-1     :     0.006612
      f+2     :     0.002965
      f-2     :     0.003206
      f+3     :     0.019699
      f-3     :     0.011770
  3 H s       :     0.780567  s :     0.780567
      pz      :     0.030195  p :     0.060499
      px      :     0.019286
      py      :     0.011019
  4 H s       :     0.790039  s :     0.790039
      pz      :     0.034190  p :     0.067815
      px      :     0.020968
      py      :     0.012656
  5 H s       :     0.815700  s :     0.815700
      pz      :     0.033648  p :     0.084152
      px      :     0.020322
      py      :     0.030182
  6 H s       :     0.816501  s :     0.816501
      pz      :     0.034676  p :     0.086567
      px      :     0.019823
      py      :     0.032068


                      *****************************
                      * MAYER POPULATION ANALYSIS *
                      *****************************

  NA   - Mulliken gross atomic population
  ZA   - Total nuclear charge
  QA   - Mulliken gross atomic charge
  VA   - Mayer's total valence
  BVA  - Mayer's bonded valence
  FA   - Mayer's free valence

  ATOM       NA         ZA         QA         VA         BVA        FA
  0 O      7.9492     8.0000     0.0508     1.8558     1.1038     0.7520
  1 C      6.0961     6.0000    -0.0961     3.8725     3.7535     0.1190
  2 C      6.5715     6.0000    -0.5715     3.9233     3.0765     0.8469
  3 H      0.8379     1.0000     0.1621     0.9623     0.8941     0.0682
  4 H      0.8427     1.0000     0.1573     0.9624     0.9068     0.0556
  5 H      0.8510     1.0000     0.1490     0.9865     0.9673     0.0192
  6 H      0.8515     1.0000     0.1485     0.9894     0.9656     0.0238

  Mayer bond orders larger than 0.100000
B(  0-O ,  1-C ) :   0.9776 B(  0-O ,  2-C ) :   0.1044 B(  1-C ,  2-C ) :   1.0276 
B(  1-C ,  3-H ) :   0.8738 B(  1-C ,  4-H ) :   0.8906 B(  2-C ,  5-H ) :   0.9666 
B(  2-C ,  6-H ) :   0.9642 


-------
TIMINGS
-------

Total TD-DFT gradient time         ...        5.097 sec

Fock matrix formation       ....       0.826 sec  ( 16.2%)
  Coulomb formation         ....       0.672 sec  ( 81.4% of F)
  RI-J                      ....       0.301 sec  ( 36.4% of F)
  Chain of spheres X        ....       0.371 sec  ( 44.9% of F)
  XC integration            ....       0.154 sec  ( 18.6% of F)
Z-vector equation           ....       1.393 sec  ( 27.3%)
One electron gradient       ....       0.033 sec  (  0.7%)
Prescreening matrices       ....       0.157 sec  (  3.1%)
RI-J Coulomb gradient       ....       0.264 sec  (  5.2%)
COSX gradient               ....       0.330 sec  (  6.5%)
XC gradient                 ....       1.673 sec  ( 32.8%)

Maximum memory used throughout the entire SCFGRAD-calculation: 130.3 MB

                            ***************************************
                            *     ORCA property calculations      *
                            ***************************************

                                    ---------------------
                                    Active property flags
                                    ---------------------
   (+) Dipole Moment


------------------------------------------------------------------------------
                       ORCA ELECTRIC PROPERTIES CALCULATION
------------------------------------------------------------------------------

Dipole Moment Calculation                       ... on
Quadrupole Moment Calculation                   ... off
Polarizability Calculation                      ... off
GBWName                                         ... ox_es1_B_orca0002.gbw
Electron density                                ... ox_es1_B_orca0002.scfp
The origin for moment calculation is the CENTER OF MASS  = (-0.176777, -0.041295  0.035195)

-------------
DIPOLE MOMENT
-------------
                                X             Y             Z
Electronic contribution:     -0.07123       1.70093      -0.03346
Nuclear contribution   :      0.20794      -2.46327       0.02884
                        -----------------------------------------
Total Dipole Moment    :      0.13671      -0.76234      -0.00462
                        -----------------------------------------
Magnitude (a.u.)       :      0.77452
Magnitude (Debye)      :      1.96867



--------------------
Rotational spectrum 
--------------------
 
Rotational constants in cm-1:     0.914009     0.653068     0.446694 
Rotational constants in MHz : 27401.300706 19578.473011 13391.560647 

 Dipole components along the rotational axes: 
x,y,z [a.u.] :    -0.428032    -0.645291    -0.016380 
x,y,z [Debye]:    -1.087972    -1.640201    -0.041634 

 

                        *** CIS RELAXED DENSITY ***

------------------------------------------------------------------------------
                       ORCA ELECTRIC PROPERTIES CALCULATION
------------------------------------------------------------------------------

Dipole Moment Calculation                       ... on
Quadrupole Moment Calculation                   ... off
Polarizability Calculation                      ... off
GBWName                                         ... ox_es1_B_orca0002.gbw
Electron density                                ... ox_es1_B_orca0002.cisp
The origin for moment calculation is the CENTER OF MASS  = (-0.176777, -0.041295  0.035195)

-------------
DIPOLE MOMENT
-------------
                                X             Y             Z
Electronic contribution:     -0.99893       2.23200      -0.04420
Nuclear contribution   :      0.20794      -2.46327       0.02884
                        -----------------------------------------
Total Dipole Moment    :     -0.79099      -0.23127      -0.01536
                        -----------------------------------------
Magnitude (a.u.)       :      0.82425
Magnitude (Debye)      :      2.09506



--------------------
Rotational spectrum 
--------------------
 
Rotational constants in cm-1:     0.914009     0.653068     0.446694 
Rotational constants in MHz : 27401.300706 19578.473011 13391.560647 

 Dipole components along the rotational axes: 
x,y,z [a.u.] :     0.634233    -0.526429    -0.000914 
x,y,z [Debye]:     1.612092    -1.338076    -0.002323 

 

Timings for individual modules:

Sum of individual times         ...        9.089 sec (=   0.151 min)
GTO integral calculation        ...        0.245 sec (=   0.004 min)   2.7 %
SCF iterations                  ...        1.133 sec (=   0.019 min)  12.5 %
CIS module                      ...        2.445 sec (=   0.041 min)  26.9 %
SCF Gradient evaluation         ...        5.265 sec (=   0.088 min)  57.9 %
                             ****ORCA TERMINATED NORMALLY****
TOTAL RUN TIME: 0 days 0 hours 0 minutes 9 seconds 471 msec
