
                                 *****************
                                 * O   R   C   A *
                                 *****************

                                            #,                                       
                                            ###                                      
                                            ####                                     
                                            #####                                    
                                            ######                                   
                                           ########,                                 
                                     ,,################,,,,,                         
                               ,,#################################,,                 
                          ,,##########################################,,             
                       ,#########################################, ''#####,          
                    ,#############################################,,   '####,        
                  ,##################################################,,,,####,       
                ,###########''''           ''''###############################       
              ,#####''   ,,,,##########,,,,          '''####'''          '####       
            ,##' ,,,,###########################,,,                        '##       
           ' ,,###''''                  '''############,,,                           
         ,,##''                                '''############,,,,        ,,,,,,###''
      ,#''                                            '''#######################'''  
     '                                                          ''''####''''         
             ,#######,   #######,   ,#######,      ##                                
            ,#'     '#,  ##    ##  ,#'     '#,    #''#        ######   ,####,        
            ##       ##  ##   ,#'  ##            #'  '#       #        #'  '#        
            ##       ##  #######   ##           ,######,      #####,   #    #        
            '#,     ,#'  ##    ##  '#,     ,#' ,#      #,         ##   #,  ,#        
             '#######'   ##     ##  '#######'  #'      '#     #####' # '####'        



                  #######################################################
                  #                        -***-                        #
                  #          Department of theory and spectroscopy      #
                  #    Directorship and core code : Frank Neese         #
                  #        Max Planck Institute fuer Kohlenforschung    #
                  #                Kaiser Wilhelm Platz 1               #
                  #                 D-45470 Muelheim/Ruhr               #
                  #                      Germany                        #
                  #                                                     #
                  #                  All rights reserved                #
                  #                        -***-                        #
                  #######################################################


                         Program Version 5.0.2 -  RELEASE  -


 With contributions from (in alphabetic order):
   Daniel Aravena         : Magnetic Suceptibility
   Michael Atanasov       : Ab Initio Ligand Field Theory (pilot matlab implementation)
   Alexander A. Auer      : GIAO ZORA, VPT2 properties, NMR spectrum
   Ute Becker             : Parallelization
   Giovanni Bistoni       : ED, misc. LED, open-shell LED, HFLD
   Martin Brehm           : Molecular dynamics
   Dmytro Bykov           : SCF Hessian
   Vijay G. Chilkuri      : MRCI spin determinant printing, contributions to CSF-ICE
   Dipayan Datta          : RHF DLPNO-CCSD density
   Achintya Kumar Dutta   : EOM-CC, STEOM-CC
   Dmitry Ganyushin       : Spin-Orbit,Spin-Spin,Magnetic field MRCI
   Miquel Garcia          : C-PCM and meta-GGA Hessian, CC/C-PCM, Gaussian charge scheme
   Yang Guo               : DLPNO-NEVPT2, F12-NEVPT2, CIM, IAO-localization
   Andreas Hansen         : Spin unrestricted coupled pair/coupled cluster methods
   Benjamin Helmich-Paris : MC-RPA, TRAH-SCF, COSX integrals
   Lee Huntington         : MR-EOM, pCC
   Robert Izsak           : Overlap fitted RIJCOSX, COSX-SCS-MP3, EOM
   Marcus Kettner         : VPT2
   Christian Kollmar      : KDIIS, OOCD, Brueckner-CCSD(T), CCSD density, CASPT2, CASPT2-K
   Simone Kossmann        : Meta GGA functionals, TD-DFT gradient, OOMP2, MP2 Hessian
   Martin Krupicka        : Initial AUTO-CI
   Lucas Lang             : DCDCAS
   Marvin Lechner         : AUTO-CI (C++ implementation), FIC-MRCC
   Dagmar Lenk            : GEPOL surface, SMD
   Dimitrios Liakos       : Extrapolation schemes; Compound Job, initial MDCI parallelization
   Dimitrios Manganas     : Further ROCIS development; embedding schemes
   Dimitrios Pantazis     : SARC Basis sets
   Anastasios Papadopoulos: AUTO-CI, single reference methods and gradients
   Taras Petrenko         : DFT Hessian,TD-DFT gradient, ASA, ECA, R-Raman, ABS, FL, XAS/XES, NRVS
   Peter Pinski           : DLPNO-MP2, DLPNO-MP2 Gradient
   Christoph Reimann      : Effective Core Potentials
   Marius Retegan         : Local ZFS, SOC
   Christoph Riplinger    : Optimizer, TS searches, QM/MM, DLPNO-CCSD(T), (RO)-DLPNO pert. Triples
   Tobias Risthaus        : Range-separated hybrids, TD-DFT gradient, RPA, STAB
   Michael Roemelt        : Original ROCIS implementation
   Masaaki Saitow         : Open-shell DLPNO-CCSD energy and density
   Barbara Sandhoefer     : DKH picture change effects
   Avijit Sen             : IP-ROCIS
   Kantharuban Sivalingam : CASSCF convergence, NEVPT2, FIC-MRCI
   Bernardo de Souza      : ESD, SOC TD-DFT
   Georgi Stoychev        : AutoAux, RI-MP2 NMR, DLPNO-MP2 response
   Willem Van den Heuvel  : Paramagnetic NMR
   Boris Wezisla          : Elementary symmetry handling
   Frank Wennmohs         : Technical directorship


 We gratefully acknowledge several colleagues who have allowed us to
 interface, adapt or use parts of their codes:
   Stefan Grimme, W. Hujo, H. Kruse, P. Pracht,  : VdW corrections, initial TS optimization,
                  C. Bannwarth, S. Ehlert          DFT functionals, gCP, sTDA/sTD-DF
   Ed Valeev, F. Pavosevic, A. Kumar             : LibInt (2-el integral package), F12 methods
   Garnet Chan, S. Sharma, J. Yang, R. Olivares  : DMRG
   Ulf Ekstrom                                   : XCFun DFT Library
   Mihaly Kallay                                 : mrcc  (arbitrary order and MRCC methods)
   Jiri Pittner, Ondrej Demel                    : Mk-CCSD
   Frank Weinhold                                : gennbo (NPA and NBO analysis)
   Christopher J. Cramer and Donald G. Truhlar   : smd solvation model
   Lars Goerigk                                  : TD-DFT with DH, B97 family of functionals
   V. Asgeirsson, H. Jonsson                     : NEB implementation
   FAccTs GmbH                                   : IRC, NEB, NEB-TS, DLPNO-Multilevel, CI-OPT
                                                   MM, QMMM, 2- and 3-layer-ONIOM, Crystal-QMMM,
                                                   LR-CPCM, SF, NACMEs, symmetry and pop. for TD-DFT,
                                                   nearIR, NL-DFT gradient (VV10), updates on ESD,
                                                   ML-optimized integration grids
   S Lehtola, MJT Oliveira, MAL Marques          : LibXC Library
   Liviu Ungur et al                             : ANISO software


 Your calculation uses the libint2 library for the computation of 2-el integrals
 For citations please refer to: http://libint.valeyev.net

 Your ORCA version has been built with support for libXC version: 5.1.0
 For citations please refer to: https://tddft.org/programs/libxc/

 This ORCA versions uses:
   CBLAS   interface :  Fast vector & matrix operations
   LAPACKE interface :  Fast linear algebra routines
   SCALAPACK package :  Parallel linear algebra routines
   Shared memory     :  Shared parallel matrices
   BLAS/LAPACK       :  OpenBLAS 0.3.15  USE64BITINT DYNAMIC_ARCH NO_AFFINITY SkylakeX SINGLE_THREADED
        Core in use  :  SkylakeX
   Copyright (c) 2011-2014, The OpenBLAS Project


Your calculation utilizes the atom-pairwise dispersion correction
with the Becke-Johnson damping scheme (D3BJ)
Cite in your paper:
S.Grimme, S.Ehrlich, L.Goerigk, J Comput Chem, (2011), 32, 1456–1465 
S.Grimme, J.Antony, S.Ehrlich and H.Krieg, J.Chem.Phys., 132, (2010), 154104 
   

================================================================================

----- Orbital basis set information -----
Your calculation utilizes the basis: def2-TZVP
   F. Weigend and R. Ahlrichs, Phys. Chem. Chem. Phys. 7, 3297 (2005).

----- AuxJ basis set information -----
Your calculation utilizes the auxiliary basis: def2/J
   F. Weigend, Phys. Chem. Chem. Phys. 8, 1057 (2006).

================================================================================
                                        WARNINGS
                       Please study these warnings very carefully!
================================================================================

INFO   : Checking CIS options ...

WARNING: CIS/ROCIS methods need fully converged wavefunctions
  ===> : Setting SCFConvForced true
         You can overwrite this default with %scf ConvForced false 


INFO   : the flag for use of the SHARK integral package has been found!

================================================================================
                                       INPUT FILE
================================================================================
NAME = ox_es1_A_orca0014.inp
|  1> ! engrad PBE0 D3BJ def2-TZVP  
|  2> %pal nprocs 8 end
|  3> %maxcore 3000
|  4> 
|  5> %tddft
|  6>   nroots 1
|  7>   tda true
|  8>   Iroot 1
|  9>   end 
| 10> *xyz 0 1 
| 11> O   0.01785082429825237 0.7322788302369674 0.04498010377166253
| 12> C   -0.7135246139561695 -0.406377384058052 0.03148144209618061
| 13> C   0.6874397894538964 -0.4750295420098485 0.037364680256163095
| 14> H   -1.2333044167283267 -0.6693158896982074 0.9258425891654392
| 15> H   -1.1999395252105787 -0.6978494794417915 -0.8926213509414981
| 16> H   1.2537131873783052 -0.679154920161361 -0.8650373774006405
| 17> H   1.3050936874494015 -0.6275953281999681 0.9852501103577165
| 18> *
| 19> 
| 20>                          ****END OF INPUT****
================================================================================

                     *******************************
                     * Energy+Gradient Calculation *
                     *******************************

---------------------------------
CARTESIAN COORDINATES (ANGSTROEM)
---------------------------------
  O      0.017851    0.732279    0.044980
  C     -0.713525   -0.406377    0.031481
  C      0.687440   -0.475030    0.037365
  H     -1.233304   -0.669316    0.925843
  H     -1.199940   -0.697849   -0.892621
  H      1.253713   -0.679155   -0.865037
  H      1.305094   -0.627595    0.985250

----------------------------
CARTESIAN COORDINATES (A.U.)
----------------------------
  NO LB      ZA    FRAG     MASS         X           Y           Z
   0 O     8.0000    0    15.999    0.033733    1.383806    0.085000
   1 C     6.0000    0    12.011   -1.348366   -0.767942    0.059491
   2 C     6.0000    0    12.011    1.299073   -0.897676    0.070609
   3 H     1.0000    0     1.008   -2.330608   -1.264824    1.749589
   4 H     1.0000    0     1.008   -2.267557   -1.318744   -1.686810
   5 H     1.0000    0     1.008    2.369175   -1.283417   -1.634684
   6 H     1.0000    0     1.008    2.466270   -1.185983    1.861853

--------------------------------
INTERNAL COORDINATES (ANGSTROEM)
--------------------------------
 O      0   0   0     0.000000000000     0.00000000     0.00000000
 C      1   0   0     1.353377338329     0.00000000     0.00000000
 C      1   2   0     1.380579908093    61.72496689     0.00000000
 H      2   1   3     1.067328235598   117.52160907   108.22569187
 H      2   1   3     1.084214656043   118.49790900   254.73209949
 H      3   1   2     1.084740616399   114.98243906   113.28421530
 H      3   1   2     1.141603891647   112.00554424   243.39100052

---------------------------
INTERNAL COORDINATES (A.U.)
---------------------------
 O      0   0   0     0.000000000000     0.00000000     0.00000000
 C      1   0   0     2.557512525296     0.00000000     0.00000000
 C      1   2   0     2.608917932290    61.72496689     0.00000000
 H      2   1   3     2.016958060282   117.52160907   108.22569187
 H      2   1   3     2.048868770305   118.49790900   254.73209949
 H      3   1   2     2.049862691335   114.98243906   113.28421530
 H      3   1   2     2.157318708632   112.00554424   243.39100052

---------------------
BASIS SET INFORMATION
---------------------
There are 3 groups of distinct atoms

 Group   1 Type O   : 11s6p2d1f contracted to 5s3p2d1f pattern {62111/411/11/1}
 Group   2 Type C   : 11s6p2d1f contracted to 5s3p2d1f pattern {62111/411/11/1}
 Group   3 Type H   : 5s1p contracted to 3s1p pattern {311/1}

Atom   0O    basis set group =>   1
Atom   1C    basis set group =>   2
Atom   2C    basis set group =>   2
Atom   3H    basis set group =>   3
Atom   4H    basis set group =>   3
Atom   5H    basis set group =>   3
Atom   6H    basis set group =>   3
---------------------------------
AUXILIARY/J BASIS SET INFORMATION
---------------------------------
There are 3 groups of distinct atoms

 Group   1 Type O   : 12s5p4d2f1g contracted to 6s4p3d1f1g pattern {711111/2111/211/2/1}
 Group   2 Type C   : 12s5p4d2f1g contracted to 6s4p3d1f1g pattern {711111/2111/211/2/1}
 Group   3 Type H   : 5s2p1d contracted to 3s1p1d pattern {311/2/1}

Atom   0O    basis set group =>   1
Atom   1C    basis set group =>   2
Atom   2C    basis set group =>   2
Atom   3H    basis set group =>   3
Atom   4H    basis set group =>   3
Atom   5H    basis set group =>   3
Atom   6H    basis set group =>   3

Checking for AutoStart:
The File: ox_es1_A_orca0014.gbw exists
Trying to determine its content:
     ... Fine, the file contains calculation information
     ... Fine, the calculation information was read
     ... Fine, the file contains a basis set
     ... Fine, the basis set was read
     ... Fine, the file contains a geometry
     ... Fine, the geometry was read
     ... Fine, the file contains a set of orbitals
     ... Fine, the orbitals can be read
     => possible old guess file was deleted
     => GBW file was renamed to GES file
     => GES file is set as startup file
     => Guess is set to MORead
     ... now leaving AutoStart



           ************************************************************
           *        Program running with 8 parallel MPI-processes     *
           *              working on a common directory               *
           ************************************************************
------------------------------------------------------------------------------
                           ORCA GTO INTEGRAL CALCULATION
                           -- RI-GTO INTEGRALS CHOSEN --
------------------------------------------------------------------------------
------------------------------------------------------------------------------
                   ___                                                        
                  /   \      - P O W E R E D   B Y -                         
                 /     \                                                     
                 |  |  |   _    _      __       _____    __    __             
                 |  |  |  | |  | |    /  \     |  _  \  |  |  /  |          
                  \  \/   | |  | |   /    \    | | | |  |  | /  /          
                 / \  \   | |__| |  /  /\  \   | |_| |  |  |/  /          
                |  |  |   |  __  | /  /__\  \  |    /   |      \           
                |  |  |   | |  | | |   __   |  |    \   |  |\   \          
                \     /   | |  | | |  |  |  |  | |\  \  |  | \   \       
                 \___/    |_|  |_| |__|  |__|  |_| \__\ |__|  \__/        
                                                                              
                      - O R C A' S   B I G   F R I E N D -                    
                                      &                                       
                       - I N T E G R A L  F E E D E R -                       
                                                                              
 v1 FN, 2020, v2 2021                                                         
------------------------------------------------------------------------------


Reading SHARK input file ox_es1_A_orca0014.SHARKINP.tmp ... ok
----------------------
SHARK INTEGRAL PACKAGE
----------------------

Number of atoms                             ...      7
Number of basis functions                   ...    117
Number of shells                            ...     49
Maximum angular momentum                    ...      3
Integral batch strategy                     ... SHARK/LIBINT Hybrid
RI-J (if used) integral strategy            ... SPLIT-RIJ (Revised 2003 algorithm where possible)
Printlevel                                  ...      1
Contraction scheme used                     ... SEGMENTED contraction
Coulomb Range Separation                    ... NOT USED
Exchange Range Separation                   ... NOT USED
Finite Nucleus Model                        ... NOT USED
Auxiliary Coulomb fitting basis             ... AVAILABLE
   # of basis functions in Aux-J            ...    191
   # of shells in Aux-J                     ...     65
   Maximum angular momentum in Aux-J        ...      4
Auxiliary J/K fitting basis                 ... NOT available
Auxiliary Correlation fitting basis         ... NOT available
Auxiliary 'external' fitting basis          ... NOT available
Integral threshold                          ...     2.500000e-11
Primitive cut-off                           ...     2.500000e-12
Primitive pair pre-selection threshold      ...     2.500000e-12

Calculating pre-screening integrals         ... done (  0.0 sec) Dimension = 49
Organizing shell pair data                  ... done (  0.0 sec)
Shell pair information
Total number of shell pairs                 ...      1225
Shell pairs after pre-screening             ...      1222
Total number of primitive shell pairs       ...      3648
Primitive shell pairs kept                  ...      3166
          la=0 lb=0:    375 shell pairs
          la=1 lb=0:    351 shell pairs
          la=1 lb=1:     91 shell pairs
          la=2 lb=0:    162 shell pairs
          la=2 lb=1:     78 shell pairs
          la=2 lb=2:     21 shell pairs
          la=3 lb=0:     81 shell pairs
          la=3 lb=1:     39 shell pairs
          la=3 lb=2:     18 shell pairs
          la=3 lb=3:      6 shell pairs

Calculating one electron integrals          ... done (  0.0 sec)
Calculating RI/J V-Matrix + Cholesky decomp.... done (  0.0 sec)
Calculating Nuclear repulsion               ... done (  0.0 sec) ENN=     77.676520634066 Eh

SHARK setup successfully completed in   0.1 seconds

Maximum memory used throughout the entire GTOINT-calculation: 14.9 MB


           ************************************************************
           *        Program running with 8 parallel MPI-processes     *
           *              working on a common directory               *
           ************************************************************
-------------------------------------------------------------------------------
                                 ORCA SCF
-------------------------------------------------------------------------------

------------
SCF SETTINGS
------------
Hamiltonian:
 Density Functional     Method          .... DFT(GTOs)
 Exchange Functional    Exchange        .... PBE
   PBE kappa parameter   XKappa         ....  0.804000
   PBE mue parameter    XMuePBE         ....  0.219520
 Correlation Functional Correlation     .... PBE
   PBE beta parameter  CBetaPBE         ....  0.066725
 LDA part of GGA corr.  LDAOpt          .... PW91-LDA
 Gradients option       PostSCFGGA      .... off
 Hybrid DFT is turned on
   Fraction HF Exchange ScalHFX         ....  0.250000
   Scaling of DF-GGA-X  ScalDFX         ....  0.750000
   Scaling of DF-GGA-C  ScalDFC         ....  1.000000
   Scaling of DF-LDA-C  ScalLDAC        ....  1.000000
   Perturbative correction              ....  0.000000
   Density functional embedding theory  .... OFF
   NL short-range parameter             ....  6.900000
 RI-approximation to the Coulomb term is turned on
   Number of AuxJ basis functions       .... 191
   RIJ-COSX (HFX calculated with COS-X)).... on


General Settings:
 Integral files         IntName         .... ox_es1_A_orca0014
 Hartree-Fock type      HFTyp           .... RHF
 Total Charge           Charge          ....    0
 Multiplicity           Mult            ....    1
 Number of Electrons    NEL             ....   24
 Basis Dimension        Dim             ....  117
 Nuclear Repulsion      ENuc            ....     77.6765206341 Eh

Convergence Acceleration:
 DIIS                   CNVDIIS         .... on
   Start iteration      DIISMaxIt       ....    12
   Startup error        DIISStart       ....  0.200000
   # of expansion vecs  DIISMaxEq       ....     5
   Bias factor          DIISBfac        ....   1.050
   Max. coefficient     DIISMaxC        ....  10.000
 Trust-Rad. Augm. Hess. CNVTRAH         .... auto
   Auto Start mean grad. ratio tolernc. ....  1.125000
   Auto Start start iteration           ....     1
   Auto Start num. interpolation iter.  ....    10
   Max. Number of Micro iterations      ....    16
   Max. Number of Macro iterations      .... Maxiter - #DIIS iter
   Number of Davidson start vectors     ....     2
   Converg. threshold I  (grad. norm)   ....   1.000e-05
   Converg. threshold II (energy diff.) ....   1.000e-08
   Grad. Scal. Fac. for Micro threshold ....   0.100
   Minimum threshold for Micro iter.    ....   0.010
   NR start threshold (gradient norm)   ....   0.001
   Initial trust radius                 ....   0.400
   Minimum AH scaling param. (alpha)    ....   1.000
   Maximum AH scaling param. (alpha)    .... 1000.000
   Orbital update algorithm             .... Taylor
   White noise on init. David. guess    .... on
   Maximum white noise                  ....   0.010
   Quad. conv. algorithm                .... NR
 SOSCF                  CNVSOSCF        .... on
   Start iteration      SOSCFMaxIt      ....   150
   Startup grad/error   SOSCFStart      ....  0.003300
 Level Shifting         CNVShift        .... on
   Level shift para.    LevelShift      ....    0.2500
   Turn off err/grad.   ShiftErr        ....    0.0010
 Zerner damping         CNVZerner       .... off
 Static damping         CNVDamp         .... on
   Fraction old density DampFac         ....    0.7000
   Max. Damping (<1)    DampMax         ....    0.9800
   Min. Damping (>=0)   DampMin         ....    0.0000
   Turn off err/grad.   DampErr         ....    0.1000
 Fernandez-Rico         CNVRico         .... off

SCF Procedure:
 Maximum # iterations   MaxIter         ....   125
 SCF integral mode      SCFMode         .... Direct
   Integral package                     .... SHARK and LIBINT hybrid scheme
 Reset frequency        DirectResetFreq ....    20
 Integral Threshold     Thresh          ....  2.500e-11 Eh
 Primitive CutOff       TCut            ....  2.500e-12 Eh

Convergence Tolerance:
 Convergence Check Mode ConvCheckMode   .... Total+1el-Energy
 Convergence forced     ConvForced      .... 1
 Energy Change          TolE            ....  1.000e-08 Eh
 1-El. energy change                    ....  1.000e-05 Eh
 Orbital Gradient       TolG            ....  1.000e-05
 Orbital Rotation angle TolX            ....  1.000e-05
 DIIS Error             TolErr          ....  5.000e-07


Diagonalization of the overlap matrix:
Smallest eigenvalue                        ... 2.513e-04
Time for diagonalization                   ...    0.001 sec
Threshold for overlap eigenvalues          ... 1.000e-08
Number of eigenvalues below threshold      ... 0
Time for construction of square roots      ...    0.001 sec
Total time needed                          ...    0.003 sec

---------------------
INITIAL GUESS: MOREAD
---------------------
Guess MOs are being read from file: ox_es1_A_orca0014.ges
Input Geometry matches current geometry (good)
Input basis set matches current basis set (good)
MOs were renormalized
MOs were reorthogonalized (Cholesky)
                      ------------------
                      INITIAL GUESS DONE (   0.0 sec)
                      ------------------
-------------------
DFT GRID GENERATION
-------------------

General Integration Accuracy     IntAcc      ... 4.388
Radial Grid Type                 RadialGrid  ... OptM3 with GC (2021)
Angular Grid (max. ang.)         AngularGrid ... 4 (Lebedev-302)
Angular grid pruning method      GridPruning ... 4 (adaptive)
Weight generation scheme         WeightScheme... Becke
Basis function cutoff            BFCut       ... 1.0000e-11
Integration weight cutoff        WCut        ... 1.0000e-14
Angular grids for H and He will be reduced by one unit
Partially contracted basis set               ... off
Rotationally invariant grid construction     ... off

Total number of grid points                  ...    31287
Total number of batches                      ...      491
Average number of points per batch           ...       63
Average number of grid points per atom       ...     4470
Time for grid setup =    0.118 sec

--------------------
COSX GRID GENERATION
--------------------

GRIDX 1
-------
General Integration Accuracy     IntAcc      ... 3.816
Radial Grid Type                 RadialGrid  ... OptM3 with GC (2021)
Angular Grid (max. ang.)         AngularGrid ... 1 (Lebedev-50)
Angular grid pruning method      GridPruning ... 4 (adaptive)
Weight generation scheme         WeightScheme... Becke
Basis function cutoff            BFCut       ... 1.0000e-11
Integration weight cutoff        WCut        ... 1.0000e-14
Angular grids for H and He will be reduced by one unit
Partially contracted basis set               ... on
Rotationally invariant grid construction     ... off

Total number of grid points                  ...     4035
Total number of batches                      ...       67
Average number of points per batch           ...       60
Average number of grid points per atom       ...      576
UseSFitting                                  ... on

GRIDX 2
-------
General Integration Accuracy     IntAcc      ... 4.020
Radial Grid Type                 RadialGrid  ... OptM3 with GC (2021)
Angular Grid (max. ang.)         AngularGrid ... 2 (Lebedev-110)
Angular grid pruning method      GridPruning ... 4 (adaptive)
Weight generation scheme         WeightScheme... Becke
Basis function cutoff            BFCut       ... 1.0000e-11
Integration weight cutoff        WCut        ... 1.0000e-14
Angular grids for H and He will be reduced by one unit
Partially contracted basis set               ... on
Rotationally invariant grid construction     ... off

Total number of grid points                  ...     8700
Total number of batches                      ...      140
Average number of points per batch           ...       62
Average number of grid points per atom       ...     1243
UseSFitting                                  ... on

GRIDX 3
-------
General Integration Accuracy     IntAcc      ... 4.338
Radial Grid Type                 RadialGrid  ... OptM3 with GC (2021)
Angular Grid (max. ang.)         AngularGrid ... 3 (Lebedev-194)
Angular grid pruning method      GridPruning ... 4 (adaptive)
Weight generation scheme         WeightScheme... Becke
Basis function cutoff            BFCut       ... 1.0000e-11
Integration weight cutoff        WCut        ... 1.0000e-14
Angular grids for H and He will be reduced by one unit
Partially contracted basis set               ... on
Rotationally invariant grid construction     ... off

Total number of grid points                  ...    19234
Total number of batches                      ...      305
Average number of points per batch           ...       63
Average number of grid points per atom       ...     2748
UseSFitting                                  ... on

Time for X-Grid setup             =    0.072 sec

--------------
SCF ITERATIONS
--------------
ITER       Energy         Delta-E        Max-DP      RMS-DP      [F,P]     Damp
               ***  Starting incremental Fock matrix formation  ***
                      *** Initiating the SOSCF procedure ***
                      *** Re-Reading the Fockian *** 
                      *** Removing any level shift *** 
ITER      Energy       Delta-E        Grad      Rot      Max-DP    RMS-DP
  0   -153.66556720 -153.6655672039  0.000000  0.000000  0.000000  0.000000
               *** Restarting incremental Fock matrix formation ***
                 **** Energy Check signals convergence ****
              ***Rediagonalizing the Fockian in SOSCF/NRSCF***

               *****************************************************
               *                     SUCCESS                       *
               *           SCF CONVERGED AFTER   1 CYCLES          *
               *****************************************************

Old exchange energy                            =     -5.016100948 Eh
New exchange energy                            =     -5.016081869 Eh
Exchange energy change after final integration =      0.000019079 Eh
Total energy after final integration           =   -153.665548125 Eh
Final COS-X integration done in                =     0.250 sec

----------------
TOTAL SCF ENERGY
----------------

Total Energy       :         -153.66554813 Eh           -4181.45215 eV

Components:
Nuclear Repulsion  :           77.67652063 Eh            2113.68558 eV
Electronic Energy  :         -231.34206876 Eh           -6295.13773 eV
One Electron Energy:         -361.85098613 Eh           -9846.46592 eV
Two Electron Energy:          130.50891738 Eh            3551.32819 eV
Max COSX asymmetry :            0.00000347 Eh               0.00009 eV

Virial components:
Potential Energy   :         -306.91651562 Eh           -8351.62298 eV
Kinetic Energy     :          153.25096749 Eh            4170.17083 eV
Virial Ratio       :            2.00270524


DFT components:
N(Alpha)           :       12.000001806186 electrons
N(Beta)            :       12.000001806186 electrons
N(Total)           :       24.000003612372 electrons
E(X)               :      -15.009207096462 Eh       
E(C)               :       -0.796201507323 Eh       
E(XC)              :      -15.805408603785 Eh       
DFET-embed. en.    :        0.000000000000 Eh       

---------------
SCF CONVERGENCE
---------------

  Last Energy change         ...   -1.1113e-11  Tolerance :   1.0000e-08
  Last MAX-Density change    ...    1.3323e-15  Tolerance :   1.0000e-07
  Last RMS-Density change    ...    2.7436e-17  Tolerance :   5.0000e-09
  Last Orbital Gradient      ...    7.8489e-08  Tolerance :   1.0000e-05
  Last Orbital Rotation      ...    7.8063e-08  Tolerance :   1.0000e-05

             **** THE GBW FILE WAS UPDATED (ox_es1_A_orca0014.gbw) ****
             **** DENSITY ox_es1_A_orca0014.scfp WAS UPDATED ****
             **** ENERGY FILE WAS UPDATED (ox_es1_A_orca0014.en.tmp) ****
             **** THE GBW FILE WAS UPDATED (ox_es1_A_orca0014.gbw) ****
             **** DENSITY ox_es1_A_orca0014.scfp WAS UPDATED ****
----------------
ORBITAL ENERGIES
----------------

  NO   OCC          E(Eh)            E(eV) 
   0   2.0000     -19.223679      -523.1029 
   1   2.0000     -10.270738      -279.4810 
   2   2.0000     -10.266938      -279.3776 
   3   2.0000      -1.151910       -31.3451 
   4   2.0000      -0.701373       -19.0853 
   5   2.0000      -0.657006       -17.8780 
   6   2.0000      -0.545451       -14.8425 
   7   2.0000      -0.515038       -14.0149 
   8   2.0000      -0.428187       -11.6516 
   9   2.0000      -0.386465       -10.5162 
  10   2.0000      -0.337798        -9.1919 
  11   2.0000      -0.291303        -7.9268 
  12   0.0000       0.064371         1.7516 
  13   0.0000       0.083110         2.2615 
  14   0.0000       0.093089         2.5331 
  15   0.0000       0.097766         2.6603 
  16   0.0000       0.121334         3.3017 
  17   0.0000       0.156836         4.2677 
  18   0.0000       0.189072         5.1449 
  19   0.0000       0.223148         6.0722 
  20   0.0000       0.272677         7.4199 
  21   0.0000       0.278600         7.5811 
  22   0.0000       0.298597         8.1252 
  23   0.0000       0.365335         9.9413 
  24   0.0000       0.370316        10.0768 
  25   0.0000       0.401175        10.9165 
  26   0.0000       0.405670        11.0389 
  27   0.0000       0.443618        12.0715 
  28   0.0000       0.457653        12.4534 
  29   0.0000       0.481797        13.1104 
  30   0.0000       0.502202        13.6656 
  31   0.0000       0.522432        14.2161 
  32   0.0000       0.537321        14.6213 
  33   0.0000       0.707149        19.2425 
  34   0.0000       0.716935        19.5088 
  35   0.0000       0.727662        19.8007 
  36   0.0000       0.830046        22.5867 
  37   0.0000       0.871155        23.7053 
  38   0.0000       0.887473        24.1494 
  39   0.0000       0.960898        26.1474 
  40   0.0000       1.041805        28.3490 
  41   0.0000       1.051880        28.6231 
  42   0.0000       1.074351        29.2346 
  43   0.0000       1.090898        29.6849 
  44   0.0000       1.181495        32.1501 
  45   0.0000       1.365803        37.1654 
  46   0.0000       1.450520        39.4707 
  47   0.0000       1.511312        41.1249 
  48   0.0000       1.520133        41.3649 
  49   0.0000       1.531804        41.6825 
  50   0.0000       1.592781        43.3418 
  51   0.0000       1.619880        44.0792 
  52   0.0000       1.653117        44.9836 
  53   0.0000       1.684593        45.8401 
  54   0.0000       1.763622        47.9906 
  55   0.0000       1.794501        48.8309 
  56   0.0000       1.811593        49.2959 
  57   0.0000       1.929018        52.4913 
  58   0.0000       1.979377        53.8616 
  59   0.0000       2.004877        54.5555 
  60   0.0000       2.128301        57.9140 
  61   0.0000       2.173720        59.1499 
  62   0.0000       2.179414        59.3049 
  63   0.0000       2.282499        62.1100 
  64   0.0000       2.297551        62.5195 
  65   0.0000       2.413432        65.6728 
  66   0.0000       2.473148        67.2978 
  67   0.0000       2.509590        68.2894 
  68   0.0000       2.574305        70.0504 
  69   0.0000       2.595668        70.6317 
  70   0.0000       2.655394        72.2570 
  71   0.0000       2.689577        73.1871 
  72   0.0000       2.706807        73.6560 
  73   0.0000       2.737861        74.5010 
  74   0.0000       2.749831        74.8267 
  75   0.0000       2.840454        77.2927 
  76   0.0000       2.862117        77.8822 
  77   0.0000       2.960177        80.5505 
  78   0.0000       3.014878        82.0390 
  79   0.0000       3.039064        82.6971 
  80   0.0000       3.041312        82.7583 
  81   0.0000       3.103235        84.4433 
  82   0.0000       3.135621        85.3246 
  83   0.0000       3.297498        89.7295 
  84   0.0000       3.363170        91.5165 
  85   0.0000       3.389109        92.2223 
  86   0.0000       3.395696        92.4016 
  87   0.0000       3.453539        93.9756 
  88   0.0000       3.594620        97.8146 
  89   0.0000       3.657667        99.5302 
  90   0.0000       3.688254       100.3625 
  91   0.0000       3.748221       101.9943 
  92   0.0000       3.983228       108.3892 
  93   0.0000       4.043297       110.0237 
  94   0.0000       4.142938       112.7351 
  95   0.0000       4.175605       113.6240 
  96   0.0000       4.216100       114.7259 
  97   0.0000       4.333091       117.9094 
  98   0.0000       4.439754       120.8118 
  99   0.0000       4.593679       125.0004 
 100   0.0000       4.752201       129.3140 
 101   0.0000       4.853110       132.0598 
 102   0.0000       5.337545       145.2420 
 103   0.0000       5.508148       149.8843 
 104   0.0000       5.808559       158.0589 
 105   0.0000       5.819936       158.3685 
 106   0.0000       5.887980       160.2201 
 107   0.0000       6.017642       163.7484 
 108   0.0000       6.154493       167.4723 
 109   0.0000       6.624122       180.2515 
 110   0.0000       6.671367       181.5371 
 111   0.0000       6.826869       185.7685 
 112   0.0000       6.989448       190.1926 
 113   0.0000       7.179270       195.3579 
 114   0.0000      22.372039       608.7741 
 115   0.0000      22.683365       617.2457 
 116   0.0000      43.912100      1194.9090 

                    ********************************
                    * MULLIKEN POPULATION ANALYSIS *
                    ********************************

-----------------------
MULLIKEN ATOMIC CHARGES
-----------------------
   0 O :   -0.307262
   1 C :   -0.035308
   2 C :   -0.079649
   3 H :    0.099685
   4 H :    0.096256
   5 H :    0.113340
   6 H :    0.112938
Sum of atomic charges:   -0.0000000

--------------------------------
MULLIKEN REDUCED ORBITAL CHARGES
--------------------------------
  0 O s       :     3.842637  s :     3.842637
      pz      :     1.812861  p :     4.412611
      px      :     1.315727
      py      :     1.284023
      dz2     :     0.006133  d :     0.049350
      dxz     :     0.003346
      dyz     :     0.008172
      dx2y2   :     0.014531
      dxy     :     0.017169
      f0      :     0.000329  f :     0.002663
      f+1     :     0.000226
      f-1     :     0.000517
      f+2     :     0.000114
      f-2     :     0.000266
      f+3     :     0.000418
      f-3     :     0.000795
  1 C s       :     3.191172  s :     3.191172
      pz      :     1.024073  p :     2.707703
      px      :     0.907864
      py      :     0.775766
      dz2     :     0.004786  d :     0.123226
      dxz     :     0.027970
      dyz     :     0.033934
      dx2y2   :     0.032963
      dxy     :     0.023574
      f0      :     0.001812  f :     0.013207
      f+1     :     0.001357
      f-1     :     0.000763
      f+2     :     0.001289
      f-2     :     0.002170
      f+3     :     0.002278
      f-3     :     0.003538
  2 C s       :     3.212103  s :     3.212103
      pz      :     1.053455  p :     2.733080
      px      :     0.907169
      py      :     0.772456
      dz2     :     0.004943  d :     0.121460
      dxz     :     0.029527
      dyz     :     0.033360
      dx2y2   :     0.032382
      dxy     :     0.021248
      f0      :     0.001767  f :     0.013006
      f+1     :     0.001350
      f-1     :     0.000646
      f+2     :     0.001786
      f-2     :     0.001801
      f+3     :     0.002223
      f-3     :     0.003434
  3 H s       :     0.878493  s :     0.878493
      pz      :     0.010780  p :     0.021822
      px      :     0.006699
      py      :     0.004343
  4 H s       :     0.882500  s :     0.882500
      pz      :     0.010876  p :     0.021244
      px      :     0.006140
      py      :     0.004228
  5 H s       :     0.865437  s :     0.865437
      pz      :     0.010529  p :     0.021224
      px      :     0.006700
      py      :     0.003995
  6 H s       :     0.867800  s :     0.867800
      pz      :     0.009862  p :     0.019262
      px      :     0.006163
      py      :     0.003237


                     *******************************
                     * LOEWDIN POPULATION ANALYSIS *
                     *******************************

----------------------
LOEWDIN ATOMIC CHARGES
----------------------
   0 O :    0.202885
   1 C :   -0.351347
   2 C :   -0.330469
   3 H :    0.115193
   4 H :    0.119618
   5 H :    0.116424
   6 H :    0.127695

-------------------------------
LOEWDIN REDUCED ORBITAL CHARGES
-------------------------------
  0 O s       :     3.320888  s :     3.320888
      pz      :     1.674205  p :     4.355268
      px      :     1.289803
      py      :     1.391260
      dz2     :     0.012345  d :     0.112010
      dxz     :     0.010303
      dyz     :     0.019409
      dx2y2   :     0.041715
      dxy     :     0.028239
      f0      :     0.000898  f :     0.008949
      f+1     :     0.000302
      f-1     :     0.001063
      f+2     :     0.000221
      f-2     :     0.001268
      f+3     :     0.001447
      f-3     :     0.003750
  1 C s       :     2.787110  s :     2.787110
      pz      :     1.032303  p :     2.921817
      px      :     1.046159
      py      :     0.843354
      dz2     :     0.056646  d :     0.550061
      dxz     :     0.148194
      dyz     :     0.107330
      dx2y2   :     0.119905
      dxy     :     0.117987
      f0      :     0.013332  f :     0.092359
      f+1     :     0.006878
      f-1     :     0.006560
      f+2     :     0.008888
      f-2     :     0.010492
      f+3     :     0.017655
      f-3     :     0.028554
  2 C s       :     2.809472  s :     2.809472
      pz      :     1.033375  p :     2.912539
      px      :     1.041027
      py      :     0.838136
      dz2     :     0.052587  d :     0.521767
      dxz     :     0.155981
      dyz     :     0.091164
      dx2y2   :     0.117100
      dxy     :     0.104935
      f0      :     0.011779  f :     0.086691
      f+1     :     0.006361
      f-1     :     0.006330
      f+2     :     0.011585
      f-2     :     0.007671
      f+3     :     0.016109
      f-3     :     0.026855
  3 H s       :     0.821678  s :     0.821678
      pz      :     0.032338  p :     0.063130
      px      :     0.017782
      py      :     0.013010
  4 H s       :     0.819987  s :     0.819987
      pz      :     0.031757  p :     0.060394
      px      :     0.016232
      py      :     0.012404
  5 H s       :     0.822449  s :     0.822449
      pz      :     0.031610  p :     0.061127
      px      :     0.017816
      py      :     0.011701
  6 H s       :     0.819689  s :     0.819689
      pz      :     0.028177  p :     0.052616
      px      :     0.015398
      py      :     0.009041


                      *****************************
                      * MAYER POPULATION ANALYSIS *
                      *****************************

  NA   - Mulliken gross atomic population
  ZA   - Total nuclear charge
  QA   - Mulliken gross atomic charge
  VA   - Mayer's total valence
  BVA  - Mayer's bonded valence
  FA   - Mayer's free valence

  ATOM       NA         ZA         QA         VA         BVA        FA
  0 O      8.3073     8.0000    -0.3073     2.0156     2.0156    -0.0000
  1 C      6.0353     6.0000    -0.0353     4.0050     4.0050     0.0000
  2 C      6.0796     6.0000    -0.0796     3.9739     3.9739    -0.0000
  3 H      0.9003     1.0000     0.0997     0.9592     0.9592    -0.0000
  4 H      0.9037     1.0000     0.0963     0.9595     0.9595    -0.0000
  5 H      0.8867     1.0000     0.1133     0.9623     0.9623    -0.0000
  6 H      0.8871     1.0000     0.1129     0.9655     0.9655    -0.0000

  Mayer bond orders larger than 0.100000
B(  0-O ,  1-C ) :   1.0161 B(  0-O ,  2-C ) :   0.9717 B(  1-C ,  2-C ) :   1.0749 
B(  1-C ,  3-H ) :   0.9517 B(  1-C ,  4-H ) :   0.9474 B(  2-C ,  5-H ) :   0.9561 
B(  2-C ,  6-H ) :   0.9532 

-------
TIMINGS
-------

Total SCF time: 0 days 0 hours 0 min 0 sec 

Total time                  ....       0.968 sec
Sum of individual times     ....       0.883 sec  ( 91.2%)

Fock matrix formation       ....       0.679 sec  ( 70.1%)
  Split-RI-J                ....       0.113 sec  ( 16.6% of F)
  Chain of spheres X        ....       0.503 sec  ( 74.1% of F)
  XC integration            ....       0.061 sec  (  9.0% of F)
    Basis function eval.    ....       0.017 sec  ( 28.5% of XC)
    Density eval.           ....       0.013 sec  ( 21.8% of XC)
    XC-Functional eval.     ....       0.004 sec  (  5.9% of XC)
    XC-Potential eval.      ....       0.019 sec  ( 31.0% of XC)
Diagonalization             ....       0.002 sec  (  0.2%)
Density matrix formation    ....       0.000 sec  (  0.0%)
Population analysis         ....       0.002 sec  (  0.3%)
Initial guess               ....       0.005 sec  (  0.5%)
Orbital Transformation      ....       0.000 sec  (  0.0%)
Orbital Orthonormalization  ....       0.001 sec  (  0.1%)
DIIS solution               ....       0.001 sec  (  0.1%)
SOSCF solution              ....       0.002 sec  (  0.2%)
Grid generation             ....       0.191 sec  ( 19.7%)

Maximum memory used throughout the entire SCF-calculation: 61.1 MB


           ************************************************************
           *        Program running with 8 parallel MPI-processes     *
           *              working on a common directory               *
           ************************************************************
------------------------------------------------------------------------------
                        ORCA TD-DFT/TDA CALCULATION
------------------------------------------------------------------------------

Input orbitals are from        ... ox_es1_A_orca0014.gbw
CI-vector output               ... ox_es1_A_orca0014.cis
Tamm-Dancoff approximation     ... operative
CIS-Integral strategy          ... AO-integrals
Integral handling              ... AO integral Direct
Max. core memory used          ... 3000 MB
Reference state                ... RHF
Generation of triplets         ... off
Follow IRoot                   ... off
Number of operators            ... 1
Orbital ranges used for CIS calculation:
 Operator 0:  Orbitals   3... 11  to  12...116
XAS localization array:
 Operator 0:  Orbitals  -1... -1

-------------------
XC-INTEGRATION GRID
-------------------

General Integration Accuracy     IntAcc      ... 3.467
Radial Grid Type                 RadialGrid  ... OptM3 with GC (2021)
Angular Grid (max. ang.)         AngularGrid ... 1 (Lebedev-50)
Angular grid pruning method      GridPruning ... 4 (adaptive)
Weight generation scheme         WeightScheme... Becke
Basis function cutoff            BFCut       ... 1.0000e-11
Integration weight cutoff        WCut        ... 1.0000e-14
Angular grids for H and He will be reduced by one unit
Partially contracted basis set               ... off
Rotationally invariant grid construction     ... off

Total number of grid points                  ...     4534
Total number of batches                      ...       75
Average number of points per batch           ...       60
Average number of grid points per atom       ...      648

---------------------
COSX-INTEGRATION GRID
---------------------

General Integration Accuracy     IntAcc      ... 3.067
Radial Grid Type                 RadialGrid  ... OptM3 with GC (2021)
Angular Grid (max. ang.)         AngularGrid ... 1 (Lebedev-50)
Angular grid pruning method      GridPruning ... 4 (adaptive)
Weight generation scheme         WeightScheme... Becke
Basis function cutoff            BFCut       ... 1.0000e-11
Integration weight cutoff        WCut        ... 1.0000e-14
Angular grids for H and He will be reduced by one unit
Partially contracted basis set               ... on
Rotationally invariant grid construction     ... off

Total number of grid points                  ...     2085
Total number of batches                      ...       37
Average number of points per batch           ...       56
Average number of grid points per atom       ...      298

---------------
TD-DFT XC SETUP
---------------

DFT calculation                         ... on
Name of the grid file                   ... ox_es1_A_orca0014.grid_cis.tmp
Exchange functional (TD-DFT)            ... PBE
   PBE kappa parameter  XKappa (TD-DFT) ...  0.804000
   PBE mue parameter   XMuePBE (TD-DFT) ...  0.219520
Correlation functional (TD-DFT)         ... PBE
   PBE beta parameter CBetaPBE (TD-DFT) ...  0.066725
 LDA part of GGA corr.  LDAOpt (TD-DFT) ... PW91-LDA
Hybrid DFT                              ... on
   Exchange mixing (TD-DFT)             ...  0.250
   GGA exch. scaling (TD-DFT)           ...  0.750
   GGA corr. scaling (TD-DFT)           ...  1.000

Building densities             ... done
Calculating rho(r) on the grid ... done
Building xc-kernel on the grid ... done
                    *** TD-DFT CALCULATION INITIALIZED ***

------------------------
DAVIDSON-DIAGONALIZATION
------------------------

Dimension of the eigenvalue problem            ...    945
Number of roots to be determined               ...      1
Maximum size of the expansion space            ...     10
Maximum number of iterations                   ...    100
Convergence tolerance for the residual         ...    2.500e-07
Convergence tolerance for the energies         ...    2.500e-07
Orthogonality tolerance                        ...    1.000e-14
Level Shift                                    ...    0.000e+00
Constructing the preconditioner                ... o.k.
Building the initial guess                     ... o.k.
Number of trial vectors determined             ...     10


                       ****Iteration    0****

   Memory handling for direct AO based CIS:
   Memory per vector needed      ...     1 MB
   Memory needed                 ...     1 MB
   Memory available              ...  3000 MB
   Number of vectors per batch   ...  3000
   Number of batches             ...     1
   Time for densities:            0.000
   Time for RI-J (Direct):        0.016
   Time for K (COSX):             0.054
   Time for XC-Integration:       0.016
   Time for Sigma-Completion:     0.000
   Size of expansion space: 3
   Lowest Energy          :     0.305287404118
   Maximum Energy change  :     0.305287404118 (vector 0)
   Maximum residual norm  :     0.001028317948

                       ****Iteration    1****
   Time for densities:            0.000
   Time for RI-J (Direct):        0.012
   Time for K (COSX):             0.048
   Time for XC-Integration:       0.007
   Time for Sigma-Completion:     0.000
   Size of expansion space: 4
   Lowest Energy          :     0.303793632152
   Maximum Energy change  :     0.001493771966 (vector 0)
   Maximum residual norm  :     0.000147236446

                       ****Iteration    2****
   Time for densities:            0.000
   Time for RI-J (Direct):        0.012
   Time for K (COSX):             0.048
   Time for XC-Integration:       0.007
   Time for Sigma-Completion:     0.000
   Size of expansion space: 5
   Lowest Energy          :     0.303591580540
   Maximum Energy change  :     0.000202051612 (vector 0)
   Maximum residual norm  :     0.000030968061

                       ****Iteration    3****
   Time for densities:            0.000
   Time for RI-J (Direct):        0.012
   Time for K (COSX):             0.048
   Time for XC-Integration:       0.007
   Time for Sigma-Completion:     0.000
   Size of expansion space: 6
   Lowest Energy          :     0.303517339438
   Maximum Energy change  :     0.000074241102 (vector 0)
   Maximum residual norm  :     0.000015704504

                       ****Iteration    4****
   Time for densities:            0.000
   Time for RI-J (Direct):        0.012
   Time for K (COSX):             0.048
   Time for XC-Integration:       0.007
   Time for Sigma-Completion:     0.000
   Size of expansion space: 7
   Lowest Energy          :     0.303485089224
   Maximum Energy change  :     0.000032250214 (vector 0)
   Maximum residual norm  :     0.000005282157

                       ****Iteration    5****
   Time for densities:            0.000
   Time for RI-J (Direct):        0.012
   Time for K (COSX):             0.048
   Time for XC-Integration:       0.007
   Time for Sigma-Completion:     0.000
   Size of expansion space: 8
   Lowest Energy          :     0.303477077009
   Maximum Energy change  :     0.000008012215 (vector 0)
   Maximum residual norm  :     0.000000619559

                       ****Iteration    6****
   Time for densities:            0.000
   Time for RI-J (Direct):        0.012
   Time for K (COSX):             0.048
   Time for XC-Integration:       0.007
   Time for Sigma-Completion:     0.000
   Size of expansion space: 9
   Lowest Energy          :     0.303476106703
   Maximum Energy change  :     0.000000970306 (vector 0)
   Maximum residual norm  :     0.000000105293

      *** CONVERGENCE OF RESIDUAL NORM REACHED ***

Storing the converged CI vectors               ... ox_es1_A_orca0014.cis1

                 *** DAVIDSON DONE ***

Total time for solving the CIS problem:     0.497sec

------------------------------------
TD-DFT/TDA EXCITED STATES (SINGLETS)
------------------------------------

the weight of the individual excitations are printed if larger than 1.0e-02

STATE  1:  E=   0.303476 au      8.258 eV    66605.3 cm**-1 <S**2> =   0.000000
    11a ->  12a  :     0.857496 (c= -0.92601106)
    11a ->  13a  :     0.097598 (c=  0.31240605)
    11a ->  14a  :     0.030714 (c= -0.17525300)


-----------------------------
TD-DFT/TDA-EXCITATION SPECTRA
-----------------------------

Center of mass = (  0.0042, -0.0672,  0.0730)
Calculating the Dipole integrals                  ... done
Transforming integrals                            ... done
Calculating the Linear Momentum integrals         ... done
Transforming integrals                            ... done
Calculating angular momentum integrals            ... done
Transforming integrals                            ... done

-----------------------------------------------------------------------------
         ABSORPTION SPECTRUM VIA TRANSITION ELECTRIC DIPOLE MOMENTS
-----------------------------------------------------------------------------
State   Energy    Wavelength  fosc         T2        TX        TY        TZ  
        (cm-1)      (nm)                 (au**2)    (au)      (au)      (au) 
-----------------------------------------------------------------------------
   1   66605.3    150.1   0.069019191   0.34114  -0.02564   0.00316  -0.58350

-----------------------------------------------------------------------------
         ABSORPTION SPECTRUM VIA TRANSITION VELOCITY DIPOLE MOMENTS
-----------------------------------------------------------------------------
State   Energy    Wavelength   fosc        P2         PX        PY        PZ  
        (cm-1)      (nm)                 (au**2)     (au)      (au)      (au) 
-----------------------------------------------------------------------------
   1   66605.3    150.1   0.030733285   0.01399   0.00861  -0.00180   0.11795

-------------------------------------------------------------------
                             CD SPECTRUM
-------------------------------------------------------------------
State  Energy     Wavelength     R         MX        MY        MZ   
       (cm-1)       (nm)     (1e40*cgs)   (au)      (au)      (au)  
-------------------------------------------------------------------
   1   66605.3    150.1     -8.74597   0.41273  -0.01897   0.01355

-------------------------------------------------------------------
         CD SPECTRUM VIA TRANSITION VELOCITY DIPOLE MOMENTS        
-------------------------------------------------------------------
State  Energy     Wavelength     R         MX        MY        MZ   
       (cm-1)       (nm)     (1e40*cgs)   (au)      (au)      (au)  
-------------------------------------------------------------------
   1   66605.3    150.1      8.05737   0.41273  -0.01897   0.01355

Total run time:        0.758 sec

           *** ORCA-CIS/TD-DFT FINISHED WITHOUT ERROR ***

Maximum memory used throughout the entire CIS-calculation: 49.4 MB

-----------------------
CIS/TD-DFT TOTAL ENERGY
-----------------------

    E(SCF)  =   -153.665548125 Eh
    DE(CIS) =      0.303476107 Eh (Root  1)
    ----------------------------- ---------
    E(tot)  =   -153.362072018 Eh



-------------------------------------------------------------------------------
                          DFT DISPERSION CORRECTION                            
                                                                               
                              DFTD3 V3.1  Rev 1                                
                          USING Becke-Johnson damping                          
-------------------------------------------------------------------------------
The PBE0 functional is recognized
Active option DFTDOPT                   ...         4   

molecular C6(AA) [au] = 350.739111 


            DFT-D V3
 parameters
 s6 scaling factor         :     1.0000 
 a1 scaling factor         :     0.4145 
 s8 scaling factor         :     1.2177 
 a2 scaling factor         :     4.8593 
 ad hoc parameters k1-k3   :    16.0000     1.3333    -4.0000 

 Edisp/kcal,au: -1.514991220175  -0.002414291929 
 E6   /kcal   :  -0.993940551 
 E8   /kcal   :  -0.521050670 
 % E8         :  34.392982792 

-------------------------   ----------------
Dispersion correction           -0.002414292
-------------------------   ----------------


-------------------------   --------------------
FINAL SINGLE POINT ENERGY      -153.364486310312
-------------------------   --------------------



           ************************************************************
           *        Program running with 8 parallel MPI-processes     *
           *              working on a common directory               *
           ************************************************************
------------------------------------------------------------------------------
                         ORCA SCF GRADIENT CALCULATION
------------------------------------------------------------------------------


------------------------
TD-DFT GRADIENT XC SETUP
------------------------

Building densities                     ... done
Calculating rho(r) on the grid         ... done
Building xc-kernel on the grid         ... done
Building xc 3rd derivative on the grid      ... done
                *** TD-DFT GRADIENT CALCULATION INITIALIZED ***

-------------------
TD-DFT/TDA GRADIENT
-------------------

Reference wavefunction             ... RHF
State of interest                  ... 1
Basis dimension                    ... 117
DFT-XC contribution needed         ... YES
RI-approximation                   ... ON
CIS-vectors being read from        ... ox_es1_A_orca0014.cis

 => Number of Vectors found: 1
 => Orbital Window: 3...11 -> 12...116

Reading the CIS file                     ... done
Norm of the CI vector                    ... 1.000000000
Making the CIS (pseudo)densities         ... done
Making operators G(D) and Q(T)           ... done
Transforming the Fock operators          ... done
Making the frozen-core relaxed density   ... done
Constructing the G(H) operator           ... done
Transforming the G(H) operator           ... done
Calculating the CIS Lagrangian           ... done
Solving the Z-vector equations           ... done
Finalizing the relaxed density           ... done
Storing the relaxed density              ... done
Constructing the G(Z) operator           ... done
Transforming the G(Z) operator           ... done
Making the W-matrix                      ... done
Finalizing the W-matrix                  ... done
Transforming the W-matrix                ... done
Nuclear repulsion gradient               ... done
One-Electron gradient                    ... done
Dispersion correction                    ... done
Prescreening matrices                    ... done
COSX-gradient                            ... done
Coulomb gradient (RI)                    ... done
Exchange-Correlation gradient            ... done

                 ---------------------------
                 EXCITED STATE GRADIENT DONE
                 ---------------------------

------------------
CARTESIAN GRADIENT
------------------

   1   O   :   -0.009423020   -0.062359543   -0.001053962
   2   C   :    0.049275606    0.057109934    0.010227966
   3   C   :   -0.060785997    0.044678395   -0.016336479
   4   H   :    0.011519322   -0.008672534   -0.027593890
   5   H   :    0.003578510   -0.011410642    0.016330268
   6   H   :   -0.003550577   -0.007245769    0.024757441
   7   H   :    0.009348942   -0.012138398   -0.006330021

Difference to translation invariance:
           :   -0.0000372132   -0.0000385571    0.0000013228

Difference to rotation invariance:
           :   -0.0001194795   -0.0001082916    0.0000495076

Norm of the cartesian gradient     ...    0.1343975544
RMS gradient                       ...    0.0293279508
MAX gradient                       ...    0.0623595429

------------------------------------------------------------------------------
                  RELAXED CIS/TDA DENSITY POPULATION ANALYSIS
                                   IROOT 1
------------------------------------------------------------------------------
------------------------------------------------------------------------------
                           ORCA POPULATION ANALYSIS
------------------------------------------------------------------------------
Input electron density              ... ox_es1_A_orca0014.cisp
BaseName (.gbw .S,...)              ... ox_es1_A_orca0014

                    ********************************
                    * MULLIKEN POPULATION ANALYSIS *
                    ********************************

-----------------------
MULLIKEN ATOMIC CHARGES
-----------------------
   0 O :    0.124796
   1 C :    0.077435
   2 C :    0.424797
   3 H :   -0.064245
   4 H :   -0.036083
   5 H :   -0.213215
   6 H :   -0.313484
Sum of atomic charges:   -0.0000000

--------------------------------
MULLIKEN REDUCED ORBITAL CHARGES
--------------------------------
  0 O s       :     3.813620  s :     3.813620
      pz      :     1.156281  p :     4.005646
      px      :     1.467921
      py      :     1.381444
      dz2     :     0.007455  d :     0.053505
      dxz     :     0.004201
      dyz     :     0.009479
      dx2y2   :     0.016105
      dxy     :     0.016264
      f0      :     0.000230  f :     0.002434
      f+1     :     0.000076
      f-1     :     0.000349
      f+2     :     0.000129
      f-2     :     0.000315
      f+3     :     0.000420
      f-3     :     0.000916
  1 C s       :     3.023284  s :     3.023284
      pz      :     1.078728  p :     2.787163
      px      :     1.027355
      py      :     0.681079
      dz2     :     0.011547  d :     0.100206
      dxz     :     0.022611
      dyz     :     0.010830
      dx2y2   :     0.030516
      dxy     :     0.024701
      f0      :     0.001319  f :     0.011913
      f+1     :     0.001324
      f-1     :     0.000841
      f+2     :     0.000939
      f-2     :     0.001554
      f+3     :     0.002526
      f-3     :     0.003409
  2 C s       :     2.786533  s :     2.786533
      pz      :     1.087606  p :     2.671313
      px      :     0.869132
      py      :     0.714575
      dz2     :     0.025343  d :     0.105745
      dxz     :     0.022875
      dyz     :     0.009261
      dx2y2   :     0.030276
      dxy     :     0.017991
      f0      :     0.001258  f :     0.011612
      f+1     :     0.001435
      f-1     :     0.000746
      f+2     :     0.001209
      f-2     :     0.001222
      f+3     :     0.002456
      f-3     :     0.003286
  3 H s       :     1.036857  s :     1.036857
      pz      :     0.016914  p :     0.027388
      px      :     0.006751
      py      :     0.003722
  4 H s       :     1.009655  s :     1.009655
      pz      :     0.016322  p :     0.026428
      px      :     0.006303
      py      :     0.003803
  5 H s       :     1.183849  s :     1.183849
      pz      :     0.018885  p :     0.029366
      px      :     0.007335
      py      :     0.003145
  6 H s       :     1.284599  s :     1.284599
      pz      :     0.018973  p :     0.028885
      px      :     0.007510
      py      :     0.002401


                     *******************************
                     * LOEWDIN POPULATION ANALYSIS *
                     *******************************

----------------------
LOEWDIN ATOMIC CHARGES
----------------------
   0 O :    0.552968
   1 C :   -0.331766
   2 C :   -0.340709
   3 H :    0.060439
   4 H :    0.078343
   5 H :    0.009251
   6 H :   -0.028526

-------------------------------
LOEWDIN REDUCED ORBITAL CHARGES
-------------------------------
  0 O s       :     3.357138  s :     3.357138
      pz      :     1.085310  p :     3.963668
      px      :     1.405673
      py      :     1.472685
      dz2     :     0.013434  d :     0.117330
      dxz     :     0.012323
      dyz     :     0.019920
      dx2y2   :     0.046741
      dxy     :     0.024912
      f0      :     0.000932  f :     0.008896
      f+1     :     0.000150
      f-1     :     0.000827
      f+2     :     0.000229
      f-2     :     0.001458
      f+3     :     0.001186
      f-3     :     0.004115
  1 C s       :     2.818281  s :     2.818281
      pz      :     1.028627  p :     2.897585
      px      :     1.099654
      py      :     0.769305
      dz2     :     0.113225  d :     0.527178
      dxz     :     0.129516
      dyz     :     0.043804
      dx2y2   :     0.122726
      dxy     :     0.117907
      f0      :     0.010241  f :     0.088722
      f+1     :     0.006925
      f-1     :     0.007413
      f+2     :     0.006682
      f-2     :     0.008011
      f+3     :     0.019839
      f-3     :     0.029611
  2 C s       :     2.881776  s :     2.881776
      pz      :     1.024815  p :     2.867473
      px      :     1.058014
      py      :     0.784644
      dz2     :     0.111950  d :     0.508144
      dxz     :     0.130341
      dyz     :     0.036130
      dx2y2   :     0.129219
      dxy     :     0.100504
      f0      :     0.009092  f :     0.083317
      f+1     :     0.006981
      f-1     :     0.007271
      f+2     :     0.007645
      f-2     :     0.005615
      f+3     :     0.019173
      f-3     :     0.027540
  3 H s       :     0.858295  s :     0.858295
      pz      :     0.051098  p :     0.081266
      px      :     0.018511
      py      :     0.011658
  4 H s       :     0.843618  s :     0.843618
      pz      :     0.049342  p :     0.078039
      px      :     0.017041
      py      :     0.011656
  5 H s       :     0.902085  s :     0.902085
      pz      :     0.059361  p :     0.088665
      px      :     0.019835
      py      :     0.009468
  6 H s       :     0.941061  s :     0.941061
      pz      :     0.060362  p :     0.087465
      px      :     0.020229
      py      :     0.006873


                      *****************************
                      * MAYER POPULATION ANALYSIS *
                      *****************************

  NA   - Mulliken gross atomic population
  ZA   - Total nuclear charge
  QA   - Mulliken gross atomic charge
  VA   - Mayer's total valence
  BVA  - Mayer's bonded valence
  FA   - Mayer's free valence

  ATOM       NA         ZA         QA         VA         BVA        FA
  0 O      7.8752     8.0000     0.1248     2.3219     1.6719     0.6501
  1 C      5.9226     6.0000     0.0774     3.3512     3.3738    -0.0226
  2 C      5.5752     6.0000     0.4248     2.2514     2.5710    -0.3196
  3 H      1.0642     1.0000    -0.0642     1.2995     1.0234     0.2761
  4 H      1.0361     1.0000    -0.0361     1.2792     1.0212     0.2580
  5 H      1.2132     1.0000    -0.2132     1.4455     1.0050     0.4406
  6 H      1.3135     1.0000    -0.3135     1.4502     0.8967     0.5535

  Mayer bond orders larger than 0.100000
B(  0-O ,  1-C ) :   0.8733 B(  0-O ,  2-C ) :   0.8978 B(  1-C ,  2-C ) :   1.0018 
B(  1-C ,  3-H ) :   0.7709 B(  1-C ,  4-H ) :   0.7710 B(  2-C ,  3-H ) :  -0.1110 
B(  2-C ,  4-H ) :  -0.1037 B(  2-C ,  5-H ) :   0.5258 B(  2-C ,  6-H ) :   0.3603 
B(  3-H ,  5-H ) :   0.1391 B(  3-H ,  6-H ) :   0.1513 B(  4-H ,  5-H ) :   0.1144 
B(  4-H ,  6-H ) :   0.1654 B(  5-H ,  6-H ) :   0.2793 


-------
TIMINGS
-------

Total TD-DFT gradient time         ...        5.010 sec

Fock matrix formation       ....       0.826 sec  ( 16.5%)
  Coulomb formation         ....       0.668 sec  ( 80.8% of F)
  RI-J                      ....       0.291 sec  ( 35.3% of F)
  Chain of spheres X        ....       0.376 sec  ( 45.5% of F)
  XC integration            ....       0.159 sec  ( 19.2% of F)
Z-vector equation           ....       1.376 sec  ( 27.5%)
One electron gradient       ....       0.032 sec  (  0.6%)
Prescreening matrices       ....       0.153 sec  (  3.1%)
RI-J Coulomb gradient       ....       0.257 sec  (  5.1%)
COSX gradient               ....       0.336 sec  (  6.7%)
XC gradient                 ....       1.712 sec  ( 34.2%)

Maximum memory used throughout the entire SCFGRAD-calculation: 130.3 MB

                            ***************************************
                            *     ORCA property calculations      *
                            ***************************************

                                    ---------------------
                                    Active property flags
                                    ---------------------
   (+) Dipole Moment


------------------------------------------------------------------------------
                       ORCA ELECTRIC PROPERTIES CALCULATION
------------------------------------------------------------------------------

Dipole Moment Calculation                       ... on
Quadrupole Moment Calculation                   ... off
Polarizability Calculation                      ... off
GBWName                                         ... ox_es1_A_orca0014.gbw
Electron density                                ... ox_es1_A_orca0014.scfp
The origin for moment calculation is the CENTER OF MASS  = ( 0.004241, -0.067183  0.072976)

-------------
DIPOLE MOMENT
-------------
                                X             Y             Z
Electronic contribution:     -0.11454       1.70753      -0.01556
Nuclear contribution   :      0.10961      -2.36383      -0.00088
                        -----------------------------------------
Total Dipole Moment    :     -0.00493      -0.65631      -0.01644
                        -----------------------------------------
Magnitude (a.u.)       :      0.65653
Magnitude (Debye)      :      1.66877



--------------------
Rotational spectrum 
--------------------
 
Rotational constants in cm-1:     0.916308     0.784392     0.509155 
Rotational constants in MHz : 27470.237198 23515.486095 15264.080445 

 Dipole components along the rotational axes: 
x,y,z [a.u.] :     0.044296    -0.655014    -0.005335 
x,y,z [Debye]:     0.112591    -1.664913    -0.013560 

 

                        *** CIS RELAXED DENSITY ***

------------------------------------------------------------------------------
                       ORCA ELECTRIC PROPERTIES CALCULATION
------------------------------------------------------------------------------

Dipole Moment Calculation                       ... on
Quadrupole Moment Calculation                   ... off
Polarizability Calculation                      ... off
GBWName                                         ... ox_es1_A_orca0014.gbw
Electron density                                ... ox_es1_A_orca0014.cisp
The origin for moment calculation is the CENTER OF MASS  = ( 0.004241, -0.067183  0.072976)

-------------
DIPOLE MOMENT
-------------
                                X             Y             Z
Electronic contribution:     -0.75048       2.41410      -0.23801
Nuclear contribution   :      0.10961      -2.36383      -0.00088
                        -----------------------------------------
Total Dipole Moment    :     -0.64087       0.05027      -0.23889
                        -----------------------------------------
Magnitude (a.u.)       :      0.68579
Magnitude (Debye)      :      1.74315



--------------------
Rotational spectrum 
--------------------
 
Rotational constants in cm-1:     0.916308     0.784392     0.509155 
Rotational constants in MHz : 27470.237198 23515.486095 15264.080445 

 Dipole components along the rotational axes: 
x,y,z [a.u.] :    -0.645468    -0.002217    -0.231686 
x,y,z [Debye]:    -1.640650    -0.005636    -0.588899 

 

Timings for individual modules:

Sum of individual times         ...        8.133 sec (=   0.136 min)
GTO integral calculation        ...        0.381 sec (=   0.006 min)   4.7 %
SCF iterations                  ...        1.566 sec (=   0.026 min)  19.3 %
CIS module                      ...        0.986 sec (=   0.016 min)  12.1 %
SCF Gradient evaluation         ...        5.200 sec (=   0.087 min)  63.9 %
                             ****ORCA TERMINATED NORMALLY****
TOTAL RUN TIME: 0 days 0 hours 0 minutes 8 seconds 487 msec
