
                                 *****************
                                 * O   R   C   A *
                                 *****************

                                            #,                                       
                                            ###                                      
                                            ####                                     
                                            #####                                    
                                            ######                                   
                                           ########,                                 
                                     ,,################,,,,,                         
                               ,,#################################,,                 
                          ,,##########################################,,             
                       ,#########################################, ''#####,          
                    ,#############################################,,   '####,        
                  ,##################################################,,,,####,       
                ,###########''''           ''''###############################       
              ,#####''   ,,,,##########,,,,          '''####'''          '####       
            ,##' ,,,,###########################,,,                        '##       
           ' ,,###''''                  '''############,,,                           
         ,,##''                                '''############,,,,        ,,,,,,###''
      ,#''                                            '''#######################'''  
     '                                                          ''''####''''         
             ,#######,   #######,   ,#######,      ##                                
            ,#'     '#,  ##    ##  ,#'     '#,    #''#        ######   ,####,        
            ##       ##  ##   ,#'  ##            #'  '#       #        #'  '#        
            ##       ##  #######   ##           ,######,      #####,   #    #        
            '#,     ,#'  ##    ##  '#,     ,#' ,#      #,         ##   #,  ,#        
             '#######'   ##     ##  '#######'  #'      '#     #####' # '####'        



                  #######################################################
                  #                        -***-                        #
                  #          Department of theory and spectroscopy      #
                  #    Directorship and core code : Frank Neese         #
                  #        Max Planck Institute fuer Kohlenforschung    #
                  #                Kaiser Wilhelm Platz 1               #
                  #                 D-45470 Muelheim/Ruhr               #
                  #                      Germany                        #
                  #                                                     #
                  #                  All rights reserved                #
                  #                        -***-                        #
                  #######################################################


                         Program Version 5.0.2 -  RELEASE  -


 With contributions from (in alphabetic order):
   Daniel Aravena         : Magnetic Suceptibility
   Michael Atanasov       : Ab Initio Ligand Field Theory (pilot matlab implementation)
   Alexander A. Auer      : GIAO ZORA, VPT2 properties, NMR spectrum
   Ute Becker             : Parallelization
   Giovanni Bistoni       : ED, misc. LED, open-shell LED, HFLD
   Martin Brehm           : Molecular dynamics
   Dmytro Bykov           : SCF Hessian
   Vijay G. Chilkuri      : MRCI spin determinant printing, contributions to CSF-ICE
   Dipayan Datta          : RHF DLPNO-CCSD density
   Achintya Kumar Dutta   : EOM-CC, STEOM-CC
   Dmitry Ganyushin       : Spin-Orbit,Spin-Spin,Magnetic field MRCI
   Miquel Garcia          : C-PCM and meta-GGA Hessian, CC/C-PCM, Gaussian charge scheme
   Yang Guo               : DLPNO-NEVPT2, F12-NEVPT2, CIM, IAO-localization
   Andreas Hansen         : Spin unrestricted coupled pair/coupled cluster methods
   Benjamin Helmich-Paris : MC-RPA, TRAH-SCF, COSX integrals
   Lee Huntington         : MR-EOM, pCC
   Robert Izsak           : Overlap fitted RIJCOSX, COSX-SCS-MP3, EOM
   Marcus Kettner         : VPT2
   Christian Kollmar      : KDIIS, OOCD, Brueckner-CCSD(T), CCSD density, CASPT2, CASPT2-K
   Simone Kossmann        : Meta GGA functionals, TD-DFT gradient, OOMP2, MP2 Hessian
   Martin Krupicka        : Initial AUTO-CI
   Lucas Lang             : DCDCAS
   Marvin Lechner         : AUTO-CI (C++ implementation), FIC-MRCC
   Dagmar Lenk            : GEPOL surface, SMD
   Dimitrios Liakos       : Extrapolation schemes; Compound Job, initial MDCI parallelization
   Dimitrios Manganas     : Further ROCIS development; embedding schemes
   Dimitrios Pantazis     : SARC Basis sets
   Anastasios Papadopoulos: AUTO-CI, single reference methods and gradients
   Taras Petrenko         : DFT Hessian,TD-DFT gradient, ASA, ECA, R-Raman, ABS, FL, XAS/XES, NRVS
   Peter Pinski           : DLPNO-MP2, DLPNO-MP2 Gradient
   Christoph Reimann      : Effective Core Potentials
   Marius Retegan         : Local ZFS, SOC
   Christoph Riplinger    : Optimizer, TS searches, QM/MM, DLPNO-CCSD(T), (RO)-DLPNO pert. Triples
   Tobias Risthaus        : Range-separated hybrids, TD-DFT gradient, RPA, STAB
   Michael Roemelt        : Original ROCIS implementation
   Masaaki Saitow         : Open-shell DLPNO-CCSD energy and density
   Barbara Sandhoefer     : DKH picture change effects
   Avijit Sen             : IP-ROCIS
   Kantharuban Sivalingam : CASSCF convergence, NEVPT2, FIC-MRCI
   Bernardo de Souza      : ESD, SOC TD-DFT
   Georgi Stoychev        : AutoAux, RI-MP2 NMR, DLPNO-MP2 response
   Willem Van den Heuvel  : Paramagnetic NMR
   Boris Wezisla          : Elementary symmetry handling
   Frank Wennmohs         : Technical directorship


 We gratefully acknowledge several colleagues who have allowed us to
 interface, adapt or use parts of their codes:
   Stefan Grimme, W. Hujo, H. Kruse, P. Pracht,  : VdW corrections, initial TS optimization,
                  C. Bannwarth, S. Ehlert          DFT functionals, gCP, sTDA/sTD-DF
   Ed Valeev, F. Pavosevic, A. Kumar             : LibInt (2-el integral package), F12 methods
   Garnet Chan, S. Sharma, J. Yang, R. Olivares  : DMRG
   Ulf Ekstrom                                   : XCFun DFT Library
   Mihaly Kallay                                 : mrcc  (arbitrary order and MRCC methods)
   Jiri Pittner, Ondrej Demel                    : Mk-CCSD
   Frank Weinhold                                : gennbo (NPA and NBO analysis)
   Christopher J. Cramer and Donald G. Truhlar   : smd solvation model
   Lars Goerigk                                  : TD-DFT with DH, B97 family of functionals
   V. Asgeirsson, H. Jonsson                     : NEB implementation
   FAccTs GmbH                                   : IRC, NEB, NEB-TS, DLPNO-Multilevel, CI-OPT
                                                   MM, QMMM, 2- and 3-layer-ONIOM, Crystal-QMMM,
                                                   LR-CPCM, SF, NACMEs, symmetry and pop. for TD-DFT,
                                                   nearIR, NL-DFT gradient (VV10), updates on ESD,
                                                   ML-optimized integration grids
   S Lehtola, MJT Oliveira, MAL Marques          : LibXC Library
   Liviu Ungur et al                             : ANISO software


 Your calculation uses the libint2 library for the computation of 2-el integrals
 For citations please refer to: http://libint.valeyev.net

 Your ORCA version has been built with support for libXC version: 5.1.0
 For citations please refer to: https://tddft.org/programs/libxc/

 This ORCA versions uses:
   CBLAS   interface :  Fast vector & matrix operations
   LAPACKE interface :  Fast linear algebra routines
   SCALAPACK package :  Parallel linear algebra routines
   Shared memory     :  Shared parallel matrices
   BLAS/LAPACK       :  OpenBLAS 0.3.15  USE64BITINT DYNAMIC_ARCH NO_AFFINITY SkylakeX SINGLE_THREADED
        Core in use  :  SkylakeX
   Copyright (c) 2011-2014, The OpenBLAS Project


Your calculation utilizes the atom-pairwise dispersion correction
with the Becke-Johnson damping scheme (D3BJ)
Cite in your paper:
S.Grimme, S.Ehrlich, L.Goerigk, J Comput Chem, (2011), 32, 1456–1465 
S.Grimme, J.Antony, S.Ehrlich and H.Krieg, J.Chem.Phys., 132, (2010), 154104 
   

================================================================================

----- Orbital basis set information -----
Your calculation utilizes the basis: def2-TZVP
   F. Weigend and R. Ahlrichs, Phys. Chem. Chem. Phys. 7, 3297 (2005).

----- AuxJ basis set information -----
Your calculation utilizes the auxiliary basis: def2/J
   F. Weigend, Phys. Chem. Chem. Phys. 8, 1057 (2006).

================================================================================
                                        WARNINGS
                       Please study these warnings very carefully!
================================================================================

INFO   : Checking CIS options ...

WARNING: CIS/ROCIS methods need fully converged wavefunctions
  ===> : Setting SCFConvForced true
         You can overwrite this default with %scf ConvForced false 


INFO   : the flag for use of the SHARK integral package has been found!

================================================================================
                                       INPUT FILE
================================================================================
NAME = ox_es1_C_orca0003.inp
|  1> ! engrad PBE0 D3BJ def2-TZVP  
|  2> %pal nprocs 8 end
|  3> %maxcore 3000
|  4> 
|  5> %tddft
|  6>   nroots 1
|  7>   tda true
|  8>   Iroot 1
|  9>   end 
| 10> *xyz 0 1 
| 11> O   -0.4763301907081711 0.9875665395273572 0.11052927951202568
| 12> C   -0.7824656172543769 -0.4430228058122036 -0.04595741395681782
| 13> C   0.763864656949794 -0.49263589849348977 -0.043267545836105564
| 14> H   -1.290330516328529 -0.6615046029336096 0.9417923793694605
| 15> H   -1.319095193796081 -0.7205461584940769 -0.8913843605424164
| 16> H   1.1899050102335316 -0.671716142357977 -0.9337012371463124
| 17> H   1.280974064123338 -0.74038364692642 0.9227756444155871
| 18> *
| 19> 
| 20>                          ****END OF INPUT****
================================================================================

                     *******************************
                     * Energy+Gradient Calculation *
                     *******************************

---------------------------------
CARTESIAN COORDINATES (ANGSTROEM)
---------------------------------
  O     -0.476330    0.987567    0.110529
  C     -0.782466   -0.443023   -0.045957
  C      0.763865   -0.492636   -0.043268
  H     -1.290331   -0.661505    0.941792
  H     -1.319095   -0.720546   -0.891384
  H      1.189905   -0.671716   -0.933701
  H      1.280974   -0.740384    0.922776

----------------------------
CARTESIAN COORDINATES (A.U.)
----------------------------
  NO LB      ZA    FRAG     MASS         X           Y           Z
   0 O     8.0000    0    15.999   -0.900134    1.866230    0.208870
   1 C     6.0000    0    12.011   -1.478646   -0.837192   -0.086847
   2 C     6.0000    0    12.011    1.443495   -0.930947   -0.081764
   3 H     1.0000    0     1.008   -2.438371   -1.250063    1.779730
   4 H     1.0000    0     1.008   -2.492729   -1.361635   -1.684472
   5 H     1.0000    0     1.008    2.248595   -1.269360   -1.764440
   6 H     1.0000    0     1.008    2.420690   -1.399122    1.743793

--------------------------------
INTERNAL COORDINATES (ANGSTROEM)
--------------------------------
 O      0   0   0     0.000000000000     0.00000000     0.00000000
 C      1   0   0     1.471323506105     0.00000000     0.00000000
 C      2   1   0     1.547128311187    79.80693568     0.00000000
 H      2   1   3     1.131949957198   100.84856376   114.92833853
 H      2   1   3     1.039104054326   116.97957036   240.73781622
 H      3   2   1     1.003220950234   115.38093817   253.30468741
 H      3   2   1     1.123396871668   117.94595312    97.27674354

---------------------------
INTERNAL COORDINATES (A.U.)
---------------------------
 O      0   0   0     0.000000000000     0.00000000     0.00000000
 C      1   0   0     2.780398480940     0.00000000     0.00000000
 C      2   1   0     2.923648802179    79.80693568     0.00000000
 H      2   1   3     2.139075416409   100.84856376   114.92833853
 H      2   1   3     1.963622087323   116.97957036   240.73781622
 H      3   2   1     1.895812847755   115.38093817   253.30468741
 H      3   2   1     2.122912427156   117.94595312    97.27674354

---------------------
BASIS SET INFORMATION
---------------------
There are 3 groups of distinct atoms

 Group   1 Type O   : 11s6p2d1f contracted to 5s3p2d1f pattern {62111/411/11/1}
 Group   2 Type C   : 11s6p2d1f contracted to 5s3p2d1f pattern {62111/411/11/1}
 Group   3 Type H   : 5s1p contracted to 3s1p pattern {311/1}

Atom   0O    basis set group =>   1
Atom   1C    basis set group =>   2
Atom   2C    basis set group =>   2
Atom   3H    basis set group =>   3
Atom   4H    basis set group =>   3
Atom   5H    basis set group =>   3
Atom   6H    basis set group =>   3
---------------------------------
AUXILIARY/J BASIS SET INFORMATION
---------------------------------
There are 3 groups of distinct atoms

 Group   1 Type O   : 12s5p4d2f1g contracted to 6s4p3d1f1g pattern {711111/2111/211/2/1}
 Group   2 Type C   : 12s5p4d2f1g contracted to 6s4p3d1f1g pattern {711111/2111/211/2/1}
 Group   3 Type H   : 5s2p1d contracted to 3s1p1d pattern {311/2/1}

Atom   0O    basis set group =>   1
Atom   1C    basis set group =>   2
Atom   2C    basis set group =>   2
Atom   3H    basis set group =>   3
Atom   4H    basis set group =>   3
Atom   5H    basis set group =>   3
Atom   6H    basis set group =>   3

Checking for AutoStart:
The File: ox_es1_C_orca0003.gbw exists
Trying to determine its content:
     ... Fine, the file contains calculation information
     ... Fine, the calculation information was read
     ... Fine, the file contains a basis set
     ... Fine, the basis set was read
     ... Fine, the file contains a geometry
     ... Fine, the geometry was read
     ... Fine, the file contains a set of orbitals
     ... Fine, the orbitals can be read
     => possible old guess file was deleted
     => GBW file was renamed to GES file
     => GES file is set as startup file
     => Guess is set to MORead
     ... now leaving AutoStart



           ************************************************************
           *        Program running with 8 parallel MPI-processes     *
           *              working on a common directory               *
           ************************************************************
------------------------------------------------------------------------------
                           ORCA GTO INTEGRAL CALCULATION
                           -- RI-GTO INTEGRALS CHOSEN --
------------------------------------------------------------------------------
------------------------------------------------------------------------------
                   ___                                                        
                  /   \      - P O W E R E D   B Y -                         
                 /     \                                                     
                 |  |  |   _    _      __       _____    __    __             
                 |  |  |  | |  | |    /  \     |  _  \  |  |  /  |          
                  \  \/   | |  | |   /    \    | | | |  |  | /  /          
                 / \  \   | |__| |  /  /\  \   | |_| |  |  |/  /          
                |  |  |   |  __  | /  /__\  \  |    /   |      \           
                |  |  |   | |  | | |   __   |  |    \   |  |\   \          
                \     /   | |  | | |  |  |  |  | |\  \  |  | \   \       
                 \___/    |_|  |_| |__|  |__|  |_| \__\ |__|  \__/        
                                                                              
                      - O R C A' S   B I G   F R I E N D -                    
                                      &                                       
                       - I N T E G R A L  F E E D E R -                       
                                                                              
 v1 FN, 2020, v2 2021                                                         
------------------------------------------------------------------------------


Reading SHARK input file ox_es1_C_orca0003.SHARKINP.tmp ... ok
----------------------
SHARK INTEGRAL PACKAGE
----------------------

Number of atoms                             ...      7
Number of basis functions                   ...    117
Number of shells                            ...     49
Maximum angular momentum                    ...      3
Integral batch strategy                     ... SHARK/LIBINT Hybrid
RI-J (if used) integral strategy            ... SPLIT-RIJ (Revised 2003 algorithm where possible)
Printlevel                                  ...      1
Contraction scheme used                     ... SEGMENTED contraction
Coulomb Range Separation                    ... NOT USED
Exchange Range Separation                   ... NOT USED
Finite Nucleus Model                        ... NOT USED
Auxiliary Coulomb fitting basis             ... AVAILABLE
   # of basis functions in Aux-J            ...    191
   # of shells in Aux-J                     ...     65
   Maximum angular momentum in Aux-J        ...      4
Auxiliary J/K fitting basis                 ... NOT available
Auxiliary Correlation fitting basis         ... NOT available
Auxiliary 'external' fitting basis          ... NOT available
Integral threshold                          ...     2.500000e-11
Primitive cut-off                           ...     2.500000e-12
Primitive pair pre-selection threshold      ...     2.500000e-12

Calculating pre-screening integrals         ... done (  0.0 sec) Dimension = 49
Organizing shell pair data                  ... done (  0.0 sec)
Shell pair information
Total number of shell pairs                 ...      1225
Shell pairs after pre-screening             ...      1217
Total number of primitive shell pairs       ...      3648
Primitive shell pairs kept                  ...      3106
          la=0 lb=0:    370 shell pairs
          la=1 lb=0:    351 shell pairs
          la=1 lb=1:     91 shell pairs
          la=2 lb=0:    162 shell pairs
          la=2 lb=1:     78 shell pairs
          la=2 lb=2:     21 shell pairs
          la=3 lb=0:     81 shell pairs
          la=3 lb=1:     39 shell pairs
          la=3 lb=2:     18 shell pairs
          la=3 lb=3:      6 shell pairs

Calculating one electron integrals          ... done (  0.0 sec)
Calculating RI/J V-Matrix + Cholesky decomp.... done (  0.0 sec)
Calculating Nuclear repulsion               ... done (  0.0 sec) ENN=     68.844299479758 Eh

SHARK setup successfully completed in   0.1 seconds

Maximum memory used throughout the entire GTOINT-calculation: 14.9 MB


           ************************************************************
           *        Program running with 8 parallel MPI-processes     *
           *              working on a common directory               *
           ************************************************************
-------------------------------------------------------------------------------
                                 ORCA SCF
-------------------------------------------------------------------------------

------------
SCF SETTINGS
------------
Hamiltonian:
 Density Functional     Method          .... DFT(GTOs)
 Exchange Functional    Exchange        .... PBE
   PBE kappa parameter   XKappa         ....  0.804000
   PBE mue parameter    XMuePBE         ....  0.219520
 Correlation Functional Correlation     .... PBE
   PBE beta parameter  CBetaPBE         ....  0.066725
 LDA part of GGA corr.  LDAOpt          .... PW91-LDA
 Gradients option       PostSCFGGA      .... off
 Hybrid DFT is turned on
   Fraction HF Exchange ScalHFX         ....  0.250000
   Scaling of DF-GGA-X  ScalDFX         ....  0.750000
   Scaling of DF-GGA-C  ScalDFC         ....  1.000000
   Scaling of DF-LDA-C  ScalLDAC        ....  1.000000
   Perturbative correction              ....  0.000000
   Density functional embedding theory  .... OFF
   NL short-range parameter             ....  6.900000
 RI-approximation to the Coulomb term is turned on
   Number of AuxJ basis functions       .... 191
   RIJ-COSX (HFX calculated with COS-X)).... on


General Settings:
 Integral files         IntName         .... ox_es1_C_orca0003
 Hartree-Fock type      HFTyp           .... RHF
 Total Charge           Charge          ....    0
 Multiplicity           Mult            ....    1
 Number of Electrons    NEL             ....   24
 Basis Dimension        Dim             ....  117
 Nuclear Repulsion      ENuc            ....     68.8442994798 Eh

Convergence Acceleration:
 DIIS                   CNVDIIS         .... on
   Start iteration      DIISMaxIt       ....    12
   Startup error        DIISStart       ....  0.200000
   # of expansion vecs  DIISMaxEq       ....     5
   Bias factor          DIISBfac        ....   1.050
   Max. coefficient     DIISMaxC        ....  10.000
 Trust-Rad. Augm. Hess. CNVTRAH         .... auto
   Auto Start mean grad. ratio tolernc. ....  1.125000
   Auto Start start iteration           ....     1
   Auto Start num. interpolation iter.  ....    10
   Max. Number of Micro iterations      ....    16
   Max. Number of Macro iterations      .... Maxiter - #DIIS iter
   Number of Davidson start vectors     ....     2
   Converg. threshold I  (grad. norm)   ....   1.000e-05
   Converg. threshold II (energy diff.) ....   1.000e-08
   Grad. Scal. Fac. for Micro threshold ....   0.100
   Minimum threshold for Micro iter.    ....   0.010
   NR start threshold (gradient norm)   ....   0.001
   Initial trust radius                 ....   0.400
   Minimum AH scaling param. (alpha)    ....   1.000
   Maximum AH scaling param. (alpha)    .... 1000.000
   Orbital update algorithm             .... Taylor
   White noise on init. David. guess    .... on
   Maximum white noise                  ....   0.010
   Quad. conv. algorithm                .... NR
 SOSCF                  CNVSOSCF        .... on
   Start iteration      SOSCFMaxIt      ....   150
   Startup grad/error   SOSCFStart      ....  0.003300
 Level Shifting         CNVShift        .... on
   Level shift para.    LevelShift      ....    0.2500
   Turn off err/grad.   ShiftErr        ....    0.0010
 Zerner damping         CNVZerner       .... off
 Static damping         CNVDamp         .... on
   Fraction old density DampFac         ....    0.7000
   Max. Damping (<1)    DampMax         ....    0.9800
   Min. Damping (>=0)   DampMin         ....    0.0000
   Turn off err/grad.   DampErr         ....    0.1000
 Fernandez-Rico         CNVRico         .... off

SCF Procedure:
 Maximum # iterations   MaxIter         ....   125
 SCF integral mode      SCFMode         .... Direct
   Integral package                     .... SHARK and LIBINT hybrid scheme
 Reset frequency        DirectResetFreq ....    20
 Integral Threshold     Thresh          ....  2.500e-11 Eh
 Primitive CutOff       TCut            ....  2.500e-12 Eh

Convergence Tolerance:
 Convergence Check Mode ConvCheckMode   .... Total+1el-Energy
 Convergence forced     ConvForced      .... 1
 Energy Change          TolE            ....  1.000e-08 Eh
 1-El. energy change                    ....  1.000e-05 Eh
 Orbital Gradient       TolG            ....  1.000e-05
 Orbital Rotation angle TolX            ....  1.000e-05
 DIIS Error             TolErr          ....  5.000e-07


Diagonalization of the overlap matrix:
Smallest eigenvalue                        ... 7.592e-04
Time for diagonalization                   ...    0.001 sec
Threshold for overlap eigenvalues          ... 1.000e-08
Number of eigenvalues below threshold      ... 0
Time for construction of square roots      ...    0.001 sec
Total time needed                          ...    0.003 sec

---------------------
INITIAL GUESS: MOREAD
---------------------
Guess MOs are being read from file: ox_es1_C_orca0003.ges
Input Geometry matches current geometry (good)
Input basis set matches current basis set (good)
MOs were renormalized
MOs were reorthogonalized (Cholesky)
                      ------------------
                      INITIAL GUESS DONE (   0.0 sec)
                      ------------------
-------------------
DFT GRID GENERATION
-------------------

General Integration Accuracy     IntAcc      ... 4.388
Radial Grid Type                 RadialGrid  ... OptM3 with GC (2021)
Angular Grid (max. ang.)         AngularGrid ... 4 (Lebedev-302)
Angular grid pruning method      GridPruning ... 4 (adaptive)
Weight generation scheme         WeightScheme... Becke
Basis function cutoff            BFCut       ... 1.0000e-11
Integration weight cutoff        WCut        ... 1.0000e-14
Angular grids for H and He will be reduced by one unit
Partially contracted basis set               ... off
Rotationally invariant grid construction     ... off

Total number of grid points                  ...    31323
Total number of batches                      ...      492
Average number of points per batch           ...       63
Average number of grid points per atom       ...     4475
Time for grid setup =    0.122 sec

--------------------
COSX GRID GENERATION
--------------------

GRIDX 1
-------
General Integration Accuracy     IntAcc      ... 3.816
Radial Grid Type                 RadialGrid  ... OptM3 with GC (2021)
Angular Grid (max. ang.)         AngularGrid ... 1 (Lebedev-50)
Angular grid pruning method      GridPruning ... 4 (adaptive)
Weight generation scheme         WeightScheme... Becke
Basis function cutoff            BFCut       ... 1.0000e-11
Integration weight cutoff        WCut        ... 1.0000e-14
Angular grids for H and He will be reduced by one unit
Partially contracted basis set               ... on
Rotationally invariant grid construction     ... off

Total number of grid points                  ...     4037
Total number of batches                      ...       67
Average number of points per batch           ...       60
Average number of grid points per atom       ...      577
UseSFitting                                  ... on

GRIDX 2
-------
General Integration Accuracy     IntAcc      ... 4.020
Radial Grid Type                 RadialGrid  ... OptM3 with GC (2021)
Angular Grid (max. ang.)         AngularGrid ... 2 (Lebedev-110)
Angular grid pruning method      GridPruning ... 4 (adaptive)
Weight generation scheme         WeightScheme... Becke
Basis function cutoff            BFCut       ... 1.0000e-11
Integration weight cutoff        WCut        ... 1.0000e-14
Angular grids for H and He will be reduced by one unit
Partially contracted basis set               ... on
Rotationally invariant grid construction     ... off

Total number of grid points                  ...     8740
Total number of batches                      ...      140
Average number of points per batch           ...       62
Average number of grid points per atom       ...     1249
UseSFitting                                  ... on

GRIDX 3
-------
General Integration Accuracy     IntAcc      ... 4.338
Radial Grid Type                 RadialGrid  ... OptM3 with GC (2021)
Angular Grid (max. ang.)         AngularGrid ... 3 (Lebedev-194)
Angular grid pruning method      GridPruning ... 4 (adaptive)
Weight generation scheme         WeightScheme... Becke
Basis function cutoff            BFCut       ... 1.0000e-11
Integration weight cutoff        WCut        ... 1.0000e-14
Angular grids for H and He will be reduced by one unit
Partially contracted basis set               ... on
Rotationally invariant grid construction     ... off

Total number of grid points                  ...    19275
Total number of batches                      ...      305
Average number of points per batch           ...       63
Average number of grid points per atom       ...     2754
UseSFitting                                  ... on

Time for X-Grid setup             =    0.076 sec

--------------
SCF ITERATIONS
--------------
ITER       Energy         Delta-E        Max-DP      RMS-DP      [F,P]     Damp
               ***  Starting incremental Fock matrix formation  ***
                      *** Initiating the SOSCF procedure ***
                      *** Re-Reading the Fockian *** 
                      *** Removing any level shift *** 
ITER      Energy       Delta-E        Grad      Rot      Max-DP    RMS-DP
  0   -153.59223735 -153.5922373500  0.000001  0.000001  0.000001  0.000000
               *** Restarting incremental Fock matrix formation ***
                  ***Gradient check signals convergence***
              ***Rediagonalizing the Fockian in SOSCF/NRSCF***

               *****************************************************
               *                     SUCCESS                       *
               *           SCF CONVERGED AFTER   1 CYCLES          *
               *****************************************************

Old exchange energy                            =     -4.953299543 Eh
New exchange energy                            =     -4.953303451 Eh
Exchange energy change after final integration =     -0.000003908 Eh
Total energy after final integration           =   -153.592241258 Eh
Final COS-X integration done in                =     0.265 sec

----------------
TOTAL SCF ENERGY
----------------

Total Energy       :         -153.59224126 Eh           -4179.45736 eV

Components:
Nuclear Repulsion  :           68.84429948 Eh            1873.34863 eV
Electronic Energy  :         -222.43654074 Eh           -6052.80599 eV
One Electron Energy:         -344.57911057 Eh           -9376.47429 eV
Two Electron Energy:          122.14256983 Eh            3323.66830 eV
Max COSX asymmetry :            0.00000067 Eh               0.00002 eV

Virial components:
Potential Energy   :         -306.17865745 Eh           -8331.54484 eV
Kinetic Energy     :          152.58641620 Eh            4152.08747 eV
Virial Ratio       :            2.00659184


DFT components:
N(Alpha)           :       12.000003265194 electrons
N(Beta)            :       12.000003265194 electrons
N(Total)           :       24.000006530387 electrons
E(X)               :      -14.864498520759 Eh       
E(C)               :       -0.772840804648 Eh       
E(XC)              :      -15.637339325407 Eh       
DFET-embed. en.    :        0.000000000000 Eh       

---------------
SCF CONVERGENCE
---------------

  Last Energy change         ...   -1.3642e-12  Tolerance :   1.0000e-08
  Last MAX-Density change    ...    8.5695e-16  Tolerance :   1.0000e-07
  Last RMS-Density change    ...    2.0823e-17  Tolerance :   5.0000e-09
  Last Orbital Gradient      ...    4.4033e-07  Tolerance :   1.0000e-05
  Last Orbital Rotation      ...    1.9406e-06  Tolerance :   1.0000e-05

             **** THE GBW FILE WAS UPDATED (ox_es1_C_orca0003.gbw) ****
             **** DENSITY ox_es1_C_orca0003.scfp WAS UPDATED ****
             **** ENERGY FILE WAS UPDATED (ox_es1_C_orca0003.en.tmp) ****
             **** THE GBW FILE WAS UPDATED (ox_es1_C_orca0003.gbw) ****
             **** DENSITY ox_es1_C_orca0003.scfp WAS UPDATED ****
----------------
ORBITAL ENERGIES
----------------

  NO   OCC          E(Eh)            E(eV) 
   0   2.0000     -19.216203      -522.8995 
   1   2.0000     -10.306280      -280.4481 
   2   2.0000     -10.282835      -279.8102 
   3   2.0000      -0.995873       -27.0991 
   4   2.0000      -0.745278       -20.2801 
   5   2.0000      -0.642827       -17.4922 
   6   2.0000      -0.517777       -14.0894 
   7   2.0000      -0.468539       -12.7496 
   8   2.0000      -0.428050       -11.6478 
   9   2.0000      -0.382805       -10.4166 
  10   2.0000      -0.302329        -8.2268 
  11   2.0000      -0.273553        -7.4437 
  12   0.0000      -0.075420        -2.0523 
  13   0.0000       0.057659         1.5690 
  14   0.0000       0.076860         2.0915 
  15   0.0000       0.092283         2.5112 
  16   0.0000       0.106467         2.8971 
  17   0.0000       0.148069         4.0292 
  18   0.0000       0.183289         4.9875 
  19   0.0000       0.187876         5.1124 
  20   0.0000       0.244989         6.6665 
  21   0.0000       0.262085         7.1317 
  22   0.0000       0.277216         7.5434 
  23   0.0000       0.303331         8.2540 
  24   0.0000       0.355740         9.6802 
  25   0.0000       0.392641        10.6843 
  26   0.0000       0.403295        10.9742 
  27   0.0000       0.413372        11.2484 
  28   0.0000       0.454341        12.3633 
  29   0.0000       0.473636        12.8883 
  30   0.0000       0.496199        13.5023 
  31   0.0000       0.516397        14.0519 
  32   0.0000       0.552574        15.0363 
  33   0.0000       0.643993        17.5240 
  34   0.0000       0.664896        18.0927 
  35   0.0000       0.747993        20.3539 
  36   0.0000       0.813591        22.1389 
  37   0.0000       0.859450        23.3868 
  38   0.0000       0.865763        23.5586 
  39   0.0000       0.908482        24.7211 
  40   0.0000       0.957454        26.0537 
  41   0.0000       1.013140        27.5690 
  42   0.0000       1.045027        28.4366 
  43   0.0000       1.061123        28.8746 
  44   0.0000       1.136447        30.9243 
  45   0.0000       1.337725        36.4013 
  46   0.0000       1.388701        37.7885 
  47   0.0000       1.462784        39.8044 
  48   0.0000       1.487857        40.4867 
  49   0.0000       1.523209        41.4486 
  50   0.0000       1.590887        43.2902 
  51   0.0000       1.610498        43.8239 
  52   0.0000       1.646291        44.7979 
  53   0.0000       1.659263        45.1508 
  54   0.0000       1.717272        46.7293 
  55   0.0000       1.752414        47.6856 
  56   0.0000       1.824476        49.6465 
  57   0.0000       1.848758        50.3073 
  58   0.0000       1.898965        51.6735 
  59   0.0000       1.968318        53.5607 
  60   0.0000       1.991261        54.1850 
  61   0.0000       2.061817        56.1049 
  62   0.0000       2.151459        58.5442 
  63   0.0000       2.192443        59.6594 
  64   0.0000       2.298661        62.5498 
  65   0.0000       2.346256        63.8449 
  66   0.0000       2.403007        65.3891 
  67   0.0000       2.465073        67.0780 
  68   0.0000       2.505217        68.1704 
  69   0.0000       2.538274        69.0700 
  70   0.0000       2.544767        69.2466 
  71   0.0000       2.571412        69.9717 
  72   0.0000       2.631285        71.6009 
  73   0.0000       2.700719        73.4903 
  74   0.0000       2.763244        75.1917 
  75   0.0000       2.775181        75.5165 
  76   0.0000       2.841269        77.3148 
  77   0.0000       2.890804        78.6628 
  78   0.0000       2.972324        80.8810 
  79   0.0000       3.013594        82.0041 
  80   0.0000       3.047748        82.9334 
  81   0.0000       3.070793        83.5605 
  82   0.0000       3.086194        83.9796 
  83   0.0000       3.148776        85.6825 
  84   0.0000       3.185007        86.6684 
  85   0.0000       3.229198        87.8710 
  86   0.0000       3.352880        91.2365 
  87   0.0000       3.382174        92.0336 
  88   0.0000       3.427492        93.2668 
  89   0.0000       3.526203        95.9529 
  90   0.0000       3.581931        97.4693 
  91   0.0000       3.666269        99.7643 
  92   0.0000       3.677603       100.0727 
  93   0.0000       3.780128       102.8625 
  94   0.0000       3.969973       108.0285 
  95   0.0000       4.009038       109.0915 
  96   0.0000       4.046917       110.1222 
  97   0.0000       4.248176       115.5987 
  98   0.0000       4.352229       118.4302 
  99   0.0000       4.535569       123.4191 
 100   0.0000       4.616952       125.6337 
 101   0.0000       4.770132       129.8019 
 102   0.0000       5.230580       142.3313 
 103   0.0000       5.247174       142.7829 
 104   0.0000       5.332223       145.0972 
 105   0.0000       5.383894       146.5032 
 106   0.0000       5.681106       154.5907 
 107   0.0000       5.690383       154.8432 
 108   0.0000       5.878785       159.9699 
 109   0.0000       6.391182       173.9129 
 110   0.0000       6.473611       176.1559 
 111   0.0000       6.727848       183.0740 
 112   0.0000       6.877680       187.1512 
 113   0.0000       6.996831       190.3935 
 114   0.0000      22.160121       603.0075 
 115   0.0000      22.296457       606.7174 
 116   0.0000      43.641876      1187.5558 

                    ********************************
                    * MULLIKEN POPULATION ANALYSIS *
                    ********************************

-----------------------
MULLIKEN ATOMIC CHARGES
-----------------------
   0 O :   -0.360345
   1 C :   -0.034344
   2 C :   -0.154036
   3 H :    0.112045
   4 H :    0.121902
   5 H :    0.153668
   6 H :    0.161109
Sum of atomic charges:    0.0000000

--------------------------------
MULLIKEN REDUCED ORBITAL CHARGES
--------------------------------
  0 O s       :     3.912306  s :     3.912306
      pz      :     1.893402  p :     4.423360
      px      :     1.330631
      py      :     1.199327
      dz2     :     0.003311  d :     0.023531
      dxz     :     0.000648
      dyz     :     0.004469
      dx2y2   :     0.007228
      dxy     :     0.007876
      f0      :     0.000139  f :     0.001147
      f+1     :     0.000070
      f-1     :     0.000280
      f+2     :     0.000118
      f-2     :     0.000053
      f+3     :     0.000264
      f-3     :     0.000223
  1 C s       :     3.212781  s :     3.212781
      pz      :     1.049987  p :     2.682047
      px      :     0.906941
      py      :     0.725119
      dz2     :     0.009591  d :     0.129884
      dxz     :     0.018927
      dyz     :     0.039281
      dx2y2   :     0.026483
      dxy     :     0.035603
      f0      :     0.001429  f :     0.009633
      f+1     :     0.001150
      f-1     :     0.000852
      f+2     :     0.002081
      f-2     :     0.000421
      f+3     :     0.001514
      f-3     :     0.002185
  2 C s       :     3.296232  s :     3.296232
      pz      :     1.047289  p :     2.793807
      px      :     0.977406
      py      :     0.769112
      dz2     :     0.008913  d :     0.058599
      dxz     :     0.018130
      dyz     :     0.008335
      dx2y2   :     0.009280
      dxy     :     0.013941
      f0      :     0.000673  f :     0.005398
      f+1     :     0.001120
      f-1     :     0.000179
      f+2     :     0.000574
      f-2     :     0.000412
      f+3     :     0.001274
      f-3     :     0.001165
  3 H s       :     0.868093  s :     0.868093
      pz      :     0.010817  p :     0.019862
      px      :     0.005343
      py      :     0.003703
  4 H s       :     0.855971  s :     0.855971
      pz      :     0.010525  p :     0.022127
      px      :     0.007301
      py      :     0.004300
  5 H s       :     0.821304  s :     0.821304
      pz      :     0.012398  p :     0.025028
      px      :     0.007362
      py      :     0.005267
  6 H s       :     0.817496  s :     0.817496
      pz      :     0.011268  p :     0.021395
      px      :     0.006036
      py      :     0.004091


                     *******************************
                     * LOEWDIN POPULATION ANALYSIS *
                     *******************************

----------------------
LOEWDIN ATOMIC CHARGES
----------------------
   0 O :   -0.072409
   1 C :   -0.333978
   2 C :   -0.051667
   3 H :    0.125452
   4 H :    0.097021
   5 H :    0.096655
   6 H :    0.138926

-------------------------------
LOEWDIN REDUCED ORBITAL CHARGES
-------------------------------
  0 O s       :     3.581003  s :     3.581003
      pz      :     1.828742  p :     4.438110
      px      :     1.299986
      py      :     1.309382
      dz2     :     0.007343  d :     0.050268
      dxz     :     0.001423
      dyz     :     0.010204
      dx2y2   :     0.016867
      dxy     :     0.014430
      f0      :     0.000277  f :     0.003029
      f+1     :     0.000098
      f-1     :     0.000553
      f+2     :     0.000417
      f-2     :     0.000161
      f+3     :     0.000780
      f-3     :     0.000743
  1 C s       :     2.850882  s :     2.850882
      pz      :     1.071928  p :     2.915899
      px      :     1.024459
      py      :     0.819512
      dz2     :     0.058504  d :     0.505876
      dxz     :     0.096406
      dyz     :     0.107487
      dx2y2   :     0.124917
      dxy     :     0.118562
      f0      :     0.008190  f :     0.061321
      f+1     :     0.004481
      f-1     :     0.006825
      f+2     :     0.011955
      f-2     :     0.002320
      f+3     :     0.010334
      f-3     :     0.017215
  2 C s       :     2.905630  s :     2.905630
      pz      :     1.087352  p :     2.891305
      px      :     1.074693
      py      :     0.729260
      dz2     :     0.038630  d :     0.230800
      dxz     :     0.084989
      dyz     :     0.019708
      dx2y2   :     0.043968
      dxy     :     0.043505
      f0      :     0.003699  f :     0.023932
      f+1     :     0.003384
      f-1     :     0.001505
      f+2     :     0.003262
      f-2     :     0.001519
      f+3     :     0.005042
      f-3     :     0.005521
  3 H s       :     0.819530  s :     0.819530
      pz      :     0.030887  p :     0.055018
      px      :     0.014059
      py      :     0.010072
  4 H s       :     0.833017  s :     0.833017
      pz      :     0.034506  p :     0.069963
      px      :     0.021708
      py      :     0.013749
  5 H s       :     0.822059  s :     0.822059
      pz      :     0.041567  p :     0.081286
      px      :     0.023262
      py      :     0.016456
  6 H s       :     0.800482  s :     0.800482
      pz      :     0.032838  p :     0.060591
      px      :     0.016456
      py      :     0.011298


                      *****************************
                      * MAYER POPULATION ANALYSIS *
                      *****************************

  NA   - Mulliken gross atomic population
  ZA   - Total nuclear charge
  QA   - Mulliken gross atomic charge
  VA   - Mayer's total valence
  BVA  - Mayer's bonded valence
  FA   - Mayer's free valence

  ATOM       NA         ZA         QA         VA         BVA        FA
  0 O      8.3603     8.0000    -0.3603     1.9079     1.9079    -0.0000
  1 C      6.0343     6.0000    -0.0343     3.9876     3.9876    -0.0000
  2 C      6.1540     6.0000    -0.1540     3.8576     3.8576    -0.0000
  3 H      0.8880     1.0000     0.1120     0.9653     0.9653    -0.0000
  4 H      0.8781     1.0000     0.1219     0.9472     0.9472    -0.0000
  5 H      0.8463     1.0000     0.1537     0.9585     0.9585    -0.0000
  6 H      0.8389     1.0000     0.1611     0.9581     0.9581    -0.0000

  Mayer bond orders larger than 0.100000
B(  0-O ,  1-C ) :   1.0090 B(  0-O ,  2-C ) :   0.8935 B(  1-C ,  2-C ) :   1.0573 
B(  1-C ,  3-H ) :   0.9689 B(  1-C ,  4-H ) :   0.9467 B(  2-C ,  5-H ) :   0.9516 
B(  2-C ,  6-H ) :   0.9453 

-------
TIMINGS
-------

Total SCF time: 0 days 0 hours 0 min 1 sec 

Total time                  ....       1.023 sec
Sum of individual times     ....       0.928 sec  ( 90.7%)

Fock matrix formation       ....       0.714 sec  ( 69.8%)
  Split-RI-J                ....       0.114 sec  ( 16.0% of F)
  Chain of spheres X        ....       0.534 sec  ( 74.8% of F)
  XC integration            ....       0.063 sec  (  8.9% of F)
    Basis function eval.    ....       0.018 sec  ( 28.0% of XC)
    Density eval.           ....       0.014 sec  ( 21.7% of XC)
    XC-Functional eval.     ....       0.004 sec  (  6.0% of XC)
    XC-Potential eval.      ....       0.020 sec  ( 30.9% of XC)
Diagonalization             ....       0.002 sec  (  0.2%)
Density matrix formation    ....       0.000 sec  (  0.0%)
Population analysis         ....       0.003 sec  (  0.2%)
Initial guess               ....       0.007 sec  (  0.7%)
Orbital Transformation      ....       0.000 sec  (  0.0%)
Orbital Orthonormalization  ....       0.001 sec  (  0.1%)
DIIS solution               ....       0.001 sec  (  0.1%)
SOSCF solution              ....       0.002 sec  (  0.2%)
Grid generation             ....       0.198 sec  ( 19.3%)

Maximum memory used throughout the entire SCF-calculation: 61.1 MB


           ************************************************************
           *        Program running with 8 parallel MPI-processes     *
           *              working on a common directory               *
           ************************************************************
------------------------------------------------------------------------------
                        ORCA TD-DFT/TDA CALCULATION
------------------------------------------------------------------------------

Input orbitals are from        ... ox_es1_C_orca0003.gbw
CI-vector output               ... ox_es1_C_orca0003.cis
Tamm-Dancoff approximation     ... operative
CIS-Integral strategy          ... AO-integrals
Integral handling              ... AO integral Direct
Max. core memory used          ... 3000 MB
Reference state                ... RHF
Generation of triplets         ... off
Follow IRoot                   ... off
Number of operators            ... 1
Orbital ranges used for CIS calculation:
 Operator 0:  Orbitals   3... 11  to  12...116
XAS localization array:
 Operator 0:  Orbitals  -1... -1

-------------------
XC-INTEGRATION GRID
-------------------

General Integration Accuracy     IntAcc      ... 3.467
Radial Grid Type                 RadialGrid  ... OptM3 with GC (2021)
Angular Grid (max. ang.)         AngularGrid ... 1 (Lebedev-50)
Angular grid pruning method      GridPruning ... 4 (adaptive)
Weight generation scheme         WeightScheme... Becke
Basis function cutoff            BFCut       ... 1.0000e-11
Integration weight cutoff        WCut        ... 1.0000e-14
Angular grids for H and He will be reduced by one unit
Partially contracted basis set               ... off
Rotationally invariant grid construction     ... off

Total number of grid points                  ...     4542
Total number of batches                      ...       75
Average number of points per batch           ...       60
Average number of grid points per atom       ...      649

---------------------
COSX-INTEGRATION GRID
---------------------

General Integration Accuracy     IntAcc      ... 3.067
Radial Grid Type                 RadialGrid  ... OptM3 with GC (2021)
Angular Grid (max. ang.)         AngularGrid ... 1 (Lebedev-50)
Angular grid pruning method      GridPruning ... 4 (adaptive)
Weight generation scheme         WeightScheme... Becke
Basis function cutoff            BFCut       ... 1.0000e-11
Integration weight cutoff        WCut        ... 1.0000e-14
Angular grids for H and He will be reduced by one unit
Partially contracted basis set               ... on
Rotationally invariant grid construction     ... off

Total number of grid points                  ...     2086
Total number of batches                      ...       37
Average number of points per batch           ...       56
Average number of grid points per atom       ...      298

---------------
TD-DFT XC SETUP
---------------

DFT calculation                         ... on
Name of the grid file                   ... ox_es1_C_orca0003.grid_cis.tmp
Exchange functional (TD-DFT)            ... PBE
   PBE kappa parameter  XKappa (TD-DFT) ...  0.804000
   PBE mue parameter   XMuePBE (TD-DFT) ...  0.219520
Correlation functional (TD-DFT)         ... PBE
   PBE beta parameter CBetaPBE (TD-DFT) ...  0.066725
 LDA part of GGA corr.  LDAOpt (TD-DFT) ... PW91-LDA
Hybrid DFT                              ... on
   Exchange mixing (TD-DFT)             ...  0.250
   GGA exch. scaling (TD-DFT)           ...  0.750
   GGA corr. scaling (TD-DFT)           ...  1.000

Building densities             ... done
Calculating rho(r) on the grid ... done
Building xc-kernel on the grid ... done
                    *** TD-DFT CALCULATION INITIALIZED ***

------------------------
DAVIDSON-DIAGONALIZATION
------------------------

Dimension of the eigenvalue problem            ...    945
Number of roots to be determined               ...      1
Maximum size of the expansion space            ...     10
Maximum number of iterations                   ...    100
Convergence tolerance for the residual         ...    2.500e-07
Convergence tolerance for the energies         ...    2.500e-07
Orthogonality tolerance                        ...    1.000e-14
Level Shift                                    ...    0.000e+00
Constructing the preconditioner                ... o.k.
Building the initial guess                     ... o.k.
Number of trial vectors determined             ...     10


                       ****Iteration    0****

   Memory handling for direct AO based CIS:
   Memory per vector needed      ...     1 MB
   Memory needed                 ...     1 MB
   Memory available              ...  3000 MB
   Number of vectors per batch   ...  3000
   Number of batches             ...     1
   Time for densities:            0.000
   Time for RI-J (Direct):        0.016
   Time for K (COSX):             0.057
   Time for XC-Integration:       0.016
   Time for Sigma-Completion:     0.000
   Size of expansion space: 3
   Lowest Energy          :     0.114617561578
   Maximum Energy change  :     0.114617561578 (vector 0)
   Maximum residual norm  :     0.003242634116

                       ****Iteration    1****
   Time for densities:            0.000
   Time for RI-J (Direct):        0.013
   Time for K (COSX):             0.050
   Time for XC-Integration:       0.007
   Time for Sigma-Completion:     0.000
   Size of expansion space: 4
   Lowest Energy          :     0.112176520316
   Maximum Energy change  :     0.002441041262 (vector 0)
   Maximum residual norm  :     0.000077382977

                       ****Iteration    2****
   Time for densities:            0.000
   Time for RI-J (Direct):        0.013
   Time for K (COSX):             0.050
   Time for XC-Integration:       0.007
   Time for Sigma-Completion:     0.000
   Size of expansion space: 5
   Lowest Energy          :     0.112124424046
   Maximum Energy change  :     0.000052096270 (vector 0)
   Maximum residual norm  :     0.000003484981

                       ****Iteration    3****
   Time for densities:            0.000
   Time for RI-J (Direct):        0.013
   Time for K (COSX):             0.050
   Time for XC-Integration:       0.007
   Time for Sigma-Completion:     0.000
   Size of expansion space: 6
   Lowest Energy          :     0.112121385944
   Maximum Energy change  :     0.000003038103 (vector 0)
   Maximum residual norm  :     0.000000293138

                       ****Iteration    4****
   Time for densities:            0.000
   Time for RI-J (Direct):        0.013
   Time for K (COSX):             0.050
   Time for XC-Integration:       0.007
   Time for Sigma-Completion:     0.000
   Size of expansion space: 7
   Lowest Energy          :     0.112121108944
   Maximum Energy change  :     0.000000277000 (vector 0)
   Maximum residual norm  :     0.000000013214

      *** CONVERGENCE OF RESIDUAL NORM REACHED ***

Storing the converged CI vectors               ... ox_es1_C_orca0003.cis1

                 *** DAVIDSON DONE ***

Total time for solving the CIS problem:     0.374sec

------------------------------------
TD-DFT/TDA EXCITED STATES (SINGLETS)
------------------------------------

the weight of the individual excitations are printed if larger than 1.0e-02

STATE  1:  E=   0.112121 au      3.051 eV    24607.7 cm**-1 <S**2> =   0.000000
    11a ->  12a  :     0.988099 (c= -0.99403153)


-----------------------------
TD-DFT/TDA-EXCITATION SPECTRA
-----------------------------

Center of mass = ( -0.3425,  0.0749,  0.0316)
Calculating the Dipole integrals                  ... done
Transforming integrals                            ... done
Calculating the Linear Momentum integrals         ... done
Transforming integrals                            ... done
Calculating angular momentum integrals            ... done
Transforming integrals                            ... done

-----------------------------------------------------------------------------
         ABSORPTION SPECTRUM VIA TRANSITION ELECTRIC DIPOLE MOMENTS
-----------------------------------------------------------------------------
State   Energy    Wavelength  fosc         T2        TX        TY        TZ  
        (cm-1)      (nm)                 (au**2)    (au)      (au)      (au) 
-----------------------------------------------------------------------------
   1   24607.7    406.4   0.000778343   0.01041  -0.00411  -0.00765   0.10167

-----------------------------------------------------------------------------
         ABSORPTION SPECTRUM VIA TRANSITION VELOCITY DIPOLE MOMENTS
-----------------------------------------------------------------------------
State   Energy    Wavelength   fosc        P2         PX        PY        PZ  
        (cm-1)      (nm)                 (au**2)     (au)      (au)      (au) 
-----------------------------------------------------------------------------
   1   24607.7    406.4   0.009030447   0.00152  -0.00168   0.01022  -0.03757

-------------------------------------------------------------------
                             CD SPECTRUM
-------------------------------------------------------------------
State  Energy     Wavelength     R         MX        MY        MZ   
       (cm-1)       (nm)     (1e40*cgs)   (au)      (au)      (au)  
-------------------------------------------------------------------
   1   24607.7    406.4     -0.38372  -0.04825  -0.24976  -0.02876

-------------------------------------------------------------------
         CD SPECTRUM VIA TRANSITION VELOCITY DIPOLE MOMENTS        
-------------------------------------------------------------------
State  Energy     Wavelength     R         MX        MY        MZ   
       (cm-1)       (nm)     (1e40*cgs)   (au)      (au)      (au)  
-------------------------------------------------------------------
   1   24607.7    406.4     -5.85369  -0.04825  -0.24976  -0.02876

Total run time:        0.648 sec

           *** ORCA-CIS/TD-DFT FINISHED WITHOUT ERROR ***

Maximum memory used throughout the entire CIS-calculation: 49.4 MB

-----------------------
CIS/TD-DFT TOTAL ENERGY
-----------------------

    E(SCF)  =   -153.592241258 Eh
    DE(CIS) =      0.112121109 Eh (Root  1)
    ----------------------------- ---------
    E(tot)  =   -153.480120149 Eh



-------------------------------------------------------------------------------
                          DFT DISPERSION CORRECTION                            
                                                                               
                              DFTD3 V3.1  Rev 1                                
                          USING Becke-Johnson damping                          
-------------------------------------------------------------------------------
The PBE0 functional is recognized
Active option DFTDOPT                   ...         4   

molecular C6(AA) [au] = 387.742675 


            DFT-D V3
 parameters
 s6 scaling factor         :     1.0000 
 a1 scaling factor         :     0.4145 
 s8 scaling factor         :     1.2177 
 a2 scaling factor         :     4.8593 
 ad hoc parameters k1-k3   :    16.0000     1.3333    -4.0000 

 Edisp/kcal,au: -1.636601611650  -0.002608090403 
 E6   /kcal   :  -1.068605487 
 E8   /kcal   :  -0.567996124 
 % E8         :  34.705827024 

-------------------------   ----------------
Dispersion correction           -0.002608090
-------------------------   ----------------


-------------------------   --------------------
FINAL SINGLE POINT ENERGY      -153.482728239744
-------------------------   --------------------



           ************************************************************
           *        Program running with 8 parallel MPI-processes     *
           *              working on a common directory               *
           ************************************************************
------------------------------------------------------------------------------
                         ORCA SCF GRADIENT CALCULATION
------------------------------------------------------------------------------


------------------------
TD-DFT GRADIENT XC SETUP
------------------------

Building densities                     ... done
Calculating rho(r) on the grid         ... done
Building xc-kernel on the grid         ... done
Building xc 3rd derivative on the grid      ... done
                *** TD-DFT GRADIENT CALCULATION INITIALIZED ***

-------------------
TD-DFT/TDA GRADIENT
-------------------

Reference wavefunction             ... RHF
State of interest                  ... 1
Basis dimension                    ... 117
DFT-XC contribution needed         ... YES
RI-approximation                   ... ON
CIS-vectors being read from        ... ox_es1_C_orca0003.cis

 => Number of Vectors found: 1
 => Orbital Window: 3...11 -> 12...116

Reading the CIS file                     ... done
Norm of the CI vector                    ... 1.000000000
Making the CIS (pseudo)densities         ... done
Making operators G(D) and Q(T)           ... done
Transforming the Fock operators          ... done
Making the frozen-core relaxed density   ... done
Constructing the G(H) operator           ... done
Transforming the G(H) operator           ... done
Calculating the CIS Lagrangian           ... done
Solving the Z-vector equations           ... done
Finalizing the relaxed density           ... done
Storing the relaxed density              ... done
Constructing the G(Z) operator           ... done
Transforming the G(Z) operator           ... done
Making the W-matrix                      ... done
Finalizing the W-matrix                  ... done
Transforming the W-matrix                ... done
Nuclear repulsion gradient               ... done
One-Electron gradient                    ... done
Dispersion correction                    ... done
Prescreening matrices                    ... done
COSX-gradient                            ... done
Coulomb gradient (RI)                    ... done
Exchange-Correlation gradient            ... done

                 ---------------------------
                 EXCITED STATE GRADIENT DONE
                 ---------------------------

------------------
CARTESIAN GRADIENT
------------------

   1   O   :    0.058722913   -0.006280055    0.009210366
   2   C   :   -0.103708388   -0.061011819   -0.068033368
   3   C   :    0.050757825    0.061698593   -0.075326796
   4   H   :   -0.004264426    0.003677839    0.019964544
   5   H   :    0.024049158    0.005329838    0.030505338
   6   H   :   -0.036107324    0.006244416    0.059208418
   7   H   :    0.010586464   -0.009694992    0.024437728

Difference to translation invariance:
           :    0.0000362226   -0.0000361792   -0.0000337697

Difference to rotation invariance:
           :   -0.0001572104    0.0000499602    0.0004806856

Norm of the cartesian gradient     ...    0.2058046096
RMS gradient                       ...    0.0449102477
MAX gradient                       ...    0.1037083878

------------------------------------------------------------------------------
                  RELAXED CIS/TDA DENSITY POPULATION ANALYSIS
                                   IROOT 1
------------------------------------------------------------------------------
------------------------------------------------------------------------------
                           ORCA POPULATION ANALYSIS
------------------------------------------------------------------------------
Input electron density              ... ox_es1_C_orca0003.cisp
BaseName (.gbw .S,...)              ... ox_es1_C_orca0003

                    ********************************
                    * MULLIKEN POPULATION ANALYSIS *
                    ********************************

-----------------------
MULLIKEN ATOMIC CHARGES
-----------------------
   0 O :   -0.157591
   1 C :   -0.080386
   2 C :   -0.346850
   3 H :    0.152699
   4 H :    0.154624
   5 H :    0.137319
   6 H :    0.140184
Sum of atomic charges:   -0.0000000

--------------------------------
MULLIKEN REDUCED ORBITAL CHARGES
--------------------------------
  0 O s       :     3.892699  s :     3.892699
      pz      :     1.074613  p :     4.241839
      px      :     1.827185
      py      :     1.340042
      dz2     :     0.002665  d :     0.022306
      dxz     :     0.000725
      dyz     :     0.004636
      dx2y2   :     0.007027
      dxy     :     0.007252
      f0      :    -0.000004  f :     0.000746
      f+1     :    -0.000057
      f-1     :     0.000061
      f+2     :     0.000129
      f-2     :     0.000030
      f+3     :     0.000344
      f-3     :     0.000244
  1 C s       :     3.217438  s :     3.217438
      pz      :     1.032846  p :     2.742578
      px      :     0.990006
      py      :     0.719726
      dz2     :     0.008829  d :     0.111004
      dxz     :     0.019736
      dyz     :     0.016934
      dx2y2   :     0.027355
      dxy     :     0.038151
      f0      :     0.000800  f :     0.009365
      f+1     :     0.001181
      f-1     :     0.000638
      f+2     :     0.001176
      f-2     :     0.000358
      f+3     :     0.002901
      f-3     :     0.002312
  2 C s       :     3.313148  s :     3.313148
      pz      :     1.035942  p :     2.977751
      px      :     0.900160
      py      :     1.041649
      dz2     :     0.008376  d :     0.050800
      dxz     :     0.011410
      dyz     :     0.002611
      dx2y2   :     0.012033
      dxy     :     0.016369
      f0      :     0.000596  f :     0.005151
      f+1     :     0.000967
      f-1     :     0.000340
      f+2     :     0.000522
      f-2     :     0.000234
      f+3     :     0.001514
      f-3     :     0.000978
  3 H s       :     0.826965  s :     0.826965
      pz      :     0.011011  p :     0.020336
      px      :     0.005723
      py      :     0.003602
  4 H s       :     0.822743  s :     0.822743
      pz      :     0.010736  p :     0.022633
      px      :     0.007600
      py      :     0.004296
  5 H s       :     0.835777  s :     0.835777
      pz      :     0.011313  p :     0.026904
      px      :     0.006831
      py      :     0.008760
  6 H s       :     0.837221  s :     0.837221
      pz      :     0.010188  p :     0.022595
      px      :     0.005747
      py      :     0.006660


                     *******************************
                     * LOEWDIN POPULATION ANALYSIS *
                     *******************************

----------------------
LOEWDIN ATOMIC CHARGES
----------------------
   0 O :    0.094480
   1 C :   -0.309624
   2 C :   -0.265643
   3 H :    0.158675
   4 H :    0.118637
   5 H :    0.081626
   6 H :    0.121849

-------------------------------
LOEWDIN REDUCED ORBITAL CHARGES
-------------------------------
  0 O s       :     3.601137  s :     3.601137
      pz      :     1.047511  p :     4.245845
      px      :     1.769288
      py      :     1.429046
      dz2     :     0.008153  d :     0.055735
      dxz     :     0.001546
      dyz     :     0.009986
      dx2y2   :     0.015995
      dxy     :     0.020055
      f0      :     0.000254  f :     0.002803
      f+1     :     0.000034
      f-1     :     0.000376
      f+2     :     0.000352
      f-2     :     0.000126
      f+3     :     0.000948
      f-3     :     0.000712
  1 C s       :     2.853950  s :     2.853950
      pz      :     1.040515  p :     2.943754
      px      :     1.080136
      py      :     0.823103
      dz2     :     0.056897  d :     0.447247
      dxz     :     0.091079
      dyz     :     0.052146
      dx2y2   :     0.133183
      dxy     :     0.113943
      f0      :     0.005300  f :     0.064673
      f+1     :     0.004313
      f-1     :     0.006457
      f+2     :     0.007686
      f-2     :     0.002355
      f+3     :     0.020658
      f-3     :     0.017903
  2 C s       :     2.919882  s :     2.919882
      pz      :     1.080871  p :     3.069361
      px      :     1.033049
      py      :     0.955440
      dz2     :     0.042698  d :     0.250125
      dxz     :     0.078192
      dyz     :     0.011239
      dx2y2   :     0.049601
      dxy     :     0.068394
      f0      :     0.003618  f :     0.026275
      f+1     :     0.003917
      f-1     :     0.002205
      f+2     :     0.002881
      f-2     :     0.001247
      f+3     :     0.007121
      f-3     :     0.005285
  3 H s       :     0.785430  s :     0.785430
      pz      :     0.031003  p :     0.055895
      px      :     0.015163
      py      :     0.009729
  4 H s       :     0.810106  s :     0.810106
      pz      :     0.034791  p :     0.071257
      px      :     0.022766
      py      :     0.013699
  5 H s       :     0.831335  s :     0.831335
      pz      :     0.038352  p :     0.087039
      px      :     0.021909
      py      :     0.026777
  6 H s       :     0.814182  s :     0.814182
      pz      :     0.029715  p :     0.063969
      px      :     0.015795
      py      :     0.018459


                      *****************************
                      * MAYER POPULATION ANALYSIS *
                      *****************************

  NA   - Mulliken gross atomic population
  ZA   - Total nuclear charge
  QA   - Mulliken gross atomic charge
  VA   - Mayer's total valence
  BVA  - Mayer's bonded valence
  FA   - Mayer's free valence

  ATOM       NA         ZA         QA         VA         BVA        FA
  0 O      8.1576     8.0000    -0.1576     1.9305     1.1003     0.8302
  1 C      6.0804     6.0000    -0.0804     3.9652     3.9064     0.0588
  2 C      6.3468     6.0000    -0.3468     3.8883     3.0979     0.7905
  3 H      0.8473     1.0000     0.1527     0.9600     0.9091     0.0508
  4 H      0.8454     1.0000     0.1546     0.9574     0.9302     0.0272
  5 H      0.8627     1.0000     0.1373     0.9792     0.9665     0.0127
  6 H      0.8598     1.0000     0.1402     0.9759     0.9664     0.0095

  Mayer bond orders larger than 0.100000
B(  0-O ,  1-C ) :   0.9988 B(  1-C ,  2-C ) :   1.0859 B(  1-C ,  3-H ) :   0.9000 
B(  1-C ,  4-H ) :   0.9229 B(  2-C ,  5-H ) :   0.9622 B(  2-C ,  6-H ) :   0.9559 



-------
TIMINGS
-------

Total TD-DFT gradient time         ...        5.288 sec

Fock matrix formation       ....       0.850 sec  ( 16.1%)
  Coulomb formation         ....       0.689 sec  ( 81.1% of F)
  RI-J                      ....       0.298 sec  ( 35.0% of F)
  Chain of spheres X        ....       0.391 sec  ( 46.0% of F)
  XC integration            ....       0.160 sec  ( 18.9% of F)
Z-vector equation           ....       1.572 sec  ( 29.7%)
One electron gradient       ....       0.034 sec  (  0.6%)
Prescreening matrices       ....       0.164 sec  (  3.1%)
RI-J Coulomb gradient       ....       0.266 sec  (  5.0%)
COSX gradient               ....       0.377 sec  (  7.1%)
XC gradient                 ....       1.696 sec  ( 32.1%)

Maximum memory used throughout the entire SCFGRAD-calculation: 130.2 MB

                            ***************************************
                            *     ORCA property calculations      *
                            ***************************************

                                    ---------------------
                                    Active property flags
                                    ---------------------
   (+) Dipole Moment


------------------------------------------------------------------------------
                       ORCA ELECTRIC PROPERTIES CALCULATION
------------------------------------------------------------------------------

Dipole Moment Calculation                       ... on
Quadrupole Moment Calculation                   ... off
Polarizability Calculation                      ... off
GBWName                                         ... ox_es1_C_orca0003.gbw
Electron density                                ... ox_es1_C_orca0003.scfp
The origin for moment calculation is the CENTER OF MASS  = (-0.342482,  0.074871  0.031592)

-------------
DIPOLE MOMENT
-------------
                                X             Y             Z
Electronic contribution:     -0.23869       1.60712      -0.09673
Nuclear contribution   :      0.54577      -2.75607      -0.02431
                        -----------------------------------------
Total Dipole Moment    :      0.30708      -1.14895      -0.12104
                        -----------------------------------------
Magnitude (a.u.)       :      1.19542
Magnitude (Debye)      :      3.03852



--------------------
Rotational spectrum 
--------------------
 
Rotational constants in cm-1:     0.890796     0.495944     0.365793 
Rotational constants in MHz : 26705.385776 14868.030441 10966.190466 

 Dipole components along the rotational axes: 
x,y,z [a.u.] :    -1.033360    -0.600915     0.009969 
x,y,z [Debye]:    -2.626592    -1.527404     0.025338 

 

                        *** CIS RELAXED DENSITY ***

------------------------------------------------------------------------------
                       ORCA ELECTRIC PROPERTIES CALCULATION
------------------------------------------------------------------------------

Dipole Moment Calculation                       ... on
Quadrupole Moment Calculation                   ... off
Polarizability Calculation                      ... off
GBWName                                         ... ox_es1_C_orca0003.gbw
Electron density                                ... ox_es1_C_orca0003.cisp
The origin for moment calculation is the CENTER OF MASS  = (-0.342482,  0.074871  0.031592)

-------------
DIPOLE MOMENT
-------------
                                X             Y             Z
Electronic contribution:     -0.91205       2.05851      -0.04576
Nuclear contribution   :      0.54577      -2.75607      -0.02431
                        -----------------------------------------
Total Dipole Moment    :     -0.36628      -0.69756      -0.07007
                        -----------------------------------------
Magnitude (a.u.)       :      0.79098
Magnitude (Debye)      :      2.01052



--------------------
Rotational spectrum 
--------------------
 
Rotational constants in cm-1:     0.890796     0.495944     0.365793 
Rotational constants in MHz : 26705.385776 14868.030441 10966.190466 

 Dipole components along the rotational axes: 
x,y,z [a.u.] :    -0.235840    -0.754832     0.016129 
x,y,z [Debye]:    -0.599458    -1.918630     0.040996 

 

Timings for individual modules:

Sum of individual times         ...        7.721 sec (=   0.129 min)
GTO integral calculation        ...        0.247 sec (=   0.004 min)   3.2 %
SCF iterations                  ...        1.184 sec (=   0.020 min)  15.3 %
CIS module                      ...        0.833 sec (=   0.014 min)  10.8 %
SCF Gradient evaluation         ...        5.456 sec (=   0.091 min)  70.7 %
                             ****ORCA TERMINATED NORMALLY****
TOTAL RUN TIME: 0 days 0 hours 0 minutes 8 seconds 72 msec
