
                                 *****************
                                 * O   R   C   A *
                                 *****************

                                            #,                                       
                                            ###                                      
                                            ####                                     
                                            #####                                    
                                            ######                                   
                                           ########,                                 
                                     ,,################,,,,,                         
                               ,,#################################,,                 
                          ,,##########################################,,             
                       ,#########################################, ''#####,          
                    ,#############################################,,   '####,        
                  ,##################################################,,,,####,       
                ,###########''''           ''''###############################       
              ,#####''   ,,,,##########,,,,          '''####'''          '####       
            ,##' ,,,,###########################,,,                        '##       
           ' ,,###''''                  '''############,,,                           
         ,,##''                                '''############,,,,        ,,,,,,###''
      ,#''                                            '''#######################'''  
     '                                                          ''''####''''         
             ,#######,   #######,   ,#######,      ##                                
            ,#'     '#,  ##    ##  ,#'     '#,    #''#        ######   ,####,        
            ##       ##  ##   ,#'  ##            #'  '#       #        #'  '#        
            ##       ##  #######   ##           ,######,      #####,   #    #        
            '#,     ,#'  ##    ##  '#,     ,#' ,#      #,         ##   #,  ,#        
             '#######'   ##     ##  '#######'  #'      '#     #####' # '####'        



                  #######################################################
                  #                        -***-                        #
                  #          Department of theory and spectroscopy      #
                  #    Directorship and core code : Frank Neese         #
                  #        Max Planck Institute fuer Kohlenforschung    #
                  #                Kaiser Wilhelm Platz 1               #
                  #                 D-45470 Muelheim/Ruhr               #
                  #                      Germany                        #
                  #                                                     #
                  #                  All rights reserved                #
                  #                        -***-                        #
                  #######################################################


                         Program Version 5.0.2 -  RELEASE  -


 With contributions from (in alphabetic order):
   Daniel Aravena         : Magnetic Suceptibility
   Michael Atanasov       : Ab Initio Ligand Field Theory (pilot matlab implementation)
   Alexander A. Auer      : GIAO ZORA, VPT2 properties, NMR spectrum
   Ute Becker             : Parallelization
   Giovanni Bistoni       : ED, misc. LED, open-shell LED, HFLD
   Martin Brehm           : Molecular dynamics
   Dmytro Bykov           : SCF Hessian
   Vijay G. Chilkuri      : MRCI spin determinant printing, contributions to CSF-ICE
   Dipayan Datta          : RHF DLPNO-CCSD density
   Achintya Kumar Dutta   : EOM-CC, STEOM-CC
   Dmitry Ganyushin       : Spin-Orbit,Spin-Spin,Magnetic field MRCI
   Miquel Garcia          : C-PCM and meta-GGA Hessian, CC/C-PCM, Gaussian charge scheme
   Yang Guo               : DLPNO-NEVPT2, F12-NEVPT2, CIM, IAO-localization
   Andreas Hansen         : Spin unrestricted coupled pair/coupled cluster methods
   Benjamin Helmich-Paris : MC-RPA, TRAH-SCF, COSX integrals
   Lee Huntington         : MR-EOM, pCC
   Robert Izsak           : Overlap fitted RIJCOSX, COSX-SCS-MP3, EOM
   Marcus Kettner         : VPT2
   Christian Kollmar      : KDIIS, OOCD, Brueckner-CCSD(T), CCSD density, CASPT2, CASPT2-K
   Simone Kossmann        : Meta GGA functionals, TD-DFT gradient, OOMP2, MP2 Hessian
   Martin Krupicka        : Initial AUTO-CI
   Lucas Lang             : DCDCAS
   Marvin Lechner         : AUTO-CI (C++ implementation), FIC-MRCC
   Dagmar Lenk            : GEPOL surface, SMD
   Dimitrios Liakos       : Extrapolation schemes; Compound Job, initial MDCI parallelization
   Dimitrios Manganas     : Further ROCIS development; embedding schemes
   Dimitrios Pantazis     : SARC Basis sets
   Anastasios Papadopoulos: AUTO-CI, single reference methods and gradients
   Taras Petrenko         : DFT Hessian,TD-DFT gradient, ASA, ECA, R-Raman, ABS, FL, XAS/XES, NRVS
   Peter Pinski           : DLPNO-MP2, DLPNO-MP2 Gradient
   Christoph Reimann      : Effective Core Potentials
   Marius Retegan         : Local ZFS, SOC
   Christoph Riplinger    : Optimizer, TS searches, QM/MM, DLPNO-CCSD(T), (RO)-DLPNO pert. Triples
   Tobias Risthaus        : Range-separated hybrids, TD-DFT gradient, RPA, STAB
   Michael Roemelt        : Original ROCIS implementation
   Masaaki Saitow         : Open-shell DLPNO-CCSD energy and density
   Barbara Sandhoefer     : DKH picture change effects
   Avijit Sen             : IP-ROCIS
   Kantharuban Sivalingam : CASSCF convergence, NEVPT2, FIC-MRCI
   Bernardo de Souza      : ESD, SOC TD-DFT
   Georgi Stoychev        : AutoAux, RI-MP2 NMR, DLPNO-MP2 response
   Willem Van den Heuvel  : Paramagnetic NMR
   Boris Wezisla          : Elementary symmetry handling
   Frank Wennmohs         : Technical directorship


 We gratefully acknowledge several colleagues who have allowed us to
 interface, adapt or use parts of their codes:
   Stefan Grimme, W. Hujo, H. Kruse, P. Pracht,  : VdW corrections, initial TS optimization,
                  C. Bannwarth, S. Ehlert          DFT functionals, gCP, sTDA/sTD-DF
   Ed Valeev, F. Pavosevic, A. Kumar             : LibInt (2-el integral package), F12 methods
   Garnet Chan, S. Sharma, J. Yang, R. Olivares  : DMRG
   Ulf Ekstrom                                   : XCFun DFT Library
   Mihaly Kallay                                 : mrcc  (arbitrary order and MRCC methods)
   Jiri Pittner, Ondrej Demel                    : Mk-CCSD
   Frank Weinhold                                : gennbo (NPA and NBO analysis)
   Christopher J. Cramer and Donald G. Truhlar   : smd solvation model
   Lars Goerigk                                  : TD-DFT with DH, B97 family of functionals
   V. Asgeirsson, H. Jonsson                     : NEB implementation
   FAccTs GmbH                                   : IRC, NEB, NEB-TS, DLPNO-Multilevel, CI-OPT
                                                   MM, QMMM, 2- and 3-layer-ONIOM, Crystal-QMMM,
                                                   LR-CPCM, SF, NACMEs, symmetry and pop. for TD-DFT,
                                                   nearIR, NL-DFT gradient (VV10), updates on ESD,
                                                   ML-optimized integration grids
   S Lehtola, MJT Oliveira, MAL Marques          : LibXC Library
   Liviu Ungur et al                             : ANISO software


 Your calculation uses the libint2 library for the computation of 2-el integrals
 For citations please refer to: http://libint.valeyev.net

 Your ORCA version has been built with support for libXC version: 5.1.0
 For citations please refer to: https://tddft.org/programs/libxc/

 This ORCA versions uses:
   CBLAS   interface :  Fast vector & matrix operations
   LAPACKE interface :  Fast linear algebra routines
   SCALAPACK package :  Parallel linear algebra routines
   Shared memory     :  Shared parallel matrices
   BLAS/LAPACK       :  OpenBLAS 0.3.15  USE64BITINT DYNAMIC_ARCH NO_AFFINITY SkylakeX SINGLE_THREADED
        Core in use  :  SkylakeX
   Copyright (c) 2011-2014, The OpenBLAS Project


Your calculation utilizes the atom-pairwise dispersion correction
with the Becke-Johnson damping scheme (D3BJ)
Cite in your paper:
S.Grimme, S.Ehrlich, L.Goerigk, J Comput Chem, (2011), 32, 1456–1465 
S.Grimme, J.Antony, S.Ehrlich and H.Krieg, J.Chem.Phys., 132, (2010), 154104 
   

================================================================================

----- Orbital basis set information -----
Your calculation utilizes the basis: def2-TZVP
   F. Weigend and R. Ahlrichs, Phys. Chem. Chem. Phys. 7, 3297 (2005).

----- AuxJ basis set information -----
Your calculation utilizes the auxiliary basis: def2/J
   F. Weigend, Phys. Chem. Chem. Phys. 8, 1057 (2006).

================================================================================
                                        WARNINGS
                       Please study these warnings very carefully!
================================================================================

INFO   : Checking CIS options ...

WARNING: CIS/ROCIS methods need fully converged wavefunctions
  ===> : Setting SCFConvForced true
         You can overwrite this default with %scf ConvForced false 


INFO   : the flag for use of the SHARK integral package has been found!

================================================================================
                                       INPUT FILE
================================================================================
NAME = ox_es1_B_orca0008.inp
|  1> ! engrad PBE0 D3BJ def2-TZVP  
|  2> %pal nprocs 8 end
|  3> %maxcore 3000
|  4> 
|  5> %tddft
|  6>   nroots 1
|  7>   tda true
|  8>   Iroot 1
|  9>   end 
| 10> *xyz 0 1 
| 11> O   -0.1969789075160084 0.9329533411357827 -0.003630295130571954
| 12> C   -0.7564197361781709 -0.4939281207046552 -0.06195357812973963
| 13> C   0.7358737037015647 -0.4581714390941238 0.10618459442967765
| 14> H   -1.2577092582870584 -0.7387423969961384 0.9911255176386122
| 15> H   -1.3712155218821804 -0.7356475356728878 -0.9017979921596676
| 16> H   1.2630852144097702 -0.6046511060726896 -0.9924545504431694
| 17> H   1.2040466829166514 -0.6978639586573624 0.8992509278233906
| 18> *
| 19> 
| 20>                          ****END OF INPUT****
================================================================================

                     *******************************
                     * Energy+Gradient Calculation *
                     *******************************

---------------------------------
CARTESIAN COORDINATES (ANGSTROEM)
---------------------------------
  O     -0.196979    0.932953   -0.003630
  C     -0.756420   -0.493928   -0.061954
  C      0.735874   -0.458171    0.106185
  H     -1.257709   -0.738742    0.991126
  H     -1.371216   -0.735648   -0.901798
  H      1.263085   -0.604651   -0.992455
  H      1.204047   -0.697864    0.899251

----------------------------
CARTESIAN COORDINATES (A.U.)
----------------------------
  NO LB      ZA    FRAG     MASS         X           Y           Z
   0 O     8.0000    0    15.999   -0.372236    1.763026   -0.006860
   1 C     6.0000    0    12.011   -1.429426   -0.933389   -0.117075
   2 C     6.0000    0    12.011    1.390600   -0.865819    0.200660
   3 H     1.0000    0     1.008   -2.376726   -1.396021    1.872956
   4 H     1.0000    0     1.008   -2.591222   -1.390172   -1.704151
   5 H     1.0000    0     1.008    2.386885   -1.142625   -1.875467
   6 H     1.0000    0     1.008    2.275318   -1.318772    1.699338

--------------------------------
INTERNAL COORDINATES (ANGSTROEM)
--------------------------------
 O      0   0   0     0.000000000000     0.00000000     0.00000000
 C      1   0   0     1.533742596480     0.00000000     0.00000000
 C      2   1   0     1.502161341554    67.12259670     0.00000000
 H      2   1   3     1.191721778267   108.11619644   103.40294268
 H      2   1   3     1.068522706108   116.75745914   233.45014252
 H      3   2   1     1.227361495448   108.88648550   262.47058552
 H      3   2   1     0.951626319289   125.17144485   109.15517600

---------------------------
INTERNAL COORDINATES (A.U.)
---------------------------
 O      0   0   0     0.000000000000     0.00000000     0.00000000
 C      1   0   0     2.898353467277     0.00000000     0.00000000
 C      2   1   0     2.838673544501    67.12259670     0.00000000
 H      2   1   3     2.252027788755   108.11619644   103.40294268
 H      2   1   3     2.019215282421   116.75745914   233.45014252
 H      3   2   1     2.319377093717   108.88648550   262.47058552
 H      3   2   1     1.798313125288   125.17144485   109.15517600

---------------------
BASIS SET INFORMATION
---------------------
There are 3 groups of distinct atoms

 Group   1 Type O   : 11s6p2d1f contracted to 5s3p2d1f pattern {62111/411/11/1}
 Group   2 Type C   : 11s6p2d1f contracted to 5s3p2d1f pattern {62111/411/11/1}
 Group   3 Type H   : 5s1p contracted to 3s1p pattern {311/1}

Atom   0O    basis set group =>   1
Atom   1C    basis set group =>   2
Atom   2C    basis set group =>   2
Atom   3H    basis set group =>   3
Atom   4H    basis set group =>   3
Atom   5H    basis set group =>   3
Atom   6H    basis set group =>   3
---------------------------------
AUXILIARY/J BASIS SET INFORMATION
---------------------------------
There are 3 groups of distinct atoms

 Group   1 Type O   : 12s5p4d2f1g contracted to 6s4p3d1f1g pattern {711111/2111/211/2/1}
 Group   2 Type C   : 12s5p4d2f1g contracted to 6s4p3d1f1g pattern {711111/2111/211/2/1}
 Group   3 Type H   : 5s2p1d contracted to 3s1p1d pattern {311/2/1}

Atom   0O    basis set group =>   1
Atom   1C    basis set group =>   2
Atom   2C    basis set group =>   2
Atom   3H    basis set group =>   3
Atom   4H    basis set group =>   3
Atom   5H    basis set group =>   3
Atom   6H    basis set group =>   3

Checking for AutoStart:
The File: ox_es1_B_orca0008.gbw exists
Trying to determine its content:
     ... Fine, the file contains calculation information
     ... Fine, the calculation information was read
     ... Fine, the file contains a basis set
     ... Fine, the basis set was read
     ... Fine, the file contains a geometry
     ... Fine, the geometry was read
     ... Fine, the file contains a set of orbitals
     ... Fine, the orbitals can be read
     => possible old guess file was deleted
     => GBW file was renamed to GES file
     => GES file is set as startup file
     => Guess is set to MORead
     ... now leaving AutoStart



           ************************************************************
           *        Program running with 8 parallel MPI-processes     *
           *              working on a common directory               *
           ************************************************************
------------------------------------------------------------------------------
                           ORCA GTO INTEGRAL CALCULATION
                           -- RI-GTO INTEGRALS CHOSEN --
------------------------------------------------------------------------------
------------------------------------------------------------------------------
                   ___                                                        
                  /   \      - P O W E R E D   B Y -                         
                 /     \                                                     
                 |  |  |   _    _      __       _____    __    __             
                 |  |  |  | |  | |    /  \     |  _  \  |  |  /  |          
                  \  \/   | |  | |   /    \    | | | |  |  | /  /          
                 / \  \   | |__| |  /  /\  \   | |_| |  |  |/  /          
                |  |  |   |  __  | /  /__\  \  |    /   |      \           
                |  |  |   | |  | | |   __   |  |    \   |  |\   \          
                \     /   | |  | | |  |  |  |  | |\  \  |  | \   \       
                 \___/    |_|  |_| |__|  |__|  |_| \__\ |__|  \__/        
                                                                              
                      - O R C A' S   B I G   F R I E N D -                    
                                      &                                       
                       - I N T E G R A L  F E E D E R -                       
                                                                              
 v1 FN, 2020, v2 2021                                                         
------------------------------------------------------------------------------


Reading SHARK input file ox_es1_B_orca0008.SHARKINP.tmp ... ok
----------------------
SHARK INTEGRAL PACKAGE
----------------------

Number of atoms                             ...      7
Number of basis functions                   ...    117
Number of shells                            ...     49
Maximum angular momentum                    ...      3
Integral batch strategy                     ... SHARK/LIBINT Hybrid
RI-J (if used) integral strategy            ... SPLIT-RIJ (Revised 2003 algorithm where possible)
Printlevel                                  ...      1
Contraction scheme used                     ... SEGMENTED contraction
Coulomb Range Separation                    ... NOT USED
Exchange Range Separation                   ... NOT USED
Finite Nucleus Model                        ... NOT USED
Auxiliary Coulomb fitting basis             ... AVAILABLE
   # of basis functions in Aux-J            ...    191
   # of shells in Aux-J                     ...     65
   Maximum angular momentum in Aux-J        ...      4
Auxiliary J/K fitting basis                 ... NOT available
Auxiliary Correlation fitting basis         ... NOT available
Auxiliary 'external' fitting basis          ... NOT available
Integral threshold                          ...     2.500000e-11
Primitive cut-off                           ...     2.500000e-12
Primitive pair pre-selection threshold      ...     2.500000e-12

Calculating pre-screening integrals         ... done (  0.0 sec) Dimension = 49
Organizing shell pair data                  ... done (  0.0 sec)
Shell pair information
Total number of shell pairs                 ...      1225
Shell pairs after pre-screening             ...      1220
Total number of primitive shell pairs       ...      3648
Primitive shell pairs kept                  ...      3132
          la=0 lb=0:    373 shell pairs
          la=1 lb=0:    351 shell pairs
          la=1 lb=1:     91 shell pairs
          la=2 lb=0:    162 shell pairs
          la=2 lb=1:     78 shell pairs
          la=2 lb=2:     21 shell pairs
          la=3 lb=0:     81 shell pairs
          la=3 lb=1:     39 shell pairs
          la=3 lb=2:     18 shell pairs
          la=3 lb=3:      6 shell pairs

Calculating one electron integrals          ... done (  0.0 sec)
Calculating RI/J V-Matrix + Cholesky decomp.... done (  0.0 sec)
Calculating Nuclear repulsion               ... done (  0.0 sec) ENN=     70.343666289202 Eh

SHARK setup successfully completed in   0.1 seconds

Maximum memory used throughout the entire GTOINT-calculation: 14.9 MB


           ************************************************************
           *        Program running with 8 parallel MPI-processes     *
           *              working on a common directory               *
           ************************************************************
-------------------------------------------------------------------------------
                                 ORCA SCF
-------------------------------------------------------------------------------

------------
SCF SETTINGS
------------
Hamiltonian:
 Density Functional     Method          .... DFT(GTOs)
 Exchange Functional    Exchange        .... PBE
   PBE kappa parameter   XKappa         ....  0.804000
   PBE mue parameter    XMuePBE         ....  0.219520
 Correlation Functional Correlation     .... PBE
   PBE beta parameter  CBetaPBE         ....  0.066725
 LDA part of GGA corr.  LDAOpt          .... PW91-LDA
 Gradients option       PostSCFGGA      .... off
 Hybrid DFT is turned on
   Fraction HF Exchange ScalHFX         ....  0.250000
   Scaling of DF-GGA-X  ScalDFX         ....  0.750000
   Scaling of DF-GGA-C  ScalDFC         ....  1.000000
   Scaling of DF-LDA-C  ScalLDAC        ....  1.000000
   Perturbative correction              ....  0.000000
   Density functional embedding theory  .... OFF
   NL short-range parameter             ....  6.900000
 RI-approximation to the Coulomb term is turned on
   Number of AuxJ basis functions       .... 191
   RIJ-COSX (HFX calculated with COS-X)).... on


General Settings:
 Integral files         IntName         .... ox_es1_B_orca0008
 Hartree-Fock type      HFTyp           .... RHF
 Total Charge           Charge          ....    0
 Multiplicity           Mult            ....    1
 Number of Electrons    NEL             ....   24
 Basis Dimension        Dim             ....  117
 Nuclear Repulsion      ENuc            ....     70.3436662892 Eh

Convergence Acceleration:
 DIIS                   CNVDIIS         .... on
   Start iteration      DIISMaxIt       ....    12
   Startup error        DIISStart       ....  0.200000
   # of expansion vecs  DIISMaxEq       ....     5
   Bias factor          DIISBfac        ....   1.050
   Max. coefficient     DIISMaxC        ....  10.000
 Trust-Rad. Augm. Hess. CNVTRAH         .... auto
   Auto Start mean grad. ratio tolernc. ....  1.125000
   Auto Start start iteration           ....     1
   Auto Start num. interpolation iter.  ....    10
   Max. Number of Micro iterations      ....    16
   Max. Number of Macro iterations      .... Maxiter - #DIIS iter
   Number of Davidson start vectors     ....     2
   Converg. threshold I  (grad. norm)   ....   1.000e-05
   Converg. threshold II (energy diff.) ....   1.000e-08
   Grad. Scal. Fac. for Micro threshold ....   0.100
   Minimum threshold for Micro iter.    ....   0.010
   NR start threshold (gradient norm)   ....   0.001
   Initial trust radius                 ....   0.400
   Minimum AH scaling param. (alpha)    ....   1.000
   Maximum AH scaling param. (alpha)    .... 1000.000
   Orbital update algorithm             .... Taylor
   White noise on init. David. guess    .... on
   Maximum white noise                  ....   0.010
   Quad. conv. algorithm                .... NR
 SOSCF                  CNVSOSCF        .... on
   Start iteration      SOSCFMaxIt      ....   150
   Startup grad/error   SOSCFStart      ....  0.003300
 Level Shifting         CNVShift        .... on
   Level shift para.    LevelShift      ....    0.2500
   Turn off err/grad.   ShiftErr        ....    0.0010
 Zerner damping         CNVZerner       .... off
 Static damping         CNVDamp         .... on
   Fraction old density DampFac         ....    0.7000
   Max. Damping (<1)    DampMax         ....    0.9800
   Min. Damping (>=0)   DampMin         ....    0.0000
   Turn off err/grad.   DampErr         ....    0.1000
 Fernandez-Rico         CNVRico         .... off

SCF Procedure:
 Maximum # iterations   MaxIter         ....   125
 SCF integral mode      SCFMode         .... Direct
   Integral package                     .... SHARK and LIBINT hybrid scheme
 Reset frequency        DirectResetFreq ....    20
 Integral Threshold     Thresh          ....  2.500e-11 Eh
 Primitive CutOff       TCut            ....  2.500e-12 Eh

Convergence Tolerance:
 Convergence Check Mode ConvCheckMode   .... Total+1el-Energy
 Convergence forced     ConvForced      .... 1
 Energy Change          TolE            ....  1.000e-08 Eh
 1-El. energy change                    ....  1.000e-05 Eh
 Orbital Gradient       TolG            ....  1.000e-05
 Orbital Rotation angle TolX            ....  1.000e-05
 DIIS Error             TolErr          ....  5.000e-07


Diagonalization of the overlap matrix:
Smallest eigenvalue                        ... 5.537e-04
Time for diagonalization                   ...    0.001 sec
Threshold for overlap eigenvalues          ... 1.000e-08
Number of eigenvalues below threshold      ... 0
Time for construction of square roots      ...    0.001 sec
Total time needed                          ...    0.003 sec

---------------------
INITIAL GUESS: MOREAD
---------------------
Guess MOs are being read from file: ox_es1_B_orca0008.ges
Input Geometry matches current geometry (good)
Input basis set matches current basis set (good)
MOs were renormalized
MOs were reorthogonalized (Cholesky)
                      ------------------
                      INITIAL GUESS DONE (   0.0 sec)
                      ------------------
-------------------
DFT GRID GENERATION
-------------------

General Integration Accuracy     IntAcc      ... 4.388
Radial Grid Type                 RadialGrid  ... OptM3 with GC (2021)
Angular Grid (max. ang.)         AngularGrid ... 4 (Lebedev-302)
Angular grid pruning method      GridPruning ... 4 (adaptive)
Weight generation scheme         WeightScheme... Becke
Basis function cutoff            BFCut       ... 1.0000e-11
Integration weight cutoff        WCut        ... 1.0000e-14
Angular grids for H and He will be reduced by one unit
Partially contracted basis set               ... off
Rotationally invariant grid construction     ... off

Total number of grid points                  ...    31342
Total number of batches                      ...      493
Average number of points per batch           ...       63
Average number of grid points per atom       ...     4477
Time for grid setup =    0.120 sec

--------------------
COSX GRID GENERATION
--------------------

GRIDX 1
-------
General Integration Accuracy     IntAcc      ... 3.816
Radial Grid Type                 RadialGrid  ... OptM3 with GC (2021)
Angular Grid (max. ang.)         AngularGrid ... 1 (Lebedev-50)
Angular grid pruning method      GridPruning ... 4 (adaptive)
Weight generation scheme         WeightScheme... Becke
Basis function cutoff            BFCut       ... 1.0000e-11
Integration weight cutoff        WCut        ... 1.0000e-14
Angular grids for H and He will be reduced by one unit
Partially contracted basis set               ... on
Rotationally invariant grid construction     ... off

Total number of grid points                  ...     4042
Total number of batches                      ...       68
Average number of points per batch           ...       59
Average number of grid points per atom       ...      577
UseSFitting                                  ... on

GRIDX 2
-------
General Integration Accuracy     IntAcc      ... 4.020
Radial Grid Type                 RadialGrid  ... OptM3 with GC (2021)
Angular Grid (max. ang.)         AngularGrid ... 2 (Lebedev-110)
Angular grid pruning method      GridPruning ... 4 (adaptive)
Weight generation scheme         WeightScheme... Becke
Basis function cutoff            BFCut       ... 1.0000e-11
Integration weight cutoff        WCut        ... 1.0000e-14
Angular grids for H and He will be reduced by one unit
Partially contracted basis set               ... on
Rotationally invariant grid construction     ... off

Total number of grid points                  ...     8739
Total number of batches                      ...      140
Average number of points per batch           ...       62
Average number of grid points per atom       ...     1248
UseSFitting                                  ... on

GRIDX 3
-------
General Integration Accuracy     IntAcc      ... 4.338
Radial Grid Type                 RadialGrid  ... OptM3 with GC (2021)
Angular Grid (max. ang.)         AngularGrid ... 3 (Lebedev-194)
Angular grid pruning method      GridPruning ... 4 (adaptive)
Weight generation scheme         WeightScheme... Becke
Basis function cutoff            BFCut       ... 1.0000e-11
Integration weight cutoff        WCut        ... 1.0000e-14
Angular grids for H and He will be reduced by one unit
Partially contracted basis set               ... on
Rotationally invariant grid construction     ... off

Total number of grid points                  ...    19278
Total number of batches                      ...      305
Average number of points per batch           ...       63
Average number of grid points per atom       ...     2754
UseSFitting                                  ... on

Time for X-Grid setup             =    0.074 sec

--------------
SCF ITERATIONS
--------------
ITER       Energy         Delta-E        Max-DP      RMS-DP      [F,P]     Damp
               ***  Starting incremental Fock matrix formation  ***
                      *** Initiating the SOSCF procedure ***
                      *** Re-Reading the Fockian *** 
                      *** Removing any level shift *** 
ITER      Energy       Delta-E        Grad      Rot      Max-DP    RMS-DP
  0   -153.60592123 -153.6059212293  0.000002  0.000002  0.000004  0.000000
               *** Restarting incremental Fock matrix formation ***
                  ***Gradient check signals convergence***
              ***Rediagonalizing the Fockian in SOSCF/NRSCF***

               *****************************************************
               *                     SUCCESS                       *
               *           SCF CONVERGED AFTER   1 CYCLES          *
               *****************************************************

Old exchange energy                            =     -4.952934110 Eh
New exchange energy                            =     -4.952946139 Eh
Exchange energy change after final integration =     -0.000012029 Eh
Total energy after final integration           =   -153.605933258 Eh
Final COS-X integration done in                =     0.249 sec

----------------
TOTAL SCF ENERGY
----------------

Total Energy       :         -153.60593326 Eh           -4179.82994 eV

Components:
Nuclear Repulsion  :           70.34366629 Eh            1914.14847 eV
Electronic Energy  :         -223.94959955 Eh           -6093.97842 eV
One Electron Energy:         -347.56425089 Eh           -9457.70409 eV
Two Electron Energy:          123.61465134 Eh            3363.72567 eV
Max COSX asymmetry :            0.00000110 Eh               0.00003 eV

Virial components:
Potential Energy   :         -306.11394635 Eh           -8329.78396 eV
Kinetic Energy     :          152.50801309 Eh            4149.95402 eV
Virial Ratio       :            2.00719910


DFT components:
N(Alpha)           :       12.000002468846 electrons
N(Beta)            :       12.000002468846 electrons
N(Total)           :       24.000004937692 electrons
E(X)               :      -14.855929238098 Eh       
E(C)               :       -0.776956895911 Eh       
E(XC)              :      -15.632886134009 Eh       
DFET-embed. en.    :        0.000000000000 Eh       

---------------
SCF CONVERGENCE
---------------

  Last Energy change         ...   -1.5544e-10  Tolerance :   1.0000e-08
  Last MAX-Density change    ...    4.9960e-16  Tolerance :   1.0000e-07
  Last RMS-Density change    ...    1.8754e-17  Tolerance :   5.0000e-09
  Last Orbital Gradient      ...    1.5010e-06  Tolerance :   1.0000e-05
  Last Orbital Rotation      ...    4.4055e-06  Tolerance :   1.0000e-05

             **** THE GBW FILE WAS UPDATED (ox_es1_B_orca0008.gbw) ****
             **** DENSITY ox_es1_B_orca0008.scfp WAS UPDATED ****
             **** ENERGY FILE WAS UPDATED (ox_es1_B_orca0008.en.tmp) ****
             **** THE GBW FILE WAS UPDATED (ox_es1_B_orca0008.gbw) ****
             **** DENSITY ox_es1_B_orca0008.scfp WAS UPDATED ****
----------------
ORBITAL ENERGIES
----------------

  NO   OCC          E(Eh)            E(eV) 
   0   2.0000     -19.223355      -523.0941 
   1   2.0000     -10.296208      -280.1741 
   2   2.0000     -10.294420      -280.1254 
   3   2.0000      -1.014307       -27.6007 
   4   2.0000      -0.730865       -19.8878 
   5   2.0000      -0.647876       -17.6296 
   6   2.0000      -0.508676       -13.8418 
   7   2.0000      -0.490230       -13.3398 
   8   2.0000      -0.393327       -10.7030 
   9   2.0000      -0.366755        -9.9799 
  10   2.0000      -0.335313        -9.1243 
  11   2.0000      -0.283439        -7.7128 
  12   0.0000       0.005410         0.1472 
  13   0.0000       0.052255         1.4219 
  14   0.0000       0.065276         1.7762 
  15   0.0000       0.075207         2.0465 
  16   0.0000       0.094086         2.5602 
  17   0.0000       0.143035         3.8922 
  18   0.0000       0.191790         5.2189 
  19   0.0000       0.192082         5.2268 
  20   0.0000       0.252768         6.8782 
  21   0.0000       0.266874         7.2620 
  22   0.0000       0.276159         7.5147 
  23   0.0000       0.279935         7.6174 
  24   0.0000       0.380833        10.3630 
  25   0.0000       0.389499        10.5988 
  26   0.0000       0.396810        10.7977 
  27   0.0000       0.417003        11.3472 
  28   0.0000       0.424479        11.5507 
  29   0.0000       0.473018        12.8715 
  30   0.0000       0.487559        13.2672 
  31   0.0000       0.513699        13.9785 
  32   0.0000       0.546070        14.8593 
  33   0.0000       0.667312        18.1585 
  34   0.0000       0.689760        18.7693 
  35   0.0000       0.733917        19.9709 
  36   0.0000       0.815461        22.1898 
  37   0.0000       0.850383        23.1401 
  38   0.0000       0.884737        24.0749 
  39   0.0000       0.911990        24.8165 
  40   0.0000       0.977712        26.6049 
  41   0.0000       1.023887        27.8614 
  42   0.0000       1.068608        29.0783 
  43   0.0000       1.082602        29.4591 
  44   0.0000       1.139216        30.9996 
  45   0.0000       1.357710        36.9452 
  46   0.0000       1.444649        39.3109 
  47   0.0000       1.474437        40.1215 
  48   0.0000       1.485751        40.4293 
  49   0.0000       1.514155        41.2022 
  50   0.0000       1.553092        42.2618 
  51   0.0000       1.612834        43.8874 
  52   0.0000       1.625113        44.2216 
  53   0.0000       1.647664        44.8352 
  54   0.0000       1.729161        47.0529 
  55   0.0000       1.775707        48.3194 
  56   0.0000       1.818155        49.4745 
  57   0.0000       1.882845        51.2348 
  58   0.0000       1.917469        52.1770 
  59   0.0000       1.925339        52.3911 
  60   0.0000       2.103921        57.2506 
  61   0.0000       2.143349        58.3235 
  62   0.0000       2.165742        58.9328 
  63   0.0000       2.169405        59.0325 
  64   0.0000       2.240087        60.9559 
  65   0.0000       2.350731        63.9666 
  66   0.0000       2.379303        64.7441 
  67   0.0000       2.428108        66.0722 
  68   0.0000       2.448947        66.6392 
  69   0.0000       2.506926        68.2169 
  70   0.0000       2.570911        69.9580 
  71   0.0000       2.629444        71.5508 
  72   0.0000       2.670615        72.6711 
  73   0.0000       2.690269        73.2059 
  74   0.0000       2.715310        73.8873 
  75   0.0000       2.805400        76.3388 
  76   0.0000       2.876222        78.2660 
  77   0.0000       2.916291        79.3563 
  78   0.0000       2.934404        79.8492 
  79   0.0000       3.022548        82.2477 
  80   0.0000       3.034411        82.5705 
  81   0.0000       3.082656        83.8833 
  82   0.0000       3.119142        84.8762 
  83   0.0000       3.162841        86.0653 
  84   0.0000       3.177019        86.4511 
  85   0.0000       3.264013        88.8183 
  86   0.0000       3.331701        90.6602 
  87   0.0000       3.372068        91.7586 
  88   0.0000       3.452606        93.9502 
  89   0.0000       3.500417        95.2512 
  90   0.0000       3.636040        98.9417 
  91   0.0000       3.663047        99.6766 
  92   0.0000       3.814293       103.7922 
  93   0.0000       3.879697       105.5719 
  94   0.0000       3.957540       107.6901 
  95   0.0000       4.046245       110.1039 
  96   0.0000       4.098169       111.5168 
  97   0.0000       4.251004       115.6757 
  98   0.0000       4.404482       119.8521 
  99   0.0000       4.610353       125.4541 
 100   0.0000       4.631779       126.0371 
 101   0.0000       4.777191       129.9940 
 102   0.0000       5.233634       142.4144 
 103   0.0000       5.308869       144.4617 
 104   0.0000       5.434265       147.8739 
 105   0.0000       5.559297       151.2762 
 106   0.0000       5.582809       151.9160 
 107   0.0000       5.598686       152.3480 
 108   0.0000       5.834503       158.7649 
 109   0.0000       6.470969       176.0840 
 110   0.0000       6.496149       176.7692 
 111   0.0000       6.695599       182.1965 
 112   0.0000       6.950622       189.1360 
 113   0.0000       7.120459       193.7575 
 114   0.0000      22.136559       602.3664 
 115   0.0000      22.211330       604.4010 
 116   0.0000      43.672511      1188.3894 

                    ********************************
                    * MULLIKEN POPULATION ANALYSIS *
                    ********************************

-----------------------
MULLIKEN ATOMIC CHARGES
-----------------------
   0 O :   -0.333976
   1 C :   -0.068214
   2 C :   -0.128594
   3 H :    0.104319
   4 H :    0.145061
   5 H :    0.129460
   6 H :    0.151944
Sum of atomic charges:    0.0000000

--------------------------------
MULLIKEN REDUCED ORBITAL CHARGES
--------------------------------
  0 O s       :     3.901536  s :     3.901536
      pz      :     1.886116  p :     4.404265
      px      :     1.364743
      py      :     1.153406
      dz2     :     0.004107  d :     0.026893
      dxz     :     0.001120
      dyz     :     0.004071
      dx2y2   :     0.007909
      dxy     :     0.009687
      f0      :     0.000139  f :     0.001283
      f+1     :     0.000105
      f-1     :     0.000328
      f+2     :     0.000064
      f-2     :     0.000084
      f+3     :     0.000294
      f-3     :     0.000270
  1 C s       :     3.241209  s :     3.241209
      pz      :     1.041825  p :     2.707945
      px      :     0.923797
      py      :     0.742323
      dz2     :     0.008348  d :     0.109479
      dxz     :     0.021798
      dyz     :     0.030017
      dx2y2   :     0.026440
      dxy     :     0.022876
      f0      :     0.001247  f :     0.009581
      f+1     :     0.001189
      f-1     :     0.000628
      f+2     :     0.001592
      f-2     :     0.000860
      f+3     :     0.001688
      f-3     :     0.002377
  2 C s       :     3.269551  s :     3.269551
      pz      :     1.036419  p :     2.762643
      px      :     0.940172
      py      :     0.786051
      dz2     :     0.010425  d :     0.088327
      dxz     :     0.022964
      dyz     :     0.017518
      dx2y2   :     0.018978
      dxy     :     0.018442
      f0      :     0.001035  f :     0.008073
      f+1     :     0.001291
      f-1     :     0.000368
      f+2     :     0.000919
      f-2     :     0.000932
      f+3     :     0.001708
      f-3     :     0.001819
  3 H s       :     0.878040  s :     0.878040
      pz      :     0.010166  p :     0.017641
      px      :     0.004617
      py      :     0.002857
  4 H s       :     0.833066  s :     0.833066
      pz      :     0.010146  p :     0.021873
      px      :     0.007826
      py      :     0.003901
  5 H s       :     0.853709  s :     0.853709
      pz      :     0.010013  p :     0.016831
      px      :     0.004217
      py      :     0.002601
  6 H s       :     0.822829  s :     0.822829
      pz      :     0.011151  p :     0.025227
      px      :     0.008156
      py      :     0.005920


                     *******************************
                     * LOEWDIN POPULATION ANALYSIS *
                     *******************************

----------------------
LOEWDIN ATOMIC CHARGES
----------------------
   0 O :   -0.051310
   1 C :   -0.270515
   2 C :   -0.149580
   3 H :    0.135172
   4 H :    0.109310
   5 H :    0.155509
   6 H :    0.071414

-------------------------------
LOEWDIN REDUCED ORBITAL CHARGES
-------------------------------
  0 O s       :     3.559319  s :     3.559319
      pz      :     1.818418  p :     4.434732
      px      :     1.359208
      py      :     1.257106
      dz2     :     0.009124  d :     0.054176
      dxz     :     0.002994
      dyz     :     0.007600
      dx2y2   :     0.018257
      dxy     :     0.016201
      f0      :     0.000238  f :     0.003084
      f+1     :     0.000125
      f-1     :     0.000627
      f+2     :     0.000159
      f-2     :     0.000318
      f+3     :     0.000722
      f-3     :     0.000894
  1 C s       :     2.869625  s :     2.869625
      pz      :     1.059882  p :     2.902271
      px      :     1.048596
      py      :     0.793793
      dz2     :     0.051050  d :     0.443180
      dxz     :     0.111245
      dyz     :     0.078909
      dx2y2   :     0.108319
      dxy     :     0.093658
      f0      :     0.006959  f :     0.055439
      f+1     :     0.004401
      f-1     :     0.005184
      f+2     :     0.008651
      f-2     :     0.003182
      f+3     :     0.011597
      f-3     :     0.015467
  2 C s       :     2.869559  s :     2.869559
      pz      :     1.067900  p :     2.900514
      px      :     1.053385
      py      :     0.779228
      dz2     :     0.047275  d :     0.339667
      dxz     :     0.104684
      dyz     :     0.042289
      dx2y2   :     0.074552
      dxy     :     0.070866
      f0      :     0.005140  f :     0.039841
      f+1     :     0.004587
      f-1     :     0.003150
      f+2     :     0.004657
      f-2     :     0.003210
      f+3     :     0.009364
      f-3     :     0.009732
  3 H s       :     0.817676  s :     0.817676
      pz      :     0.027965  p :     0.047152
      px      :     0.011593
      py      :     0.007594
  4 H s       :     0.823799  s :     0.823799
      pz      :     0.032487  p :     0.066891
      px      :     0.022237
      py      :     0.012168
  5 H s       :     0.800771  s :     0.800771
      pz      :     0.026683  p :     0.043720
      px      :     0.010321
      py      :     0.006716
  6 H s       :     0.839260  s :     0.839260
      pz      :     0.041446  p :     0.089326
      px      :     0.027306
      py      :     0.020573


                      *****************************
                      * MAYER POPULATION ANALYSIS *
                      *****************************

  NA   - Mulliken gross atomic population
  ZA   - Total nuclear charge
  QA   - Mulliken gross atomic charge
  VA   - Mayer's total valence
  BVA  - Mayer's bonded valence
  FA   - Mayer's free valence

  ATOM       NA         ZA         QA         VA         BVA        FA
  0 O      8.3340     8.0000    -0.3340     1.9552     1.9552    -0.0000
  1 C      6.0682     6.0000    -0.0682     3.9594     3.9594    -0.0000
  2 C      6.1286     6.0000    -0.1286     3.9490     3.9490    -0.0000
  3 H      0.8957     1.0000     0.1043     0.9621     0.9621     0.0000
  4 H      0.8549     1.0000     0.1451     0.9499     0.9499    -0.0000
  5 H      0.8705     1.0000     0.1295     0.9637     0.9637     0.0000
  6 H      0.8481     1.0000     0.1519     0.9463     0.9463     0.0000

  Mayer bond orders larger than 0.100000
B(  0-O ,  1-C ) :   0.9815 B(  0-O ,  2-C ) :   0.9570 B(  1-C ,  2-C ) :   1.0804 
B(  1-C ,  3-H ) :   0.9481 B(  1-C ,  4-H ) :   0.9397 B(  2-C ,  5-H ) :   0.9511 
B(  2-C ,  6-H ) :   0.9442 

-------
TIMINGS
-------

Total SCF time: 0 days 0 hours 0 min 0 sec 

Total time                  ....       0.980 sec
Sum of individual times     ....       0.890 sec  ( 90.9%)

Fock matrix formation       ....       0.679 sec  ( 69.3%)
  Split-RI-J                ....       0.114 sec  ( 16.8% of F)
  Chain of spheres X        ....       0.501 sec  ( 73.8% of F)
  XC integration            ....       0.062 sec  (  9.1% of F)
    Basis function eval.    ....       0.017 sec  ( 27.5% of XC)
    Density eval.           ....       0.013 sec  ( 21.6% of XC)
    XC-Functional eval.     ....       0.004 sec  (  6.0% of XC)
    XC-Potential eval.      ....       0.021 sec  ( 34.0% of XC)
Diagonalization             ....       0.002 sec  (  0.2%)
Density matrix formation    ....       0.001 sec  (  0.1%)
Population analysis         ....       0.003 sec  (  0.3%)
Initial guess               ....       0.009 sec  (  0.9%)
Orbital Transformation      ....       0.000 sec  (  0.0%)
Orbital Orthonormalization  ....       0.001 sec  (  0.1%)
DIIS solution               ....       0.001 sec  (  0.1%)
SOSCF solution              ....       0.002 sec  (  0.2%)
Grid generation             ....       0.194 sec  ( 19.8%)

Maximum memory used throughout the entire SCF-calculation: 61.1 MB


           ************************************************************
           *        Program running with 8 parallel MPI-processes     *
           *              working on a common directory               *
           ************************************************************
------------------------------------------------------------------------------
                        ORCA TD-DFT/TDA CALCULATION
------------------------------------------------------------------------------

Input orbitals are from        ... ox_es1_B_orca0008.gbw
CI-vector output               ... ox_es1_B_orca0008.cis
Tamm-Dancoff approximation     ... operative
CIS-Integral strategy          ... AO-integrals
Integral handling              ... AO integral Direct
Max. core memory used          ... 3000 MB
Reference state                ... RHF
Generation of triplets         ... off
Follow IRoot                   ... off
Number of operators            ... 1
Orbital ranges used for CIS calculation:
 Operator 0:  Orbitals   3... 11  to  12...116
XAS localization array:
 Operator 0:  Orbitals  -1... -1

-------------------
XC-INTEGRATION GRID
-------------------

General Integration Accuracy     IntAcc      ... 3.467
Radial Grid Type                 RadialGrid  ... OptM3 with GC (2021)
Angular Grid (max. ang.)         AngularGrid ... 1 (Lebedev-50)
Angular grid pruning method      GridPruning ... 4 (adaptive)
Weight generation scheme         WeightScheme... Becke
Basis function cutoff            BFCut       ... 1.0000e-11
Integration weight cutoff        WCut        ... 1.0000e-14
Angular grids for H and He will be reduced by one unit
Partially contracted basis set               ... off
Rotationally invariant grid construction     ... off

Total number of grid points                  ...     4547
Total number of batches                      ...       75
Average number of points per batch           ...       60
Average number of grid points per atom       ...      650

---------------------
COSX-INTEGRATION GRID
---------------------

General Integration Accuracy     IntAcc      ... 3.067
Radial Grid Type                 RadialGrid  ... OptM3 with GC (2021)
Angular Grid (max. ang.)         AngularGrid ... 1 (Lebedev-50)
Angular grid pruning method      GridPruning ... 4 (adaptive)
Weight generation scheme         WeightScheme... Becke
Basis function cutoff            BFCut       ... 1.0000e-11
Integration weight cutoff        WCut        ... 1.0000e-14
Angular grids for H and He will be reduced by one unit
Partially contracted basis set               ... on
Rotationally invariant grid construction     ... off

Total number of grid points                  ...     2090
Total number of batches                      ...       38
Average number of points per batch           ...       55
Average number of grid points per atom       ...      299

---------------
TD-DFT XC SETUP
---------------

DFT calculation                         ... on
Name of the grid file                   ... ox_es1_B_orca0008.grid_cis.tmp
Exchange functional (TD-DFT)            ... PBE
   PBE kappa parameter  XKappa (TD-DFT) ...  0.804000
   PBE mue parameter   XMuePBE (TD-DFT) ...  0.219520
Correlation functional (TD-DFT)         ... PBE
   PBE beta parameter CBetaPBE (TD-DFT) ...  0.066725
 LDA part of GGA corr.  LDAOpt (TD-DFT) ... PW91-LDA
Hybrid DFT                              ... on
   Exchange mixing (TD-DFT)             ...  0.250
   GGA exch. scaling (TD-DFT)           ...  0.750
   GGA corr. scaling (TD-DFT)           ...  1.000

Building densities             ... done
Calculating rho(r) on the grid ... done
Building xc-kernel on the grid ... done
                    *** TD-DFT CALCULATION INITIALIZED ***

------------------------
DAVIDSON-DIAGONALIZATION
------------------------

Dimension of the eigenvalue problem            ...    945
Number of roots to be determined               ...      1
Maximum size of the expansion space            ...     10
Maximum number of iterations                   ...    100
Convergence tolerance for the residual         ...    2.500e-07
Convergence tolerance for the energies         ...    2.500e-07
Orthogonality tolerance                        ...    1.000e-14
Level Shift                                    ...    0.000e+00
Constructing the preconditioner                ... o.k.
Building the initial guess                     ... o.k.
Number of trial vectors determined             ...     10


                       ****Iteration    0****

   Memory handling for direct AO based CIS:
   Memory per vector needed      ...     1 MB
   Memory needed                 ...     1 MB
   Memory available              ...  3000 MB
   Number of vectors per batch   ...  3000
   Number of batches             ...     1
   Time for densities:            0.000
   Time for RI-J (Direct):        0.016
   Time for K (COSX):             0.055
   Time for XC-Integration:       0.016
   Time for Sigma-Completion:     0.000
   Size of expansion space: 3
   Lowest Energy          :     0.208579645937
   Maximum Energy change  :     0.208579645937 (vector 0)
   Maximum residual norm  :     0.004461020968

                       ****Iteration    1****
   Time for densities:            0.000
   Time for RI-J (Direct):        0.012
   Time for K (COSX):             0.049
   Time for XC-Integration:       0.006
   Time for Sigma-Completion:     0.000
   Size of expansion space: 4
   Lowest Energy          :     0.204792824191
   Maximum Energy change  :     0.003786821746 (vector 0)
   Maximum residual norm  :     0.000187540726

                       ****Iteration    2****
   Time for densities:            0.000
   Time for RI-J (Direct):        0.012
   Time for K (COSX):             0.049
   Time for XC-Integration:       0.006
   Time for Sigma-Completion:     0.000
   Size of expansion space: 5
   Lowest Energy          :     0.204634672264
   Maximum Energy change  :     0.000158151927 (vector 0)
   Maximum residual norm  :     0.000010236488

                       ****Iteration    3****
   Time for densities:            0.000
   Time for RI-J (Direct):        0.012
   Time for K (COSX):             0.049
   Time for XC-Integration:       0.006
   Time for Sigma-Completion:     0.000
   Size of expansion space: 6
   Lowest Energy          :     0.204623773503
   Maximum Energy change  :     0.000010898761 (vector 0)
   Maximum residual norm  :     0.000001549223

                       ****Iteration    4****
   Time for densities:            0.000
   Time for RI-J (Direct):        0.012
   Time for K (COSX):             0.049
   Time for XC-Integration:       0.007
   Time for Sigma-Completion:     0.000
   Size of expansion space: 7
   Lowest Energy          :     0.204620906878
   Maximum Energy change  :     0.000002866625 (vector 0)
   Maximum residual norm  :     0.000000410974

                       ****Iteration    5****
   Time for densities:            0.000
   Time for RI-J (Direct):        0.012
   Time for K (COSX):             0.050
   Time for XC-Integration:       0.007
   Time for Sigma-Completion:     0.000
   Size of expansion space: 8
   Lowest Energy          :     0.204620304704
   Maximum Energy change  :     0.000000602174 (vector 0)
   Maximum residual norm  :     0.000000037816

      *** CONVERGENCE OF RESIDUAL NORM REACHED ***

Storing the converged CI vectors               ... ox_es1_B_orca0008.cis1

                 *** DAVIDSON DONE ***

Total time for solving the CIS problem:     0.434sec

------------------------------------
TD-DFT/TDA EXCITED STATES (SINGLETS)
------------------------------------

the weight of the individual excitations are printed if larger than 1.0e-02

STATE  1:  E=   0.204620 au      5.568 eV    44909.0 cm**-1 <S**2> =   0.000000
    11a ->  12a  :     0.978543 (c=  0.98921318)


-----------------------------
TD-DFT/TDA-EXCITATION SPECTRA
-----------------------------

Center of mass = ( -0.1528,  0.0297,  0.0201)
Calculating the Dipole integrals                  ... done
Transforming integrals                            ... done
Calculating the Linear Momentum integrals         ... done
Transforming integrals                            ... done
Calculating angular momentum integrals            ... done
Transforming integrals                            ... done

-----------------------------------------------------------------------------
         ABSORPTION SPECTRUM VIA TRANSITION ELECTRIC DIPOLE MOMENTS
-----------------------------------------------------------------------------
State   Energy    Wavelength  fosc         T2        TX        TY        TZ  
        (cm-1)      (nm)                 (au**2)    (au)      (au)      (au) 
-----------------------------------------------------------------------------
   1   44909.0    222.7   0.003918184   0.02872  -0.07337   0.03666   0.14831

-----------------------------------------------------------------------------
         ABSORPTION SPECTRUM VIA TRANSITION VELOCITY DIPOLE MOMENTS
-----------------------------------------------------------------------------
State   Energy    Wavelength   fosc        P2         PX        PY        PZ  
        (cm-1)      (nm)                 (au**2)     (au)      (au)      (au) 
-----------------------------------------------------------------------------
   1   44909.0    222.7   0.017030912   0.00523   0.01187   0.00163  -0.07130

-------------------------------------------------------------------
                             CD SPECTRUM
-------------------------------------------------------------------
State  Energy     Wavelength     R         MX        MY        MZ   
       (cm-1)       (nm)     (1e40*cgs)   (au)      (au)      (au)  
-------------------------------------------------------------------
   1   44909.0    222.7     -4.90308   0.03808  -0.17391  -0.00829

-------------------------------------------------------------------
         CD SPECTRUM VIA TRANSITION VELOCITY DIPOLE MOMENTS        
-------------------------------------------------------------------
State  Energy     Wavelength     R         MX        MY        MZ   
       (cm-1)       (nm)     (1e40*cgs)   (au)      (au)      (au)  
-------------------------------------------------------------------
   1   44909.0    222.7      1.75190   0.03808  -0.17391  -0.00829

Total run time:        0.698 sec

           *** ORCA-CIS/TD-DFT FINISHED WITHOUT ERROR ***

Maximum memory used throughout the entire CIS-calculation: 49.4 MB

-----------------------
CIS/TD-DFT TOTAL ENERGY
-----------------------

    E(SCF)  =   -153.605933258 Eh
    DE(CIS) =      0.204620305 Eh (Root  1)
    ----------------------------- ---------
    E(tot)  =   -153.401312953 Eh



-------------------------------------------------------------------------------
                          DFT DISPERSION CORRECTION                            
                                                                               
                              DFTD3 V3.1  Rev 1                                
                          USING Becke-Johnson damping                          
-------------------------------------------------------------------------------
The PBE0 functional is recognized
Active option DFTDOPT                   ...         4   

molecular C6(AA) [au] = 355.409560 


            DFT-D V3
 parameters
 s6 scaling factor         :     1.0000 
 a1 scaling factor         :     0.4145 
 s8 scaling factor         :     1.2177 
 a2 scaling factor         :     4.8593 
 ad hoc parameters k1-k3   :    16.0000     1.3333    -4.0000 

 Edisp/kcal,au: -1.517102926695  -0.002417657147 
 E6   /kcal   :  -0.993229422 
 E8   /kcal   :  -0.523873505 
 % E8         :  34.531177518 

-------------------------   ----------------
Dispersion correction           -0.002417657
-------------------------   ----------------


-------------------------   --------------------
FINAL SINGLE POINT ENERGY      -153.403730610581
-------------------------   --------------------



           ************************************************************
           *        Program running with 8 parallel MPI-processes     *
           *              working on a common directory               *
           ************************************************************
------------------------------------------------------------------------------
                         ORCA SCF GRADIENT CALCULATION
------------------------------------------------------------------------------


------------------------
TD-DFT GRADIENT XC SETUP
------------------------

Building densities                     ... done
Calculating rho(r) on the grid         ... done
Building xc-kernel on the grid         ... done
Building xc 3rd derivative on the grid      ... done
                *** TD-DFT GRADIENT CALCULATION INITIALIZED ***

-------------------
TD-DFT/TDA GRADIENT
-------------------

Reference wavefunction             ... RHF
State of interest                  ... 1
Basis dimension                    ... 117
DFT-XC contribution needed         ... YES
RI-approximation                   ... ON
CIS-vectors being read from        ... ox_es1_B_orca0008.cis

 => Number of Vectors found: 1
 => Orbital Window: 3...11 -> 12...116

Reading the CIS file                     ... done
Norm of the CI vector                    ... 1.000000000
Making the CIS (pseudo)densities         ... done
Making operators G(D) and Q(T)           ... done
Transforming the Fock operators          ... done
Making the frozen-core relaxed density   ... done
Constructing the G(H) operator           ... done
Transforming the G(H) operator           ... done
Calculating the CIS Lagrangian           ... done
Solving the Z-vector equations           ... done
Finalizing the relaxed density           ... done
Storing the relaxed density              ... done
Constructing the G(Z) operator           ... done
Transforming the G(Z) operator           ... done
Making the W-matrix                      ... done
Finalizing the W-matrix                  ... done
Transforming the W-matrix                ... done
Nuclear repulsion gradient               ... done
One-Electron gradient                    ... done
Dispersion correction                    ... done
Prescreening matrices                    ... done
COSX-gradient                            ... done
Coulomb gradient (RI)                    ... done
Exchange-Correlation gradient            ... done

                 ---------------------------
                 EXCITED STATE GRADIENT DONE
                 ---------------------------

------------------
CARTESIAN GRADIENT
------------------

   1   O   :    0.102310804   -0.060327873    0.011495754
   2   C   :   -0.061370265   -0.039215712   -0.088400332
   3   C   :    0.013991209    0.094037692    0.195188905
   4   H   :   -0.009707430   -0.016428447    0.043878757
   5   H   :    0.001141175   -0.000948271    0.012697461
   6   H   :    0.016501972   -0.011277309   -0.064188809
   7   H   :   -0.062861119    0.034173937   -0.110632778

Difference to translation invariance:
           :    0.0000063456    0.0000140182    0.0000389575

Difference to rotation invariance:
           :    0.0001726571    0.0000066022    0.0000686597

Norm of the cartesian gradient     ...    0.3143676860
RMS gradient                       ...    0.0686006532
MAX gradient                       ...    0.1951889051

------------------------------------------------------------------------------
                  RELAXED CIS/TDA DENSITY POPULATION ANALYSIS
                                   IROOT 1
------------------------------------------------------------------------------
------------------------------------------------------------------------------
                           ORCA POPULATION ANALYSIS
------------------------------------------------------------------------------
Input electron density              ... ox_es1_B_orca0008.cisp
BaseName (.gbw .S,...)              ... ox_es1_B_orca0008

                    ********************************
                    * MULLIKEN POPULATION ANALYSIS *
                    ********************************

-----------------------
MULLIKEN ATOMIC CHARGES
-----------------------
   0 O :   -0.001280
   1 C :   -0.113130
   2 C :   -0.496232
   3 H :    0.152326
   4 H :    0.169174
   5 H :    0.131576
   6 H :    0.157566
Sum of atomic charges:    0.0000000

--------------------------------
MULLIKEN REDUCED ORBITAL CHARGES
--------------------------------
  0 O s       :     3.839535  s :     3.839535
      pz      :     1.064449  p :     4.137701
      px      :     1.643791
      py      :     1.429461
      dz2     :     0.002541  d :     0.023395
      dxz     :     0.001282
      dyz     :     0.003792
      dx2y2   :     0.006888
      dxy     :     0.008893
      f0      :    -0.000020  f :     0.000648
      f+1     :    -0.000067
      f-1     :     0.000050
      f+2     :     0.000070
      f-2     :     0.000074
      f+3     :     0.000295
      f-3     :     0.000246
  1 C s       :     3.252041  s :     3.252041
      pz      :     1.039484  p :     2.761680
      px      :     0.997774
      py      :     0.724422
      dz2     :     0.009189  d :     0.090395
      dxz     :     0.022132
      dyz     :     0.010967
      dx2y2   :     0.026721
      dxy     :     0.021387
      f0      :     0.000744  f :     0.009014
      f+1     :     0.001250
      f-1     :     0.000543
      f+2     :     0.000969
      f-2     :     0.000635
      f+3     :     0.002541
      f-3     :     0.002332
  2 C s       :     3.311519  s :     3.311519
      pz      :     1.045600  p :     3.100292
      px      :     0.863784
      py      :     1.190907
      dz2     :     0.011751  d :     0.076787
      dxz     :     0.014115
      dyz     :     0.003788
      dx2y2   :     0.023275
      dxy     :     0.023858
      f0      :     0.000746  f :     0.007634
      f+1     :     0.001153
      f-1     :     0.000649
      f+2     :     0.000777
      f-2     :     0.000541
      f+3     :     0.002321
      f-3     :     0.001448
  3 H s       :     0.829488  s :     0.829488
      pz      :     0.010419  p :     0.018187
      px      :     0.004966
      py      :     0.002802
  4 H s       :     0.808521  s :     0.808521
      pz      :     0.010422  p :     0.022305
      px      :     0.008095
      py      :     0.003788
  5 H s       :     0.849978  s :     0.849978
      pz      :     0.008950  p :     0.018446
      px      :     0.004207
      py      :     0.005289
  6 H s       :     0.812132  s :     0.812132
      pz      :     0.010110  p :     0.030302
      px      :     0.007601
      py      :     0.012591


                     *******************************
                     * LOEWDIN POPULATION ANALYSIS *
                     *******************************

----------------------
LOEWDIN ATOMIC CHARGES
----------------------
   0 O :    0.195367
   1 C :   -0.262885
   2 C :   -0.434578
   3 H :    0.168817
   4 H :    0.123834
   5 H :    0.148017
   6 H :    0.061428

-------------------------------
LOEWDIN REDUCED ORBITAL CHARGES
-------------------------------
  0 O s       :     3.606411  s :     3.606411
      pz      :     1.033469  p :     4.128593
      px      :     1.610976
      py      :     1.484148
      dz2     :     0.011808  d :     0.066650
      dxz     :     0.003530
      dyz     :     0.007916
      dx2y2   :     0.018905
      dxy     :     0.024490
      f0      :     0.000233  f :     0.002980
      f+1     :     0.000048
      f-1     :     0.000488
      f+2     :     0.000165
      f-2     :     0.000325
      f+3     :     0.000856
      f-3     :     0.000866
  1 C s       :     2.876675  s :     2.876675
      pz      :     1.041968  p :     2.932652
      px      :     1.102340
      py      :     0.788345
      dz2     :     0.052776  d :     0.396046
      dxz     :     0.106544
      dyz     :     0.036115
      dx2y2   :     0.114504
      dxy     :     0.086107
      f0      :     0.004878  f :     0.057512
      f+1     :     0.004386
      f-1     :     0.005413
      f+2     :     0.006048
      f-2     :     0.002531
      f+3     :     0.018536
      f-3     :     0.015720
  2 C s       :     2.885493  s :     2.885493
      pz      :     1.059413  p :     3.114337
      px      :     1.015726
      py      :     1.039197
      dz2     :     0.060564  d :     0.387750
      dxz     :     0.092204
      dyz     :     0.017956
      dx2y2   :     0.096668
      dxy     :     0.120359
      f0      :     0.004401  f :     0.046997
      f+1     :     0.005232
      f-1     :     0.005514
      f+2     :     0.003875
      f-2     :     0.002355
      f+3     :     0.016435
      f-3     :     0.009187
  3 H s       :     0.782709  s :     0.782709
      pz      :     0.028382  p :     0.048473
      px      :     0.012727
      py      :     0.007364
  4 H s       :     0.808366  s :     0.808366
      pz      :     0.033032  p :     0.067800
      px      :     0.023195
      py      :     0.011572
  5 H s       :     0.804120  s :     0.804120
      pz      :     0.023838  p :     0.047863
      px      :     0.010277
      py      :     0.013747
  6 H s       :     0.836000  s :     0.836000
      pz      :     0.038631  p :     0.102572
      px      :     0.026145
      py      :     0.037796


                      *****************************
                      * MAYER POPULATION ANALYSIS *
                      *****************************

  NA   - Mulliken gross atomic population
  ZA   - Total nuclear charge
  QA   - Mulliken gross atomic charge
  VA   - Mayer's total valence
  BVA  - Mayer's bonded valence
  FA   - Mayer's free valence

  ATOM       NA         ZA         QA         VA         BVA        FA
  0 O      8.0013     8.0000    -0.0013     1.8856     1.0005     0.8851
  1 C      6.1131     6.0000    -0.1131     3.8938     3.8177     0.0761
  2 C      6.4962     6.0000    -0.4962     3.9469     3.1283     0.8186
  3 H      0.8477     1.0000     0.1523     0.9619     0.9227     0.0392
  4 H      0.8308     1.0000     0.1692     0.9535     0.9390     0.0145
  5 H      0.8684     1.0000     0.1316     0.9782     0.9637     0.0145
  6 H      0.8424     1.0000     0.1576     0.9891     0.9703     0.0188

  Mayer bond orders larger than 0.100000
B(  0-O ,  1-C ) :   0.8934 B(  1-C ,  2-C ) :   1.1054 B(  1-C ,  3-H ) :   0.9024 
B(  1-C ,  4-H ) :   0.9242 B(  2-C ,  5-H ) :   0.9536 B(  2-C ,  6-H ) :   0.9647 



-------
TIMINGS
-------

Total TD-DFT gradient time         ...        4.903 sec

Fock matrix formation       ....       0.822 sec  ( 16.8%)
  Coulomb formation         ....       0.670 sec  ( 81.5% of F)
  RI-J                      ....       0.297 sec  ( 36.2% of F)
  Chain of spheres X        ....       0.372 sec  ( 45.3% of F)
  XC integration            ....       0.152 sec  ( 18.5% of F)
Z-vector equation           ....       1.366 sec  ( 27.9%)
One electron gradient       ....       0.031 sec  (  0.6%)
Prescreening matrices       ....       0.152 sec  (  3.1%)
RI-J Coulomb gradient       ....       0.243 sec  (  5.0%)
COSX gradient               ....       0.338 sec  (  6.9%)
XC gradient                 ....       1.617 sec  ( 33.0%)

Maximum memory used throughout the entire SCFGRAD-calculation: 130.3 MB

                            ***************************************
                            *     ORCA property calculations      *
                            ***************************************

                                    ---------------------
                                    Active property flags
                                    ---------------------
   (+) Dipole Moment


------------------------------------------------------------------------------
                       ORCA ELECTRIC PROPERTIES CALCULATION
------------------------------------------------------------------------------

Dipole Moment Calculation                       ... on
Quadrupole Moment Calculation                   ... off
Polarizability Calculation                      ... off
GBWName                                         ... ox_es1_B_orca0008.gbw
Electron density                                ... ox_es1_B_orca0008.scfp
The origin for moment calculation is the CENTER OF MASS  = (-0.152769,  0.029664  0.020130)

-------------
DIPOLE MOMENT
-------------
                                X             Y             Z
Electronic contribution:     -0.04322       1.63228       0.04656
Nuclear contribution   :      0.14987      -2.65057      -0.04382
                        -----------------------------------------
Total Dipole Moment    :      0.10665      -1.01829       0.00274
                        -----------------------------------------
Magnitude (a.u.)       :      1.02386
Magnitude (Debye)      :      2.60244



--------------------
Rotational spectrum 
--------------------
 
Rotational constants in cm-1:     0.754351     0.630977     0.404210 
Rotational constants in MHz : 22614.885600 18916.202090 12117.920073 

 Dipole components along the rotational axes: 
x,y,z [a.u.] :    -0.860490    -0.554556    -0.017642 
x,y,z [Debye]:    -2.187193    -1.409568    -0.044843 

 

                        *** CIS RELAXED DENSITY ***

------------------------------------------------------------------------------
                       ORCA ELECTRIC PROPERTIES CALCULATION
------------------------------------------------------------------------------

Dipole Moment Calculation                       ... on
Quadrupole Moment Calculation                   ... off
Polarizability Calculation                      ... off
GBWName                                         ... ox_es1_B_orca0008.gbw
Electron density                                ... ox_es1_B_orca0008.cisp
The origin for moment calculation is the CENTER OF MASS  = (-0.152769,  0.029664  0.020130)

-------------
DIPOLE MOMENT
-------------
                                X             Y             Z
Electronic contribution:     -0.76053       2.26392       0.01481
Nuclear contribution   :      0.14987      -2.65057      -0.04382
                        -----------------------------------------
Total Dipole Moment    :     -0.61066      -0.38665      -0.02902
                        -----------------------------------------
Magnitude (a.u.)       :      0.72336
Magnitude (Debye)      :      1.83864



--------------------
Rotational spectrum 
--------------------
 
Rotational constants in cm-1:     0.754351     0.630977     0.404210 
Rotational constants in MHz : 22614.885600 18916.202090 12117.920073 

 Dipole components along the rotational axes: 
x,y,z [a.u.] :     0.081027    -0.718631     0.015925 
x,y,z [Debye]:     0.205953    -1.826616     0.040479 

 

Timings for individual modules:

Sum of individual times         ...        7.330 sec (=   0.122 min)
GTO integral calculation        ...        0.249 sec (=   0.004 min)   3.4 %
SCF iterations                  ...        1.143 sec (=   0.019 min)  15.6 %
CIS module                      ...        0.874 sec (=   0.015 min)  11.9 %
SCF Gradient evaluation         ...        5.065 sec (=   0.084 min)  69.1 %
                             ****ORCA TERMINATED NORMALLY****
TOTAL RUN TIME: 0 days 0 hours 0 minutes 7 seconds 684 msec
