
                                 *****************
                                 * O   R   C   A *
                                 *****************

                                            #,                                       
                                            ###                                      
                                            ####                                     
                                            #####                                    
                                            ######                                   
                                           ########,                                 
                                     ,,################,,,,,                         
                               ,,#################################,,                 
                          ,,##########################################,,             
                       ,#########################################, ''#####,          
                    ,#############################################,,   '####,        
                  ,##################################################,,,,####,       
                ,###########''''           ''''###############################       
              ,#####''   ,,,,##########,,,,          '''####'''          '####       
            ,##' ,,,,###########################,,,                        '##       
           ' ,,###''''                  '''############,,,                           
         ,,##''                                '''############,,,,        ,,,,,,###''
      ,#''                                            '''#######################'''  
     '                                                          ''''####''''         
             ,#######,   #######,   ,#######,      ##                                
            ,#'     '#,  ##    ##  ,#'     '#,    #''#        ######   ,####,        
            ##       ##  ##   ,#'  ##            #'  '#       #        #'  '#        
            ##       ##  #######   ##           ,######,      #####,   #    #        
            '#,     ,#'  ##    ##  '#,     ,#' ,#      #,         ##   #,  ,#        
             '#######'   ##     ##  '#######'  #'      '#     #####' # '####'        



                  #######################################################
                  #                        -***-                        #
                  #          Department of theory and spectroscopy      #
                  #    Directorship and core code : Frank Neese         #
                  #        Max Planck Institute fuer Kohlenforschung    #
                  #                Kaiser Wilhelm Platz 1               #
                  #                 D-45470 Muelheim/Ruhr               #
                  #                      Germany                        #
                  #                                                     #
                  #                  All rights reserved                #
                  #                        -***-                        #
                  #######################################################


                         Program Version 5.0.2 -  RELEASE  -


 With contributions from (in alphabetic order):
   Daniel Aravena         : Magnetic Suceptibility
   Michael Atanasov       : Ab Initio Ligand Field Theory (pilot matlab implementation)
   Alexander A. Auer      : GIAO ZORA, VPT2 properties, NMR spectrum
   Ute Becker             : Parallelization
   Giovanni Bistoni       : ED, misc. LED, open-shell LED, HFLD
   Martin Brehm           : Molecular dynamics
   Dmytro Bykov           : SCF Hessian
   Vijay G. Chilkuri      : MRCI spin determinant printing, contributions to CSF-ICE
   Dipayan Datta          : RHF DLPNO-CCSD density
   Achintya Kumar Dutta   : EOM-CC, STEOM-CC
   Dmitry Ganyushin       : Spin-Orbit,Spin-Spin,Magnetic field MRCI
   Miquel Garcia          : C-PCM and meta-GGA Hessian, CC/C-PCM, Gaussian charge scheme
   Yang Guo               : DLPNO-NEVPT2, F12-NEVPT2, CIM, IAO-localization
   Andreas Hansen         : Spin unrestricted coupled pair/coupled cluster methods
   Benjamin Helmich-Paris : MC-RPA, TRAH-SCF, COSX integrals
   Lee Huntington         : MR-EOM, pCC
   Robert Izsak           : Overlap fitted RIJCOSX, COSX-SCS-MP3, EOM
   Marcus Kettner         : VPT2
   Christian Kollmar      : KDIIS, OOCD, Brueckner-CCSD(T), CCSD density, CASPT2, CASPT2-K
   Simone Kossmann        : Meta GGA functionals, TD-DFT gradient, OOMP2, MP2 Hessian
   Martin Krupicka        : Initial AUTO-CI
   Lucas Lang             : DCDCAS
   Marvin Lechner         : AUTO-CI (C++ implementation), FIC-MRCC
   Dagmar Lenk            : GEPOL surface, SMD
   Dimitrios Liakos       : Extrapolation schemes; Compound Job, initial MDCI parallelization
   Dimitrios Manganas     : Further ROCIS development; embedding schemes
   Dimitrios Pantazis     : SARC Basis sets
   Anastasios Papadopoulos: AUTO-CI, single reference methods and gradients
   Taras Petrenko         : DFT Hessian,TD-DFT gradient, ASA, ECA, R-Raman, ABS, FL, XAS/XES, NRVS
   Peter Pinski           : DLPNO-MP2, DLPNO-MP2 Gradient
   Christoph Reimann      : Effective Core Potentials
   Marius Retegan         : Local ZFS, SOC
   Christoph Riplinger    : Optimizer, TS searches, QM/MM, DLPNO-CCSD(T), (RO)-DLPNO pert. Triples
   Tobias Risthaus        : Range-separated hybrids, TD-DFT gradient, RPA, STAB
   Michael Roemelt        : Original ROCIS implementation
   Masaaki Saitow         : Open-shell DLPNO-CCSD energy and density
   Barbara Sandhoefer     : DKH picture change effects
   Avijit Sen             : IP-ROCIS
   Kantharuban Sivalingam : CASSCF convergence, NEVPT2, FIC-MRCI
   Bernardo de Souza      : ESD, SOC TD-DFT
   Georgi Stoychev        : AutoAux, RI-MP2 NMR, DLPNO-MP2 response
   Willem Van den Heuvel  : Paramagnetic NMR
   Boris Wezisla          : Elementary symmetry handling
   Frank Wennmohs         : Technical directorship


 We gratefully acknowledge several colleagues who have allowed us to
 interface, adapt or use parts of their codes:
   Stefan Grimme, W. Hujo, H. Kruse, P. Pracht,  : VdW corrections, initial TS optimization,
                  C. Bannwarth, S. Ehlert          DFT functionals, gCP, sTDA/sTD-DF
   Ed Valeev, F. Pavosevic, A. Kumar             : LibInt (2-el integral package), F12 methods
   Garnet Chan, S. Sharma, J. Yang, R. Olivares  : DMRG
   Ulf Ekstrom                                   : XCFun DFT Library
   Mihaly Kallay                                 : mrcc  (arbitrary order and MRCC methods)
   Jiri Pittner, Ondrej Demel                    : Mk-CCSD
   Frank Weinhold                                : gennbo (NPA and NBO analysis)
   Christopher J. Cramer and Donald G. Truhlar   : smd solvation model
   Lars Goerigk                                  : TD-DFT with DH, B97 family of functionals
   V. Asgeirsson, H. Jonsson                     : NEB implementation
   FAccTs GmbH                                   : IRC, NEB, NEB-TS, DLPNO-Multilevel, CI-OPT
                                                   MM, QMMM, 2- and 3-layer-ONIOM, Crystal-QMMM,
                                                   LR-CPCM, SF, NACMEs, symmetry and pop. for TD-DFT,
                                                   nearIR, NL-DFT gradient (VV10), updates on ESD,
                                                   ML-optimized integration grids
   S Lehtola, MJT Oliveira, MAL Marques          : LibXC Library
   Liviu Ungur et al                             : ANISO software


 Your calculation uses the libint2 library for the computation of 2-el integrals
 For citations please refer to: http://libint.valeyev.net

 Your ORCA version has been built with support for libXC version: 5.1.0
 For citations please refer to: https://tddft.org/programs/libxc/

 This ORCA versions uses:
   CBLAS   interface :  Fast vector & matrix operations
   LAPACKE interface :  Fast linear algebra routines
   SCALAPACK package :  Parallel linear algebra routines
   Shared memory     :  Shared parallel matrices
   BLAS/LAPACK       :  OpenBLAS 0.3.15  USE64BITINT DYNAMIC_ARCH NO_AFFINITY SkylakeX SINGLE_THREADED
        Core in use  :  SkylakeX
   Copyright (c) 2011-2014, The OpenBLAS Project


Your calculation utilizes the atom-pairwise dispersion correction
with the Becke-Johnson damping scheme (D3BJ)
Cite in your paper:
S.Grimme, S.Ehrlich, L.Goerigk, J Comput Chem, (2011), 32, 1456–1465 
S.Grimme, J.Antony, S.Ehrlich and H.Krieg, J.Chem.Phys., 132, (2010), 154104 
   

================================================================================

----- Orbital basis set information -----
Your calculation utilizes the basis: def2-TZVP
   F. Weigend and R. Ahlrichs, Phys. Chem. Chem. Phys. 7, 3297 (2005).

----- AuxJ basis set information -----
Your calculation utilizes the auxiliary basis: def2/J
   F. Weigend, Phys. Chem. Chem. Phys. 8, 1057 (2006).

================================================================================
                                        WARNINGS
                       Please study these warnings very carefully!
================================================================================

INFO   : Checking CIS options ...

WARNING: CIS/ROCIS methods need fully converged wavefunctions
  ===> : Setting SCFConvForced true
         You can overwrite this default with %scf ConvForced false 


INFO   : the flag for use of the SHARK integral package has been found!

================================================================================
                                       INPUT FILE
================================================================================
NAME = ox_es1_G_orca0002.inp
|  1> ! engrad PBE0 D3BJ def2-TZVP  
|  2> %pal nprocs 8 end
|  3> %maxcore 3000
|  4> 
|  5> %tddft
|  6>   nroots 1
|  7>   tda true
|  8>   Iroot 1
|  9>   end 
| 10> *xyz 0 1 
| 11> O   -1.498518805196227 0.6775812969974746 -0.00046941319974445585
| 12> C   -0.71722755178905 -0.4036668794915892 -0.03887216429634098
| 13> C   0.7540872205663848 -0.46209020646404875 -0.10793131130675837
| 14> H   -1.198993972261375 -0.619436677193865 0.8763771508659587
| 15> H   -1.312168492470044 -0.6678567172945842 -0.9049054630755884
| 16> H   1.2144087496102638 -0.7239920705212731 -0.960882480195088
| 17> H   1.337817623511382 -0.7476987590924276 0.9480961583363564
| 18> *
| 19> 
| 20>                          ****END OF INPUT****
================================================================================

                     *******************************
                     * Energy+Gradient Calculation *
                     *******************************

---------------------------------
CARTESIAN COORDINATES (ANGSTROEM)
---------------------------------
  O     -1.498519    0.677581   -0.000469
  C     -0.717228   -0.403667   -0.038872
  C      0.754087   -0.462090   -0.107931
  H     -1.198994   -0.619437    0.876377
  H     -1.312168   -0.667857   -0.904905
  H      1.214409   -0.723992   -0.960882
  H      1.337818   -0.747699    0.948096

----------------------------
CARTESIAN COORDINATES (A.U.)
----------------------------
  NO LB      ZA    FRAG     MASS         X           Y           Z
   0 O     8.0000    0    15.999   -2.831790    1.280443   -0.000887
   1 C     6.0000    0    12.011   -1.355364   -0.762820   -0.073458
   2 C     6.0000    0    12.011    1.425018   -0.873224   -0.203961
   3 H     1.0000    0     1.008   -2.265770   -1.170566    1.656113
   4 H     1.0000    0     1.008   -2.479639   -1.262066   -1.710024
   5 H     1.0000    0     1.008    2.294900   -1.368147   -1.815805
   6 H     1.0000    0     1.008    2.528109   -1.412946    1.791642

--------------------------------
INTERNAL COORDINATES (ANGSTROEM)
--------------------------------
 O      0   0   0     0.000000000000     0.00000000     0.00000000
 C      1   0   0     1.334536778475     0.00000000     0.00000000
 C      2   1   0     1.474092809246   128.15536676     0.00000000
 H      2   1   3     1.056568406872    82.73758732   121.66723216
 H      2   1   3     1.083404203375    84.20805408   235.89605621
 H      3   2   1     1.003999100102   120.51494115   253.66584662
 H      3   2   1     1.239962678994   116.04693288   103.62638362

---------------------------
INTERNAL COORDINATES (A.U.)
---------------------------
 O      0   0   0     0.000000000000     0.00000000     0.00000000
 C      1   0   0     2.521909026964     0.00000000     0.00000000
 C      2   1   0     2.785631705458   128.15536676     0.00000000
 H      2   1   3     1.996624930742    82.73758732   121.66723216
 H      2   1   3     2.047337236718    84.20805408   235.89605621
 H      3   2   1     1.897283337896   120.51494115   253.66584662
 H      3   2   1     2.343189879582   116.04693288   103.62638362

---------------------
BASIS SET INFORMATION
---------------------
There are 3 groups of distinct atoms

 Group   1 Type O   : 11s6p2d1f contracted to 5s3p2d1f pattern {62111/411/11/1}
 Group   2 Type C   : 11s6p2d1f contracted to 5s3p2d1f pattern {62111/411/11/1}
 Group   3 Type H   : 5s1p contracted to 3s1p pattern {311/1}

Atom   0O    basis set group =>   1
Atom   1C    basis set group =>   2
Atom   2C    basis set group =>   2
Atom   3H    basis set group =>   3
Atom   4H    basis set group =>   3
Atom   5H    basis set group =>   3
Atom   6H    basis set group =>   3
---------------------------------
AUXILIARY/J BASIS SET INFORMATION
---------------------------------
There are 3 groups of distinct atoms

 Group   1 Type O   : 12s5p4d2f1g contracted to 6s4p3d1f1g pattern {711111/2111/211/2/1}
 Group   2 Type C   : 12s5p4d2f1g contracted to 6s4p3d1f1g pattern {711111/2111/211/2/1}
 Group   3 Type H   : 5s2p1d contracted to 3s1p1d pattern {311/2/1}

Atom   0O    basis set group =>   1
Atom   1C    basis set group =>   2
Atom   2C    basis set group =>   2
Atom   3H    basis set group =>   3
Atom   4H    basis set group =>   3
Atom   5H    basis set group =>   3
Atom   6H    basis set group =>   3

Checking for AutoStart:
The File: ox_es1_G_orca0002.gbw exists
Trying to determine its content:
     ... Fine, the file contains calculation information
     ... Fine, the calculation information was read
     ... Fine, the file contains a basis set
     ... Fine, the basis set was read
     ... Fine, the file contains a geometry
     ... Fine, the geometry was read
     ... Fine, the file contains a set of orbitals
     ... Fine, the orbitals can be read
     => possible old guess file was deleted
     => GBW file was renamed to GES file
     => GES file is set as startup file
     => Guess is set to MORead
     ... now leaving AutoStart



           ************************************************************
           *        Program running with 8 parallel MPI-processes     *
           *              working on a common directory               *
           ************************************************************
------------------------------------------------------------------------------
                           ORCA GTO INTEGRAL CALCULATION
                           -- RI-GTO INTEGRALS CHOSEN --
------------------------------------------------------------------------------
------------------------------------------------------------------------------
                   ___                                                        
                  /   \      - P O W E R E D   B Y -                         
                 /     \                                                     
                 |  |  |   _    _      __       _____    __    __             
                 |  |  |  | |  | |    /  \     |  _  \  |  |  /  |          
                  \  \/   | |  | |   /    \    | | | |  |  | /  /          
                 / \  \   | |__| |  /  /\  \   | |_| |  |  |/  /          
                |  |  |   |  __  | /  /__\  \  |    /   |      \           
                |  |  |   | |  | | |   __   |  |    \   |  |\   \          
                \     /   | |  | | |  |  |  |  | |\  \  |  | \   \       
                 \___/    |_|  |_| |__|  |__|  |_| \__\ |__|  \__/        
                                                                              
                      - O R C A' S   B I G   F R I E N D -                    
                                      &                                       
                       - I N T E G R A L  F E E D E R -                       
                                                                              
 v1 FN, 2020, v2 2021                                                         
------------------------------------------------------------------------------


Reading SHARK input file ox_es1_G_orca0002.SHARKINP.tmp ... ok
----------------------
SHARK INTEGRAL PACKAGE
----------------------

Number of atoms                             ...      7
Number of basis functions                   ...    117
Number of shells                            ...     49
Maximum angular momentum                    ...      3
Integral batch strategy                     ... SHARK/LIBINT Hybrid
RI-J (if used) integral strategy            ... SPLIT-RIJ (Revised 2003 algorithm where possible)
Printlevel                                  ...      1
Contraction scheme used                     ... SEGMENTED contraction
Coulomb Range Separation                    ... NOT USED
Exchange Range Separation                   ... NOT USED
Finite Nucleus Model                        ... NOT USED
Auxiliary Coulomb fitting basis             ... AVAILABLE
   # of basis functions in Aux-J            ...    191
   # of shells in Aux-J                     ...     65
   Maximum angular momentum in Aux-J        ...      4
Auxiliary J/K fitting basis                 ... NOT available
Auxiliary Correlation fitting basis         ... NOT available
Auxiliary 'external' fitting basis          ... NOT available
Integral threshold                          ...     2.500000e-11
Primitive cut-off                           ...     2.500000e-12
Primitive pair pre-selection threshold      ...     2.500000e-12

Calculating pre-screening integrals         ... done (  0.0 sec) Dimension = 49
Organizing shell pair data                  ... done (  0.0 sec)
Shell pair information
Total number of shell pairs                 ...      1225
Shell pairs after pre-screening             ...      1210
Total number of primitive shell pairs       ...      3648
Primitive shell pairs kept                  ...      3060
          la=0 lb=0:    368 shell pairs
          la=1 lb=0:    348 shell pairs
          la=1 lb=1:     91 shell pairs
          la=2 lb=0:    160 shell pairs
          la=2 lb=1:     78 shell pairs
          la=2 lb=2:     21 shell pairs
          la=3 lb=0:     81 shell pairs
          la=3 lb=1:     39 shell pairs
          la=3 lb=2:     18 shell pairs
          la=3 lb=3:      6 shell pairs

Calculating one electron integrals          ... done (  0.0 sec)
Calculating RI/J V-Matrix + Cholesky decomp.... done (  0.0 sec)
Calculating Nuclear repulsion               ... done (  0.0 sec) ENN=     68.566541513080 Eh

SHARK setup successfully completed in   0.1 seconds

Maximum memory used throughout the entire GTOINT-calculation: 14.9 MB


           ************************************************************
           *        Program running with 8 parallel MPI-processes     *
           *              working on a common directory               *
           ************************************************************
-------------------------------------------------------------------------------
                                 ORCA SCF
-------------------------------------------------------------------------------

------------
SCF SETTINGS
------------
Hamiltonian:
 Density Functional     Method          .... DFT(GTOs)
 Exchange Functional    Exchange        .... PBE
   PBE kappa parameter   XKappa         ....  0.804000
   PBE mue parameter    XMuePBE         ....  0.219520
 Correlation Functional Correlation     .... PBE
   PBE beta parameter  CBetaPBE         ....  0.066725
 LDA part of GGA corr.  LDAOpt          .... PW91-LDA
 Gradients option       PostSCFGGA      .... off
 Hybrid DFT is turned on
   Fraction HF Exchange ScalHFX         ....  0.250000
   Scaling of DF-GGA-X  ScalDFX         ....  0.750000
   Scaling of DF-GGA-C  ScalDFC         ....  1.000000
   Scaling of DF-LDA-C  ScalLDAC        ....  1.000000
   Perturbative correction              ....  0.000000
   Density functional embedding theory  .... OFF
   NL short-range parameter             ....  6.900000
 RI-approximation to the Coulomb term is turned on
   Number of AuxJ basis functions       .... 191
   RIJ-COSX (HFX calculated with COS-X)).... on


General Settings:
 Integral files         IntName         .... ox_es1_G_orca0002
 Hartree-Fock type      HFTyp           .... RHF
 Total Charge           Charge          ....    0
 Multiplicity           Mult            ....    1
 Number of Electrons    NEL             ....   24
 Basis Dimension        Dim             ....  117
 Nuclear Repulsion      ENuc            ....     68.5665415131 Eh

Convergence Acceleration:
 DIIS                   CNVDIIS         .... on
   Start iteration      DIISMaxIt       ....    12
   Startup error        DIISStart       ....  0.200000
   # of expansion vecs  DIISMaxEq       ....     5
   Bias factor          DIISBfac        ....   1.050
   Max. coefficient     DIISMaxC        ....  10.000
 Trust-Rad. Augm. Hess. CNVTRAH         .... auto
   Auto Start mean grad. ratio tolernc. ....  1.125000
   Auto Start start iteration           ....     1
   Auto Start num. interpolation iter.  ....    10
   Max. Number of Micro iterations      ....    16
   Max. Number of Macro iterations      .... Maxiter - #DIIS iter
   Number of Davidson start vectors     ....     2
   Converg. threshold I  (grad. norm)   ....   1.000e-05
   Converg. threshold II (energy diff.) ....   1.000e-08
   Grad. Scal. Fac. for Micro threshold ....   0.100
   Minimum threshold for Micro iter.    ....   0.010
   NR start threshold (gradient norm)   ....   0.001
   Initial trust radius                 ....   0.400
   Minimum AH scaling param. (alpha)    ....   1.000
   Maximum AH scaling param. (alpha)    .... 1000.000
   Orbital update algorithm             .... Taylor
   White noise on init. David. guess    .... on
   Maximum white noise                  ....   0.010
   Quad. conv. algorithm                .... NR
 SOSCF                  CNVSOSCF        .... on
   Start iteration      SOSCFMaxIt      ....   150
   Startup grad/error   SOSCFStart      ....  0.003300
 Level Shifting         CNVShift        .... on
   Level shift para.    LevelShift      ....    0.2500
   Turn off err/grad.   ShiftErr        ....    0.0010
 Zerner damping         CNVZerner       .... off
 Static damping         CNVDamp         .... on
   Fraction old density DampFac         ....    0.7000
   Max. Damping (<1)    DampMax         ....    0.9800
   Min. Damping (>=0)   DampMin         ....    0.0000
   Turn off err/grad.   DampErr         ....    0.1000
 Fernandez-Rico         CNVRico         .... off

SCF Procedure:
 Maximum # iterations   MaxIter         ....   125
 SCF integral mode      SCFMode         .... Direct
   Integral package                     .... SHARK and LIBINT hybrid scheme
 Reset frequency        DirectResetFreq ....    20
 Integral Threshold     Thresh          ....  2.500e-11 Eh
 Primitive CutOff       TCut            ....  2.500e-12 Eh

Convergence Tolerance:
 Convergence Check Mode ConvCheckMode   .... Total+1el-Energy
 Convergence forced     ConvForced      .... 1
 Energy Change          TolE            ....  1.000e-08 Eh
 1-El. energy change                    ....  1.000e-05 Eh
 Orbital Gradient       TolG            ....  1.000e-05
 Orbital Rotation angle TolX            ....  1.000e-05
 DIIS Error             TolErr          ....  5.000e-07


Diagonalization of the overlap matrix:
Smallest eigenvalue                        ... 5.025e-04
Time for diagonalization                   ...    0.001 sec
Threshold for overlap eigenvalues          ... 1.000e-08
Number of eigenvalues below threshold      ... 0
Time for construction of square roots      ...    0.001 sec
Total time needed                          ...    0.003 sec

---------------------
INITIAL GUESS: MOREAD
---------------------
Guess MOs are being read from file: ox_es1_G_orca0002.ges
Input Geometry matches current geometry (good)
Input basis set matches current basis set (good)
MOs were renormalized
MOs were reorthogonalized (Cholesky)
                      ------------------
                      INITIAL GUESS DONE (   0.0 sec)
                      ------------------
-------------------
DFT GRID GENERATION
-------------------

General Integration Accuracy     IntAcc      ... 4.388
Radial Grid Type                 RadialGrid  ... OptM3 with GC (2021)
Angular Grid (max. ang.)         AngularGrid ... 4 (Lebedev-302)
Angular grid pruning method      GridPruning ... 4 (adaptive)
Weight generation scheme         WeightScheme... Becke
Basis function cutoff            BFCut       ... 1.0000e-11
Integration weight cutoff        WCut        ... 1.0000e-14
Angular grids for H and He will be reduced by one unit
Partially contracted basis set               ... off
Rotationally invariant grid construction     ... off

Total number of grid points                  ...    31335
Total number of batches                      ...      494
Average number of points per batch           ...       63
Average number of grid points per atom       ...     4476
Time for grid setup =    0.118 sec

--------------------
COSX GRID GENERATION
--------------------

GRIDX 1
-------
General Integration Accuracy     IntAcc      ... 3.816
Radial Grid Type                 RadialGrid  ... OptM3 with GC (2021)
Angular Grid (max. ang.)         AngularGrid ... 1 (Lebedev-50)
Angular grid pruning method      GridPruning ... 4 (adaptive)
Weight generation scheme         WeightScheme... Becke
Basis function cutoff            BFCut       ... 1.0000e-11
Integration weight cutoff        WCut        ... 1.0000e-14
Angular grids for H and He will be reduced by one unit
Partially contracted basis set               ... on
Rotationally invariant grid construction     ... off

Total number of grid points                  ...     4042
Total number of batches                      ...       67
Average number of points per batch           ...       60
Average number of grid points per atom       ...      577
UseSFitting                                  ... on

GRIDX 2
-------
General Integration Accuracy     IntAcc      ... 4.020
Radial Grid Type                 RadialGrid  ... OptM3 with GC (2021)
Angular Grid (max. ang.)         AngularGrid ... 2 (Lebedev-110)
Angular grid pruning method      GridPruning ... 4 (adaptive)
Weight generation scheme         WeightScheme... Becke
Basis function cutoff            BFCut       ... 1.0000e-11
Integration weight cutoff        WCut        ... 1.0000e-14
Angular grids for H and He will be reduced by one unit
Partially contracted basis set               ... on
Rotationally invariant grid construction     ... off

Total number of grid points                  ...     8741
Total number of batches                      ...      141
Average number of points per batch           ...       61
Average number of grid points per atom       ...     1249
UseSFitting                                  ... on

GRIDX 3
-------
General Integration Accuracy     IntAcc      ... 4.338
Radial Grid Type                 RadialGrid  ... OptM3 with GC (2021)
Angular Grid (max. ang.)         AngularGrid ... 3 (Lebedev-194)
Angular grid pruning method      GridPruning ... 4 (adaptive)
Weight generation scheme         WeightScheme... Becke
Basis function cutoff            BFCut       ... 1.0000e-11
Integration weight cutoff        WCut        ... 1.0000e-14
Angular grids for H and He will be reduced by one unit
Partially contracted basis set               ... on
Rotationally invariant grid construction     ... off

Total number of grid points                  ...    19294
Total number of batches                      ...      304
Average number of points per batch           ...       63
Average number of grid points per atom       ...     2756
UseSFitting                                  ... on

Time for X-Grid setup             =    0.073 sec

--------------
SCF ITERATIONS
--------------
ITER       Energy         Delta-E        Max-DP      RMS-DP      [F,P]     Damp
               ***  Starting incremental Fock matrix formation  ***
                      *** Initiating the SOSCF procedure ***
                      *** Re-Reading the Fockian *** 
                      *** Removing any level shift *** 
ITER      Energy       Delta-E        Grad      Rot      Max-DP    RMS-DP
  0   -153.45075903 -153.4507590270  0.000001  0.000001  0.000001  0.000000
               *** Restarting incremental Fock matrix formation ***
                  ***Gradient check signals convergence***
              ***Rediagonalizing the Fockian in SOSCF/NRSCF***

               *****************************************************
               *                     SUCCESS                       *
               *           SCF CONVERGED AFTER   1 CYCLES          *
               *****************************************************

Old exchange energy                            =     -4.961598576 Eh
New exchange energy                            =     -4.961614202 Eh
Exchange energy change after final integration =     -0.000015626 Eh
Total energy after final integration           =   -153.450774653 Eh
Final COS-X integration done in                =     0.273 sec

----------------
TOTAL SCF ENERGY
----------------

Total Energy       :         -153.45077465 Eh           -4175.60786 eV

Components:
Nuclear Repulsion  :           68.56654151 Eh            1865.79045 eV
Electronic Energy  :         -222.01731617 Eh           -6041.39831 eV
One Electron Energy:         -343.82227969 Eh           -9355.87987 eV
Two Electron Energy:          121.80496353 Eh            3314.48156 eV
Max COSX asymmetry :            0.00000467 Eh               0.00013 eV

Virial components:
Potential Energy   :         -306.55349164 Eh           -8341.74459 eV
Kinetic Energy     :          153.10271698 Eh            4166.13673 eV
Virial Ratio       :            2.00227336


DFT components:
N(Alpha)           :       11.999994452327 electrons
N(Beta)            :       11.999994452327 electrons
N(Total)           :       23.999988904655 electrons
E(X)               :      -14.914642018853 Eh       
E(C)               :       -0.776651158639 Eh       
E(XC)              :      -15.691293177492 Eh       
DFET-embed. en.    :        0.000000000000 Eh       

---------------
SCF CONVERGENCE
---------------

  Last Energy change         ...    2.8990e-12  Tolerance :   1.0000e-08
  Last MAX-Density change    ...    4.4409e-16  Tolerance :   1.0000e-07
  Last RMS-Density change    ...    1.6134e-17  Tolerance :   5.0000e-09
  Last Orbital Gradient      ...    6.4522e-07  Tolerance :   1.0000e-05
  Last Orbital Rotation      ...    3.7311e-06  Tolerance :   1.0000e-05

             **** THE GBW FILE WAS UPDATED (ox_es1_G_orca0002.gbw) ****
             **** DENSITY ox_es1_G_orca0002.scfp WAS UPDATED ****
             **** ENERGY FILE WAS UPDATED (ox_es1_G_orca0002.en.tmp) ****
             **** THE GBW FILE WAS UPDATED (ox_es1_G_orca0002.gbw) ****
             **** DENSITY ox_es1_G_orca0002.scfp WAS UPDATED ****
----------------
ORBITAL ENERGIES
----------------

  NO   OCC          E(Eh)            E(eV) 
   0   2.0000     -19.171369      -521.6795 
   1   2.0000     -10.302888      -280.3558 
   2   2.0000     -10.277942      -279.6770 
   3   2.0000      -1.031789       -28.0764 
   4   2.0000      -0.775008       -21.0890 
   5   2.0000      -0.616045       -16.7634 
   6   2.0000      -0.531242       -14.4558 
   7   2.0000      -0.491110       -13.3638 
   8   2.0000      -0.433963       -11.8087 
   9   2.0000      -0.404637       -11.0107 
  10   2.0000      -0.246899        -6.7185 
  11   2.0000      -0.220764        -6.0073 
  12   0.0000      -0.159764        -4.3474 
  13   0.0000       0.035476         0.9653 
  14   0.0000       0.079359         2.1595 
  15   0.0000       0.091892         2.5005 
  16   0.0000       0.146312         3.9814 
  17   0.0000       0.151727         4.1287 
  18   0.0000       0.187253         5.0954 
  19   0.0000       0.223871         6.0918 
  20   0.0000       0.231288         6.2937 
  21   0.0000       0.234650         6.3852 
  22   0.0000       0.247350         6.7307 
  23   0.0000       0.340353         9.2615 
  24   0.0000       0.365323         9.9409 
  25   0.0000       0.376295        10.2395 
  26   0.0000       0.401223        10.9178 
  27   0.0000       0.416286        11.3277 
  28   0.0000       0.446388        12.1468 
  29   0.0000       0.452903        12.3241 
  30   0.0000       0.517675        14.0866 
  31   0.0000       0.532751        14.4969 
  32   0.0000       0.539280        14.6746 
  33   0.0000       0.628091        17.0912 
  34   0.0000       0.656165        17.8552 
  35   0.0000       0.740763        20.1572 
  36   0.0000       0.802962        21.8497 
  37   0.0000       0.873315        23.7641 
  38   0.0000       0.888928        24.1890 
  39   0.0000       0.930129        25.3101 
  40   0.0000       0.943641        25.6778 
  41   0.0000       0.995968        27.1017 
  42   0.0000       1.083142        29.4738 
  43   0.0000       1.135043        30.8861 
  44   0.0000       1.220130        33.2014 
  45   0.0000       1.349506        36.7219 
  46   0.0000       1.414303        38.4851 
  47   0.0000       1.438893        39.1543 
  48   0.0000       1.498556        40.7778 
  49   0.0000       1.503601        40.9151 
  50   0.0000       1.540958        41.9316 
  51   0.0000       1.588786        43.2331 
  52   0.0000       1.603197        43.6252 
  53   0.0000       1.618793        44.0496 
  54   0.0000       1.697584        46.1936 
  55   0.0000       1.736666        47.2571 
  56   0.0000       1.810122        49.2559 
  57   0.0000       1.871218        50.9184 
  58   0.0000       1.962860        53.4121 
  59   0.0000       1.982670        53.9512 
  60   0.0000       2.005083        54.5611 
  61   0.0000       2.017722        54.9050 
  62   0.0000       2.079645        56.5900 
  63   0.0000       2.258051        61.4447 
  64   0.0000       2.327287        63.3287 
  65   0.0000       2.347877        63.8890 
  66   0.0000       2.402884        65.3858 
  67   0.0000       2.442043        66.4514 
  68   0.0000       2.542393        69.1820 
  69   0.0000       2.564989        69.7969 
  70   0.0000       2.577942        70.1494 
  71   0.0000       2.595574        70.6292 
  72   0.0000       2.659221        72.3611 
  73   0.0000       2.738918        74.5298 
  74   0.0000       2.762950        75.1837 
  75   0.0000       2.785151        75.7878 
  76   0.0000       2.870802        78.1185 
  77   0.0000       2.963509        80.6412 
  78   0.0000       2.996636        81.5426 
  79   0.0000       3.026597        82.3579 
  80   0.0000       3.049497        82.9810 
  81   0.0000       3.076735        83.7222 
  82   0.0000       3.103853        84.4601 
  83   0.0000       3.149209        85.6943 
  84   0.0000       3.187997        86.7498 
  85   0.0000       3.234476        88.0146 
  86   0.0000       3.326837        90.5278 
  87   0.0000       3.378190        91.9252 
  88   0.0000       3.410081        92.7930 
  89   0.0000       3.511213        95.5450 
  90   0.0000       3.534595        96.1812 
  91   0.0000       3.627589        98.7117 
  92   0.0000       3.724944       101.3609 
  93   0.0000       3.818210       103.8988 
  94   0.0000       4.025730       109.5457 
  95   0.0000       4.134061       112.4935 
  96   0.0000       4.171153       113.5028 
  97   0.0000       4.235220       115.2462 
  98   0.0000       4.395539       119.6087 
  99   0.0000       4.520861       123.0189 
 100   0.0000       4.653599       126.6309 
 101   0.0000       4.729176       128.6874 
 102   0.0000       5.203607       141.5973 
 103   0.0000       5.262001       143.1863 
 104   0.0000       5.476843       149.0325 
 105   0.0000       5.513905       150.0410 
 106   0.0000       5.937392       161.5646 
 107   0.0000       6.028858       164.0536 
 108   0.0000       6.145531       167.2284 
 109   0.0000       6.413554       174.5217 
 110   0.0000       6.419943       174.6955 
 111   0.0000       6.855304       186.5423 
 112   0.0000       6.874899       187.0755 
 113   0.0000       6.974767       189.7931 
 114   0.0000      22.034824       599.5980 
 115   0.0000      22.687814       617.3668 
 116   0.0000      43.853091      1193.3033 

                    ********************************
                    * MULLIKEN POPULATION ANALYSIS *
                    ********************************

-----------------------
MULLIKEN ATOMIC CHARGES
-----------------------
   0 O :   -0.420939
   1 C :   -0.134890
   2 C :   -0.145759
   3 H :    0.234207
   4 H :    0.156242
   5 H :    0.158448
   6 H :    0.152690
Sum of atomic charges:   -0.0000000

--------------------------------
MULLIKEN REDUCED ORBITAL CHARGES
--------------------------------
  0 O s       :     3.886679  s :     3.886679
      pz      :     1.724459  p :     4.501808
      px      :     1.616805
      py      :     1.160545
      dz2     :     0.003311  d :     0.030711
      dxz     :     0.001913
      dyz     :     0.007299
      dx2y2   :     0.007584
      dxy     :     0.010604
      f0      :     0.000199  f :     0.001741
      f+1     :     0.000109
      f-1     :     0.000186
      f+2     :     0.000120
      f-2     :     0.000231
      f+3     :     0.000473
      f-3     :     0.000423
  1 C s       :     3.184169  s :     3.184169
      pz      :     1.041292  p :     2.774752
      px      :     0.881946
      py      :     0.851514
      dz2     :     0.011527  d :     0.160863
      dxz     :     0.033154
      dyz     :     0.041111
      dx2y2   :     0.054915
      dxy     :     0.020155
      f0      :     0.001769  f :     0.015107
      f+1     :     0.001411
      f-1     :     0.000327
      f+2     :     0.001181
      f-2     :     0.002380
      f+3     :     0.002130
      f-3     :     0.005908
  2 C s       :     3.332058  s :     3.332058
      pz      :     1.041192  p :     2.766374
      px      :     0.889992
      py      :     0.835190
      dz2     :     0.005600  d :     0.043722
      dxz     :     0.021684
      dyz     :     0.003586
      dx2y2   :     0.004750
      dxy     :     0.008102
      f0      :     0.000397  f :     0.003606
      f+1     :     0.000893
      f-1     :     0.000227
      f+2     :     0.000624
      f-2     :     0.000085
      f+3     :     0.000567
      f-3     :     0.000812
  3 H s       :     0.735352  s :     0.735352
      pz      :     0.012283  p :     0.030441
      px      :     0.009227
      py      :     0.008931
  4 H s       :     0.816562  s :     0.816562
      pz      :     0.009955  p :     0.027196
      px      :     0.009245
      py      :     0.007997
  5 H s       :     0.816824  s :     0.816824
      pz      :     0.011966  p :     0.024728
      px      :     0.006663
      py      :     0.006099
  6 H s       :     0.830261  s :     0.830261
      pz      :     0.008985  p :     0.017049
      px      :     0.004459
      py      :     0.003604


                     *******************************
                     * LOEWDIN POPULATION ANALYSIS *
                     *******************************

----------------------
LOEWDIN ATOMIC CHARGES
----------------------
   0 O :   -0.073204
   1 C :   -0.494938
   2 C :   -0.056950
   3 H :    0.218547
   4 H :    0.152968
   5 H :    0.094735
   6 H :    0.158842

-------------------------------
LOEWDIN REDUCED ORBITAL CHARGES
-------------------------------
  0 O s       :     3.498852  s :     3.498852
      pz      :     1.642520  p :     4.490496
      px      :     1.593929
      py      :     1.254046
      dz2     :     0.007238  d :     0.078269
      dxz     :     0.006188
      dyz     :     0.023481
      dx2y2   :     0.020301
      dxy     :     0.021062
      f0      :     0.000844  f :     0.005587
      f+1     :     0.000277
      f-1     :     0.000507
      f+2     :     0.000352
      f-2     :     0.001036
      f+3     :     0.001345
      f-3     :     0.001226
  1 C s       :     2.794746  s :     2.794746
      pz      :     1.029052  p :     2.984039
      px      :     1.020318
      py      :     0.934669
      dz2     :     0.072938  d :     0.618050
      dxz     :     0.113461
      dyz     :     0.109487
      dx2y2   :     0.197025
      dxy     :     0.125138
      f0      :     0.012402  f :     0.098103
      f+1     :     0.008789
      f-1     :     0.005124
      f+2     :     0.006112
      f-2     :     0.017622
      f+3     :     0.015852
      f-3     :     0.032202
  2 C s       :     2.955083  s :     2.955083
      pz      :     1.063716  p :     2.876517
      px      :     1.023996
      py      :     0.788805
      dz2     :     0.028076  d :     0.204567
      dxz     :     0.101783
      dyz     :     0.009499
      dx2y2   :     0.034720
      dxy     :     0.030488
      f0      :     0.003352  f :     0.020783
      f+1     :     0.003263
      f-1     :     0.001101
      f+2     :     0.003685
      f-2     :     0.001301
      f+3     :     0.004037
      f-3     :     0.004044
  3 H s       :     0.701905  s :     0.701905
      pz      :     0.033716  p :     0.079549
      px      :     0.023464
      py      :     0.022369
  4 H s       :     0.773046  s :     0.773046
      pz      :     0.028906  p :     0.073985
      px      :     0.022781
      py      :     0.022299
  5 H s       :     0.823625  s :     0.823625
      pz      :     0.040005  p :     0.081640
      px      :     0.020730
      py      :     0.020905
  6 H s       :     0.795671  s :     0.795671
      pz      :     0.025032  p :     0.045487
      px      :     0.010750
      py      :     0.009705


                      *****************************
                      * MAYER POPULATION ANALYSIS *
                      *****************************

  NA   - Mulliken gross atomic population
  ZA   - Total nuclear charge
  QA   - Mulliken gross atomic charge
  VA   - Mayer's total valence
  BVA  - Mayer's bonded valence
  FA   - Mayer's free valence

  ATOM       NA         ZA         QA         VA         BVA        FA
  0 O      8.4209     8.0000    -0.4209     1.7061     1.7061     0.0000
  1 C      6.1349     6.0000    -0.1349     4.1300     4.1300    -0.0000
  2 C      6.1458     6.0000    -0.1458     3.6207     3.6207     0.0000
  3 H      0.7658     1.0000     0.2342     0.9508     0.9508    -0.0000
  4 H      0.8438     1.0000     0.1562     0.9632     0.9632    -0.0000
  5 H      0.8416     1.0000     0.1584     0.9626     0.9626    -0.0000
  6 H      0.8473     1.0000     0.1527     0.9655     0.9655    -0.0000

  Mayer bond orders larger than 0.100000
B(  0-O ,  1-C ) :   1.1454 B(  0-O ,  2-C ) :   0.4813 B(  1-C ,  2-C ) :   1.1958 
B(  1-C ,  3-H ) :   0.8011 B(  1-C ,  4-H ) :   0.9699 B(  2-C ,  5-H ) :   0.9482 
B(  2-C ,  6-H ) :   0.9308 

-------
TIMINGS
-------

Total SCF time: 0 days 0 hours 0 min 0 sec 

Total time                  ....       0.997 sec
Sum of individual times     ....       0.918 sec  ( 92.1%)

Fock matrix formation       ....       0.715 sec  ( 71.7%)
  Split-RI-J                ....       0.115 sec  ( 16.2% of F)
  Chain of spheres X        ....       0.530 sec  ( 74.2% of F)
  XC integration            ....       0.060 sec  (  8.4% of F)
    Basis function eval.    ....       0.017 sec  ( 28.3% of XC)
    Density eval.           ....       0.013 sec  ( 22.0% of XC)
    XC-Functional eval.     ....       0.004 sec  (  6.1% of XC)
    XC-Potential eval.      ....       0.019 sec  ( 31.2% of XC)
Diagonalization             ....       0.002 sec  (  0.2%)
Density matrix formation    ....       0.000 sec  (  0.0%)
Population analysis         ....       0.002 sec  (  0.3%)
Initial guess               ....       0.004 sec  (  0.4%)
Orbital Transformation      ....       0.000 sec  (  0.0%)
Orbital Orthonormalization  ....       0.001 sec  (  0.1%)
DIIS solution               ....       0.001 sec  (  0.1%)
SOSCF solution              ....       0.002 sec  (  0.2%)
Grid generation             ....       0.191 sec  ( 19.1%)

Maximum memory used throughout the entire SCF-calculation: 61.1 MB


           ************************************************************
           *        Program running with 8 parallel MPI-processes     *
           *              working on a common directory               *
           ************************************************************
------------------------------------------------------------------------------
                        ORCA TD-DFT/TDA CALCULATION
------------------------------------------------------------------------------

Input orbitals are from        ... ox_es1_G_orca0002.gbw
CI-vector output               ... ox_es1_G_orca0002.cis
Tamm-Dancoff approximation     ... operative
CIS-Integral strategy          ... AO-integrals
Integral handling              ... AO integral Direct
Max. core memory used          ... 3000 MB
Reference state                ... RHF
Generation of triplets         ... off
Follow IRoot                   ... off
Number of operators            ... 1
Orbital ranges used for CIS calculation:
 Operator 0:  Orbitals   3... 11  to  12...116
XAS localization array:
 Operator 0:  Orbitals  -1... -1

-------------------
XC-INTEGRATION GRID
-------------------

General Integration Accuracy     IntAcc      ... 3.467
Radial Grid Type                 RadialGrid  ... OptM3 with GC (2021)
Angular Grid (max. ang.)         AngularGrid ... 1 (Lebedev-50)
Angular grid pruning method      GridPruning ... 4 (adaptive)
Weight generation scheme         WeightScheme... Becke
Basis function cutoff            BFCut       ... 1.0000e-11
Integration weight cutoff        WCut        ... 1.0000e-14
Angular grids for H and He will be reduced by one unit
Partially contracted basis set               ... off
Rotationally invariant grid construction     ... off

Total number of grid points                  ...     4552
Total number of batches                      ...       74
Average number of points per batch           ...       61
Average number of grid points per atom       ...      650

---------------------
COSX-INTEGRATION GRID
---------------------

General Integration Accuracy     IntAcc      ... 3.067
Radial Grid Type                 RadialGrid  ... OptM3 with GC (2021)
Angular Grid (max. ang.)         AngularGrid ... 1 (Lebedev-50)
Angular grid pruning method      GridPruning ... 4 (adaptive)
Weight generation scheme         WeightScheme... Becke
Basis function cutoff            BFCut       ... 1.0000e-11
Integration weight cutoff        WCut        ... 1.0000e-14
Angular grids for H and He will be reduced by one unit
Partially contracted basis set               ... on
Rotationally invariant grid construction     ... off

Total number of grid points                  ...     2088
Total number of batches                      ...       36
Average number of points per batch           ...       58
Average number of grid points per atom       ...      298

---------------
TD-DFT XC SETUP
---------------

DFT calculation                         ... on
Name of the grid file                   ... ox_es1_G_orca0002.grid_cis.tmp
Exchange functional (TD-DFT)            ... PBE
   PBE kappa parameter  XKappa (TD-DFT) ...  0.804000
   PBE mue parameter   XMuePBE (TD-DFT) ...  0.219520
Correlation functional (TD-DFT)         ... PBE
   PBE beta parameter CBetaPBE (TD-DFT) ...  0.066725
 LDA part of GGA corr.  LDAOpt (TD-DFT) ... PW91-LDA
Hybrid DFT                              ... on
   Exchange mixing (TD-DFT)             ...  0.250
   GGA exch. scaling (TD-DFT)           ...  0.750
   GGA corr. scaling (TD-DFT)           ...  1.000

Building densities             ... done
Calculating rho(r) on the grid ... done
Building xc-kernel on the grid ... done
                    *** TD-DFT CALCULATION INITIALIZED ***

------------------------
DAVIDSON-DIAGONALIZATION
------------------------

Dimension of the eigenvalue problem            ...    945
Number of roots to be determined               ...      1
Maximum size of the expansion space            ...     10
Maximum number of iterations                   ...    100
Convergence tolerance for the residual         ...    2.500e-07
Convergence tolerance for the energies         ...    2.500e-07
Orthogonality tolerance                        ...    1.000e-14
Level Shift                                    ...    0.000e+00
Constructing the preconditioner                ... o.k.
Building the initial guess                     ... o.k.
Number of trial vectors determined             ...     10


                       ****Iteration    0****

   Memory handling for direct AO based CIS:
   Memory per vector needed      ...     1 MB
   Memory needed                 ...     1 MB
   Memory available              ...  3000 MB
   Number of vectors per batch   ...  3000
   Number of batches             ...     1
   Time for densities:            0.000
   Time for RI-J (Direct):        0.015
   Time for K (COSX):             0.055
   Time for XC-Integration:       0.015
   Time for Sigma-Completion:     0.000
   Size of expansion space: 3
   Lowest Energy          :    -0.002441029758
   Maximum Energy change  :     0.002441029758 (vector 0)
   Maximum residual norm  :     0.003485126010

                       ****Iteration    1****
   Time for densities:            0.000
   Time for RI-J (Direct):        0.012
   Time for K (COSX):             0.049
   Time for XC-Integration:       0.006
   Time for Sigma-Completion:     0.000
   Size of expansion space: 4
   Lowest Energy          :    -0.004886581039
   Maximum Energy change  :     0.002445551281 (vector 0)
   Maximum residual norm  :     0.000131615200

                       ****Iteration    2****
   Time for densities:            0.000
   Time for RI-J (Direct):        0.012
   Time for K (COSX):             0.051
   Time for XC-Integration:       0.006
   Time for Sigma-Completion:     0.000
   Size of expansion space: 5
   Lowest Energy          :    -0.004991458615
   Maximum Energy change  :     0.000104877576 (vector 0)
   Maximum residual norm  :     0.000006560889

                       ****Iteration    3****
   Time for densities:            0.000
   Time for RI-J (Direct):        0.012
   Time for K (COSX):             0.052
   Time for XC-Integration:       0.007
   Time for Sigma-Completion:     0.000
   Size of expansion space: 6
   Lowest Energy          :    -0.004996797262
   Maximum Energy change  :     0.000005338647 (vector 0)
   Maximum residual norm  :     0.000000216962

      *** CONVERGENCE OF RESIDUAL NORM REACHED ***

Storing the converged CI vectors               ... ox_es1_G_orca0002.cis1

                 *** DAVIDSON DONE ***

Total time for solving the CIS problem:     0.296sec

------------------------------------
TD-DFT/TDA EXCITED STATES (SINGLETS)
------------------------------------

the weight of the individual excitations are printed if larger than 1.0e-02

STATE  1:  E=  -0.004997 au     -0.136 eV    -1096.7 cm**-1 <S**2> =   0.000000
    10a ->  12a  :     0.283312 (c= -0.53227082)
    11a ->  12a  :     0.712457 (c=  0.84407150)


-----------------------------
TD-DFT/TDA-EXCITATION SPECTRA
-----------------------------

Center of mass = ( -1.0077, -0.1003, -0.0777)
Calculating the Dipole integrals                  ... done
Transforming integrals                            ... done
Calculating the Linear Momentum integrals         ... done
Transforming integrals                            ... done
Calculating angular momentum integrals            ... done
Transforming integrals                            ... done

-----------------------------------------------------------------------------
         ABSORPTION SPECTRUM VIA TRANSITION ELECTRIC DIPOLE MOMENTS
-----------------------------------------------------------------------------
State   Energy    Wavelength  fosc         T2        TX        TY        TZ  
        (cm-1)      (nm)                 (au**2)    (au)      (au)      (au) 
-----------------------------------------------------------------------------
   1   -1096.7   -9118.5   -0.000080203   0.02408   0.12291  -0.04851  -0.08134

-----------------------------------------------------------------------------
         ABSORPTION SPECTRUM VIA TRANSITION VELOCITY DIPOLE MOMENTS
-----------------------------------------------------------------------------
State   Energy    Wavelength   fosc        P2         PX        PY        PZ  
        (cm-1)      (nm)                 (au**2)     (au)      (au)      (au) 
-----------------------------------------------------------------------------
   1   -1096.7   -9118.5   -0.594155350   0.00445   0.03244  -0.04150  -0.04098

-------------------------------------------------------------------
                             CD SPECTRUM
-------------------------------------------------------------------
State  Energy     Wavelength     R         MX        MY        MZ   
       (cm-1)       (nm)     (1e40*cgs)   (au)      (au)      (au)  
-------------------------------------------------------------------
   1   -1096.7   -9118.5    -25.85219  -0.31859   0.27034   0.03151

-------------------------------------------------------------------
         CD SPECTRUM VIA TRANSITION VELOCITY DIPOLE MOMENTS        
-------------------------------------------------------------------
State  Energy     Wavelength     R         MX        MY        MZ   
       (cm-1)       (nm)     (1e40*cgs)   (au)      (au)      (au)  
-------------------------------------------------------------------
   1   -1096.7   -9118.5    2155.36038  -0.31859   0.27034   0.03151

Total run time:        0.537 sec

           *** ORCA-CIS/TD-DFT FINISHED WITHOUT ERROR ***

Maximum memory used throughout the entire CIS-calculation: 49.4 MB

-----------------------
CIS/TD-DFT TOTAL ENERGY
-----------------------

    E(SCF)  =   -153.450774653 Eh
    DE(CIS) =     -0.004996797 Eh (Root  1)
    ----------------------------- ---------
    E(tot)  =   -153.455771450 Eh



-------------------------------------------------------------------------------
                          DFT DISPERSION CORRECTION                            
                                                                               
                              DFTD3 V3.1  Rev 1                                
                          USING Becke-Johnson damping                          
-------------------------------------------------------------------------------
The PBE0 functional is recognized
Active option DFTDOPT                   ...         4   

molecular C6(AA) [au] = 395.476237 


            DFT-D V3
 parameters
 s6 scaling factor         :     1.0000 
 a1 scaling factor         :     0.4145 
 s8 scaling factor         :     1.2177 
 a2 scaling factor         :     4.8593 
 ad hoc parameters k1-k3   :    16.0000     1.3333    -4.0000 

 Edisp/kcal,au: -1.620866861934  -0.002583015486 
 E6   /kcal   :  -1.057626508 
 E8   /kcal   :  -0.563240354 
 % E8         :  34.749328742 

-------------------------   ----------------
Dispersion correction           -0.002583015
-------------------------   ----------------


-------------------------   --------------------
FINAL SINGLE POINT ENERGY      -153.458354465528
-------------------------   --------------------



           ************************************************************
           *        Program running with 8 parallel MPI-processes     *
           *              working on a common directory               *
           ************************************************************
------------------------------------------------------------------------------
                         ORCA SCF GRADIENT CALCULATION
------------------------------------------------------------------------------


------------------------
TD-DFT GRADIENT XC SETUP
------------------------

Building densities                     ... done
Calculating rho(r) on the grid         ... done
Building xc-kernel on the grid         ... done
Building xc 3rd derivative on the grid      ... done
                *** TD-DFT GRADIENT CALCULATION INITIALIZED ***

-------------------
TD-DFT/TDA GRADIENT
-------------------

Reference wavefunction             ... RHF
State of interest                  ... 1
Basis dimension                    ... 117
DFT-XC contribution needed         ... YES
RI-approximation                   ... ON
CIS-vectors being read from        ... ox_es1_G_orca0002.cis

 => Number of Vectors found: 1
 => Orbital Window: 3...11 -> 12...116

Reading the CIS file                     ... done
Norm of the CI vector                    ... 1.000000000
Making the CIS (pseudo)densities         ... done
Making operators G(D) and Q(T)           ... done
Transforming the Fock operators          ... done
Making the frozen-core relaxed density   ... done
Constructing the G(H) operator           ... done
Transforming the G(H) operator           ... done
Calculating the CIS Lagrangian           ... done
Solving the Z-vector equations           ... done
Finalizing the relaxed density           ... done
Storing the relaxed density              ... done
Constructing the G(Z) operator           ... done
Transforming the G(Z) operator           ... done
Making the W-matrix                      ... done
Finalizing the W-matrix                  ... done
Transforming the W-matrix                ... done
Nuclear repulsion gradient               ... done
One-Electron gradient                    ... done
Dispersion correction                    ... done
Prescreening matrices                    ... done
COSX-gradient                            ... done
Coulomb gradient (RI)                    ... done
Exchange-Correlation gradient            ... done

                 ---------------------------
                 EXCITED STATE GRADIENT DONE
                 ---------------------------

------------------
CARTESIAN GRADIENT
------------------

   1   O   :    0.080080925   -0.089261638    0.117787579
   2   C   :   -0.071370305   -0.029476221   -0.171578259
   3   C   :    0.032077151    0.031872117   -0.077941502
   4   H   :   -0.045776856    0.092403308   -0.028709765
   5   H   :    0.006618785   -0.012415279    0.038841729
   6   H   :   -0.039351581    0.004836928    0.060404416
   7   H   :    0.037699718    0.001999054    0.061240277

Difference to translation invariance:
           :   -0.0000221629   -0.0000417314    0.0000444752

Difference to rotation invariance:
           :    0.0003753330    0.0003848593    0.0009406509

Norm of the cartesian gradient     ...    0.3087666944
RMS gradient                       ...    0.0673784166
MAX gradient                       ...    0.1715782594

------------------------------------------------------------------------------
                  RELAXED CIS/TDA DENSITY POPULATION ANALYSIS
                                   IROOT 1
------------------------------------------------------------------------------
------------------------------------------------------------------------------
                           ORCA POPULATION ANALYSIS
------------------------------------------------------------------------------
Input electron density              ... ox_es1_G_orca0002.cisp
BaseName (.gbw .S,...)              ... ox_es1_G_orca0002

                    ********************************
                    * MULLIKEN POPULATION ANALYSIS *
                    ********************************

-----------------------
MULLIKEN ATOMIC CHARGES
-----------------------
   0 O :   -0.439465
   1 C :   -0.079951
   2 C :   -0.231930
   3 H :    0.134083
   4 H :    0.295267
   5 H :    0.160928
   6 H :    0.161068
Sum of atomic charges:   -0.0000000

--------------------------------
MULLIKEN REDUCED ORBITAL CHARGES
--------------------------------
  0 O s       :     3.890761  s :     3.890761
      pz      :     2.343813  p :     4.516768
      px      :     1.424130
      py      :     0.748824
      dz2     :     0.003289  d :     0.030379
      dxz     :     0.001547
      dyz     :     0.006296
      dx2y2   :     0.008507
      dxy     :     0.010740
      f0      :     0.000205  f :     0.001557
      f+1     :     0.000206
      f-1     :     0.000157
      f+2     :     0.000066
      f-2     :     0.000176
      f+3     :     0.000384
      f-3     :     0.000363
  1 C s       :     3.129242  s :     3.129242
      pz      :     1.076461  p :     2.776816
      px      :     0.877376
      py      :     0.822979
      dz2     :     0.004786  d :     0.157346
      dxz     :     0.037224
      dyz     :     0.063611
      dx2y2   :     0.049056
      dxy     :     0.002669
      f0      :     0.002674  f :     0.016546
      f+1     :     0.001038
      f-1     :     0.000515
      f+2     :     0.001253
      f-2     :     0.003750
      f+3     :     0.001996
      f-3     :     0.005320
  2 C s       :     3.372649  s :     3.372649
      pz      :     1.045799  p :     2.810818
      px      :     0.826718
      py      :     0.938300
      dz2     :     0.006192  d :     0.044723
      dxz     :     0.022148
      dyz     :     0.004024
      dx2y2   :     0.004474
      dxy     :     0.007885
      f0      :     0.000387  f :     0.003740
      f+1     :     0.000903
      f-1     :     0.000254
      f+2     :     0.000626
      f-2     :     0.000073
      f+3     :     0.000642
      f-3     :     0.000855
  3 H s       :     0.836466  s :     0.836466
      pz      :     0.011157  p :     0.029451
      px      :     0.008892
      py      :     0.009402
  4 H s       :     0.674755  s :     0.674755
      pz      :     0.011630  p :     0.029978
      px      :     0.009973
      py      :     0.008375
  5 H s       :     0.813894  s :     0.813894
      pz      :     0.011536  p :     0.025178
      px      :     0.006513
      py      :     0.007130
  6 H s       :     0.822213  s :     0.822213
      pz      :     0.009207  p :     0.016719
      px      :     0.003713
      py      :     0.003799


                     *******************************
                     * LOEWDIN POPULATION ANALYSIS *
                     *******************************

----------------------
LOEWDIN ATOMIC CHARGES
----------------------
   0 O :   -0.089129
   1 C :   -0.462576
   2 C :   -0.103207
   3 H :    0.108224
   4 H :    0.290504
   5 H :    0.093245
   6 H :    0.162939

-------------------------------
LOEWDIN REDUCED ORBITAL CHARGES
-------------------------------
  0 O s       :     3.496889  s :     3.496889
      pz      :     2.215763  p :     4.507133
      px      :     1.412396
      py      :     0.878975
      dz2     :     0.007277  d :     0.079584
      dxz     :     0.006777
      dyz     :     0.026281
      dx2y2   :     0.018241
      dxy     :     0.021008
      f0      :     0.000807  f :     0.005523
      f+1     :     0.000323
      f-1     :     0.000504
      f+2     :     0.000331
      f-2     :     0.001286
      f+3     :     0.001283
      f-3     :     0.000989
  1 C s       :     2.783926  s :     2.783926
      pz      :     1.075142  p :     2.984612
      px      :     1.004560
      py      :     0.904910
      dz2     :     0.057457  d :     0.586464
      dxz     :     0.117485
      dyz     :     0.171136
      dx2y2   :     0.162363
      dxy     :     0.078022
      f0      :     0.019421  f :     0.107574
      f+1     :     0.006154
      f-1     :     0.005483
      f+2     :     0.006556
      f-2     :     0.025214
      f+3     :     0.015638
      f-3     :     0.029107
  2 C s       :     2.948363  s :     2.948363
      pz      :     1.067120  p :     2.926030
      px      :     0.968928
      py      :     0.889982
      dz2     :     0.028686  d :     0.207154
      dxz     :     0.105670
      dyz     :     0.009674
      dx2y2   :     0.033893
      dxy     :     0.029231
      f0      :     0.003440  f :     0.021659
      f+1     :     0.003558
      f-1     :     0.001132
      f+2     :     0.004125
      f-2     :     0.001458
      f+3     :     0.004191
      f-3     :     0.003755
  3 H s       :     0.807005  s :     0.807005
      pz      :     0.034742  p :     0.084770
      px      :     0.022631
      py      :     0.027397
  4 H s       :     0.638102  s :     0.638102
      pz      :     0.030585  p :     0.071393
      px      :     0.024613
      py      :     0.016196
  5 H s       :     0.823313  s :     0.823313
      pz      :     0.039536  p :     0.083442
      px      :     0.019431
      py      :     0.024476
  6 H s       :     0.792530  s :     0.792530
      pz      :     0.025072  p :     0.044531
      px      :     0.008893
      py      :     0.010566


                      *****************************
                      * MAYER POPULATION ANALYSIS *
                      *****************************

  NA   - Mulliken gross atomic population
  ZA   - Total nuclear charge
  QA   - Mulliken gross atomic charge
  VA   - Mayer's total valence
  BVA  - Mayer's bonded valence
  FA   - Mayer's free valence

  ATOM       NA         ZA         QA         VA         BVA        FA
  0 O      8.4395     8.0000    -0.4395    -0.2497     3.5853    -3.8351
  1 C      6.0800     6.0000    -0.0800     3.9862     4.7130    -0.7268
  2 C      6.2319     6.0000    -0.2319     3.6885     5.1745    -1.4861
  3 H      0.8659     1.0000     0.1341     0.9459     1.2669    -0.3210
  4 H      0.7047     1.0000     0.2953     0.9049     1.2257    -0.3208
  5 H      0.8391     1.0000     0.1609     0.9533     0.9795    -0.0262
  6 H      0.8389     1.0000     0.1611     0.9559     0.9994    -0.0435

  Mayer bond orders larger than 0.100000
B(  0-O ,  1-C ) :   1.4779 B(  0-O ,  2-C ) :   1.6142 B(  0-O ,  3-H ) :   0.1540 
B(  0-O ,  4-H ) :   0.3012 B(  1-C ,  2-C ) :   1.4406 B(  1-C ,  3-H ) :   1.0986 
B(  1-C ,  4-H ) :   0.6815 B(  2-C ,  4-H ) :   0.2213 B(  2-C ,  5-H ) :   0.9434 
B(  2-C ,  6-H ) :   0.9690 


-------
TIMINGS
-------

Total TD-DFT gradient time         ...        6.224 sec

Fock matrix formation       ....       0.866 sec  ( 13.9%)
  Coulomb formation         ....       0.699 sec  ( 80.7% of F)
  RI-J                      ....       0.291 sec  ( 33.6% of F)
  Chain of spheres X        ....       0.408 sec  ( 47.0% of F)
  XC integration            ....       0.167 sec  ( 19.3% of F)
Z-vector equation           ....       2.612 sec  ( 42.0%)
One electron gradient       ....       0.032 sec  (  0.5%)
Prescreening matrices       ....       0.153 sec  (  2.5%)
RI-J Coulomb gradient       ....       0.255 sec  (  4.1%)
COSX gradient               ....       0.372 sec  (  6.0%)
XC gradient                 ....       1.636 sec  ( 26.3%)

Maximum memory used throughout the entire SCFGRAD-calculation: 130.2 MB

                            ***************************************
                            *     ORCA property calculations      *
                            ***************************************

                                    ---------------------
                                    Active property flags
                                    ---------------------
   (+) Dipole Moment


------------------------------------------------------------------------------
                       ORCA ELECTRIC PROPERTIES CALCULATION
------------------------------------------------------------------------------

Dipole Moment Calculation                       ... on
Quadrupole Moment Calculation                   ... off
Polarizability Calculation                      ... off
GBWName                                         ... ox_es1_G_orca0002.gbw
Electron density                                ... ox_es1_G_orca0002.scfp
The origin for moment calculation is the CENTER OF MASS  = (-1.007672, -0.100337 -0.077746)

-------------
DIPOLE MOMENT
-------------
                                X             Y             Z
Electronic contribution:     -1.02766       1.44305      -0.10392
Nuclear contribution   :      2.02533      -2.37835       0.11623
                        -----------------------------------------
Total Dipole Moment    :      0.99767      -0.93531       0.01231
                        -----------------------------------------
Magnitude (a.u.)       :      1.36759
Magnitude (Debye)      :      3.47613



--------------------
Rotational spectrum 
--------------------
 
Rotational constants in cm-1:     2.054132     0.304643     0.297791 
Rotational constants in MHz : 61581.316658  9132.954937  8927.559930 

 Dipole components along the rotational axes: 
x,y,z [a.u.] :    -1.304439    -0.403639     0.076234 
x,y,z [Debye]:    -3.315621    -1.025968     0.193771 

 

                        *** CIS RELAXED DENSITY ***

------------------------------------------------------------------------------
                       ORCA ELECTRIC PROPERTIES CALCULATION
------------------------------------------------------------------------------

Dipole Moment Calculation                       ... on
Quadrupole Moment Calculation                   ... off
Polarizability Calculation                      ... off
GBWName                                         ... ox_es1_G_orca0002.gbw
Electron density                                ... ox_es1_G_orca0002.cisp
The origin for moment calculation is the CENTER OF MASS  = (-1.007672, -0.100337 -0.077746)

-------------
DIPOLE MOMENT
-------------
                                X             Y             Z
Electronic contribution:     -1.12108       1.48223      -0.34210
Nuclear contribution   :      2.02533      -2.37835       0.11623
                        -----------------------------------------
Total Dipole Moment    :      0.90425      -0.89613      -0.22587
                        -----------------------------------------
Magnitude (a.u.)       :      1.29295
Magnitude (Debye)      :      3.28643



--------------------
Rotational spectrum 
--------------------
 
Rotational constants in cm-1:     2.054132     0.304643     0.297791 
Rotational constants in MHz : 61581.316658  9132.954937  8927.559930 

 Dipole components along the rotational axes: 
x,y,z [a.u.] :    -1.210928    -0.422327    -0.164389 
x,y,z [Debye]:    -3.077933    -1.073471    -0.417843 

 

Timings for individual modules:

Sum of individual times         ...        8.584 sec (=   0.143 min)
GTO integral calculation        ...        0.269 sec (=   0.004 min)   3.1 %
SCF iterations                  ...        1.178 sec (=   0.020 min)  13.7 %
CIS module                      ...        0.736 sec (=   0.012 min)   8.6 %
SCF Gradient evaluation         ...        6.402 sec (=   0.107 min)  74.6 %
                             ****ORCA TERMINATED NORMALLY****
TOTAL RUN TIME: 0 days 0 hours 0 minutes 8 seconds 871 msec
