
                                 *****************
                                 * O   R   C   A *
                                 *****************

                                            #,                                       
                                            ###                                      
                                            ####                                     
                                            #####                                    
                                            ######                                   
                                           ########,                                 
                                     ,,################,,,,,                         
                               ,,#################################,,                 
                          ,,##########################################,,             
                       ,#########################################, ''#####,          
                    ,#############################################,,   '####,        
                  ,##################################################,,,,####,       
                ,###########''''           ''''###############################       
              ,#####''   ,,,,##########,,,,          '''####'''          '####       
            ,##' ,,,,###########################,,,                        '##       
           ' ,,###''''                  '''############,,,                           
         ,,##''                                '''############,,,,        ,,,,,,###''
      ,#''                                            '''#######################'''  
     '                                                          ''''####''''         
             ,#######,   #######,   ,#######,      ##                                
            ,#'     '#,  ##    ##  ,#'     '#,    #''#        ######   ,####,        
            ##       ##  ##   ,#'  ##            #'  '#       #        #'  '#        
            ##       ##  #######   ##           ,######,      #####,   #    #        
            '#,     ,#'  ##    ##  '#,     ,#' ,#      #,         ##   #,  ,#        
             '#######'   ##     ##  '#######'  #'      '#     #####' # '####'        



                  #######################################################
                  #                        -***-                        #
                  #          Department of theory and spectroscopy      #
                  #    Directorship and core code : Frank Neese         #
                  #        Max Planck Institute fuer Kohlenforschung    #
                  #                Kaiser Wilhelm Platz 1               #
                  #                 D-45470 Muelheim/Ruhr               #
                  #                      Germany                        #
                  #                                                     #
                  #                  All rights reserved                #
                  #                        -***-                        #
                  #######################################################


                         Program Version 5.0.2 -  RELEASE  -


 With contributions from (in alphabetic order):
   Daniel Aravena         : Magnetic Suceptibility
   Michael Atanasov       : Ab Initio Ligand Field Theory (pilot matlab implementation)
   Alexander A. Auer      : GIAO ZORA, VPT2 properties, NMR spectrum
   Ute Becker             : Parallelization
   Giovanni Bistoni       : ED, misc. LED, open-shell LED, HFLD
   Martin Brehm           : Molecular dynamics
   Dmytro Bykov           : SCF Hessian
   Vijay G. Chilkuri      : MRCI spin determinant printing, contributions to CSF-ICE
   Dipayan Datta          : RHF DLPNO-CCSD density
   Achintya Kumar Dutta   : EOM-CC, STEOM-CC
   Dmitry Ganyushin       : Spin-Orbit,Spin-Spin,Magnetic field MRCI
   Miquel Garcia          : C-PCM and meta-GGA Hessian, CC/C-PCM, Gaussian charge scheme
   Yang Guo               : DLPNO-NEVPT2, F12-NEVPT2, CIM, IAO-localization
   Andreas Hansen         : Spin unrestricted coupled pair/coupled cluster methods
   Benjamin Helmich-Paris : MC-RPA, TRAH-SCF, COSX integrals
   Lee Huntington         : MR-EOM, pCC
   Robert Izsak           : Overlap fitted RIJCOSX, COSX-SCS-MP3, EOM
   Marcus Kettner         : VPT2
   Christian Kollmar      : KDIIS, OOCD, Brueckner-CCSD(T), CCSD density, CASPT2, CASPT2-K
   Simone Kossmann        : Meta GGA functionals, TD-DFT gradient, OOMP2, MP2 Hessian
   Martin Krupicka        : Initial AUTO-CI
   Lucas Lang             : DCDCAS
   Marvin Lechner         : AUTO-CI (C++ implementation), FIC-MRCC
   Dagmar Lenk            : GEPOL surface, SMD
   Dimitrios Liakos       : Extrapolation schemes; Compound Job, initial MDCI parallelization
   Dimitrios Manganas     : Further ROCIS development; embedding schemes
   Dimitrios Pantazis     : SARC Basis sets
   Anastasios Papadopoulos: AUTO-CI, single reference methods and gradients
   Taras Petrenko         : DFT Hessian,TD-DFT gradient, ASA, ECA, R-Raman, ABS, FL, XAS/XES, NRVS
   Peter Pinski           : DLPNO-MP2, DLPNO-MP2 Gradient
   Christoph Reimann      : Effective Core Potentials
   Marius Retegan         : Local ZFS, SOC
   Christoph Riplinger    : Optimizer, TS searches, QM/MM, DLPNO-CCSD(T), (RO)-DLPNO pert. Triples
   Tobias Risthaus        : Range-separated hybrids, TD-DFT gradient, RPA, STAB
   Michael Roemelt        : Original ROCIS implementation
   Masaaki Saitow         : Open-shell DLPNO-CCSD energy and density
   Barbara Sandhoefer     : DKH picture change effects
   Avijit Sen             : IP-ROCIS
   Kantharuban Sivalingam : CASSCF convergence, NEVPT2, FIC-MRCI
   Bernardo de Souza      : ESD, SOC TD-DFT
   Georgi Stoychev        : AutoAux, RI-MP2 NMR, DLPNO-MP2 response
   Willem Van den Heuvel  : Paramagnetic NMR
   Boris Wezisla          : Elementary symmetry handling
   Frank Wennmohs         : Technical directorship


 We gratefully acknowledge several colleagues who have allowed us to
 interface, adapt or use parts of their codes:
   Stefan Grimme, W. Hujo, H. Kruse, P. Pracht,  : VdW corrections, initial TS optimization,
                  C. Bannwarth, S. Ehlert          DFT functionals, gCP, sTDA/sTD-DF
   Ed Valeev, F. Pavosevic, A. Kumar             : LibInt (2-el integral package), F12 methods
   Garnet Chan, S. Sharma, J. Yang, R. Olivares  : DMRG
   Ulf Ekstrom                                   : XCFun DFT Library
   Mihaly Kallay                                 : mrcc  (arbitrary order and MRCC methods)
   Jiri Pittner, Ondrej Demel                    : Mk-CCSD
   Frank Weinhold                                : gennbo (NPA and NBO analysis)
   Christopher J. Cramer and Donald G. Truhlar   : smd solvation model
   Lars Goerigk                                  : TD-DFT with DH, B97 family of functionals
   V. Asgeirsson, H. Jonsson                     : NEB implementation
   FAccTs GmbH                                   : IRC, NEB, NEB-TS, DLPNO-Multilevel, CI-OPT
                                                   MM, QMMM, 2- and 3-layer-ONIOM, Crystal-QMMM,
                                                   LR-CPCM, SF, NACMEs, symmetry and pop. for TD-DFT,
                                                   nearIR, NL-DFT gradient (VV10), updates on ESD,
                                                   ML-optimized integration grids
   S Lehtola, MJT Oliveira, MAL Marques          : LibXC Library
   Liviu Ungur et al                             : ANISO software


 Your calculation uses the libint2 library for the computation of 2-el integrals
 For citations please refer to: http://libint.valeyev.net

 Your ORCA version has been built with support for libXC version: 5.1.0
 For citations please refer to: https://tddft.org/programs/libxc/

 This ORCA versions uses:
   CBLAS   interface :  Fast vector & matrix operations
   LAPACKE interface :  Fast linear algebra routines
   SCALAPACK package :  Parallel linear algebra routines
   Shared memory     :  Shared parallel matrices
   BLAS/LAPACK       :  OpenBLAS 0.3.15  USE64BITINT DYNAMIC_ARCH NO_AFFINITY SkylakeX SINGLE_THREADED
        Core in use  :  SkylakeX
   Copyright (c) 2011-2014, The OpenBLAS Project


Your calculation utilizes the atom-pairwise dispersion correction
with the Becke-Johnson damping scheme (D3BJ)
Cite in your paper:
S.Grimme, S.Ehrlich, L.Goerigk, J Comput Chem, (2011), 32, 1456–1465 
S.Grimme, J.Antony, S.Ehrlich and H.Krieg, J.Chem.Phys., 132, (2010), 154104 
   

================================================================================

----- Orbital basis set information -----
Your calculation utilizes the basis: def2-TZVP
   F. Weigend and R. Ahlrichs, Phys. Chem. Chem. Phys. 7, 3297 (2005).

----- AuxJ basis set information -----
Your calculation utilizes the auxiliary basis: def2/J
   F. Weigend, Phys. Chem. Chem. Phys. 8, 1057 (2006).

================================================================================
                                        WARNINGS
                       Please study these warnings very carefully!
================================================================================

INFO   : Checking CIS options ...

WARNING: CIS/ROCIS methods need fully converged wavefunctions
  ===> : Setting SCFConvForced true
         You can overwrite this default with %scf ConvForced false 


INFO   : the flag for use of the SHARK integral package has been found!

================================================================================
                                       INPUT FILE
================================================================================
NAME = ox_es1_A_orca0026.inp
|  1> ! engrad PBE0 D3BJ def2-TZVP  
|  2> %pal nprocs 8 end
|  3> %maxcore 3000
|  4> 
|  5> %tddft
|  6>   nroots 1
|  7>   tda true
|  8>   Iroot 1
|  9>   end 
| 10> *xyz 0 1 
| 11> O   0.028853656359027004 0.7567720406978504 0.018557403668565443
| 12> C   -0.759088849335791 -0.442691000626355 -0.007783861769603974
| 13> C   0.7872786430829903 -0.43429944783493935 0.01688013310376011
| 14> H   -1.2844167783061233 -0.6926511212036247 0.898348310609019
| 15> H   -1.244100162881085 -0.6893201340410132 -0.9054874771551794
| 16> H   1.3675928599322718 -0.6247146248284154 -0.936277396608392
| 17> H   1.3238835661081974 -0.6886745786510775 0.8180699432411073
| 18> *
| 19> 
| 20>                          ****END OF INPUT****
================================================================================

                     *******************************
                     * Energy+Gradient Calculation *
                     *******************************

---------------------------------
CARTESIAN COORDINATES (ANGSTROEM)
---------------------------------
  O      0.028854    0.756772    0.018557
  C     -0.759089   -0.442691   -0.007784
  C      0.787279   -0.434299    0.016880
  H     -1.284417   -0.692651    0.898348
  H     -1.244100   -0.689320   -0.905487
  H      1.367593   -0.624715   -0.936277
  H      1.323884   -0.688675    0.818070

----------------------------
CARTESIAN COORDINATES (A.U.)
----------------------------
  NO LB      ZA    FRAG     MASS         X           Y           Z
   0 O     8.0000    0    15.999    0.054526    1.430092    0.035068
   1 C     6.0000    0    12.011   -1.434470   -0.836565   -0.014709
   2 C     6.0000    0    12.011    1.487741   -0.820707    0.031899
   3 H     1.0000    0     1.008   -2.427196   -1.308921    1.697632
   4 H     1.0000    0     1.008   -2.351009   -1.302626   -1.711123
   5 H     1.0000    0     1.008    2.584376   -1.180540   -1.769308
   6 H     1.0000    0     1.008    2.501777   -1.301406    1.545928

--------------------------------
INTERNAL COORDINATES (ANGSTROEM)
--------------------------------
 O      0   0   0     0.000000000000     0.00000000     0.00000000
 C      1   0   0     1.435360178509     0.00000000     0.00000000
 C      1   2   0     1.412041983979    65.79170296     0.00000000
 H      2   1   3     1.076812429653   116.50944536   107.85576253
 H      2   1   3     1.049730291452   117.75299467   252.70794758
 H      3   1   2     1.132047616646   114.72215858   110.99923638
 H      3   1   2     0.997274617375   120.21225259   247.36704719

---------------------------
INTERNAL COORDINATES (A.U.)
---------------------------
 O      0   0   0     0.000000000000     0.00000000     0.00000000
 C      1   0   0     2.712437640918     0.00000000     0.00000000
 C      1   2   0     2.668372639319    65.79170296     0.00000000
 H      2   1   3     2.034880589646   116.50944536   107.85576253
 H      2   1   3     1.983702765326   117.75299467   252.70794758
 H      3   1   2     2.139259966019   114.72215858   110.99923638
 H      3   1   2     1.884575907150   120.21225259   247.36704719

---------------------
BASIS SET INFORMATION
---------------------
There are 3 groups of distinct atoms

 Group   1 Type O   : 11s6p2d1f contracted to 5s3p2d1f pattern {62111/411/11/1}
 Group   2 Type C   : 11s6p2d1f contracted to 5s3p2d1f pattern {62111/411/11/1}
 Group   3 Type H   : 5s1p contracted to 3s1p pattern {311/1}

Atom   0O    basis set group =>   1
Atom   1C    basis set group =>   2
Atom   2C    basis set group =>   2
Atom   3H    basis set group =>   3
Atom   4H    basis set group =>   3
Atom   5H    basis set group =>   3
Atom   6H    basis set group =>   3
---------------------------------
AUXILIARY/J BASIS SET INFORMATION
---------------------------------
There are 3 groups of distinct atoms

 Group   1 Type O   : 12s5p4d2f1g contracted to 6s4p3d1f1g pattern {711111/2111/211/2/1}
 Group   2 Type C   : 12s5p4d2f1g contracted to 6s4p3d1f1g pattern {711111/2111/211/2/1}
 Group   3 Type H   : 5s2p1d contracted to 3s1p1d pattern {311/2/1}

Atom   0O    basis set group =>   1
Atom   1C    basis set group =>   2
Atom   2C    basis set group =>   2
Atom   3H    basis set group =>   3
Atom   4H    basis set group =>   3
Atom   5H    basis set group =>   3
Atom   6H    basis set group =>   3

Checking for AutoStart:
The File: ox_es1_A_orca0026.gbw exists
Trying to determine its content:
     ... Fine, the file contains calculation information
     ... Fine, the calculation information was read
     ... Fine, the file contains a basis set
     ... Fine, the basis set was read
     ... Fine, the file contains a geometry
     ... Fine, the geometry was read
     ... Fine, the file contains a set of orbitals
     ... Fine, the orbitals can be read
     => possible old guess file was deleted
     => GBW file was renamed to GES file
     => GES file is set as startup file
     => Guess is set to MORead
     ... now leaving AutoStart



           ************************************************************
           *        Program running with 8 parallel MPI-processes     *
           *              working on a common directory               *
           ************************************************************
------------------------------------------------------------------------------
                           ORCA GTO INTEGRAL CALCULATION
                           -- RI-GTO INTEGRALS CHOSEN --
------------------------------------------------------------------------------
------------------------------------------------------------------------------
                   ___                                                        
                  /   \      - P O W E R E D   B Y -                         
                 /     \                                                     
                 |  |  |   _    _      __       _____    __    __             
                 |  |  |  | |  | |    /  \     |  _  \  |  |  /  |          
                  \  \/   | |  | |   /    \    | | | |  |  | /  /          
                 / \  \   | |__| |  /  /\  \   | |_| |  |  |/  /          
                |  |  |   |  __  | /  /__\  \  |    /   |      \           
                |  |  |   | |  | | |   __   |  |    \   |  |\   \          
                \     /   | |  | | |  |  |  |  | |\  \  |  | \   \       
                 \___/    |_|  |_| |__|  |__|  |_| \__\ |__|  \__/        
                                                                              
                      - O R C A' S   B I G   F R I E N D -                    
                                      &                                       
                       - I N T E G R A L  F E E D E R -                       
                                                                              
 v1 FN, 2020, v2 2021                                                         
------------------------------------------------------------------------------


Reading SHARK input file ox_es1_A_orca0026.SHARKINP.tmp ... ok
----------------------
SHARK INTEGRAL PACKAGE
----------------------

Number of atoms                             ...      7
Number of basis functions                   ...    117
Number of shells                            ...     49
Maximum angular momentum                    ...      3
Integral batch strategy                     ... SHARK/LIBINT Hybrid
RI-J (if used) integral strategy            ... SPLIT-RIJ (Revised 2003 algorithm where possible)
Printlevel                                  ...      1
Contraction scheme used                     ... SEGMENTED contraction
Coulomb Range Separation                    ... NOT USED
Exchange Range Separation                   ... NOT USED
Finite Nucleus Model                        ... NOT USED
Auxiliary Coulomb fitting basis             ... AVAILABLE
   # of basis functions in Aux-J            ...    191
   # of shells in Aux-J                     ...     65
   Maximum angular momentum in Aux-J        ...      4
Auxiliary J/K fitting basis                 ... NOT available
Auxiliary Correlation fitting basis         ... NOT available
Auxiliary 'external' fitting basis          ... NOT available
Integral threshold                          ...     2.500000e-11
Primitive cut-off                           ...     2.500000e-12
Primitive pair pre-selection threshold      ...     2.500000e-12

Calculating pre-screening integrals         ... done (  0.0 sec) Dimension = 49
Organizing shell pair data                  ... done (  0.0 sec)
Shell pair information
Total number of shell pairs                 ...      1225
Shell pairs after pre-screening             ...      1220
Total number of primitive shell pairs       ...      3648
Primitive shell pairs kept                  ...      3144
          la=0 lb=0:    373 shell pairs
          la=1 lb=0:    351 shell pairs
          la=1 lb=1:     91 shell pairs
          la=2 lb=0:    162 shell pairs
          la=2 lb=1:     78 shell pairs
          la=2 lb=2:     21 shell pairs
          la=3 lb=0:     81 shell pairs
          la=3 lb=1:     39 shell pairs
          la=3 lb=2:     18 shell pairs
          la=3 lb=3:      6 shell pairs

Calculating one electron integrals          ... done (  0.0 sec)
Calculating RI/J V-Matrix + Cholesky decomp.... done (  0.0 sec)
Calculating Nuclear repulsion               ... done (  0.0 sec) ENN=     74.830159247087 Eh

SHARK setup successfully completed in   0.1 seconds

Maximum memory used throughout the entire GTOINT-calculation: 14.9 MB


           ************************************************************
           *        Program running with 8 parallel MPI-processes     *
           *              working on a common directory               *
           ************************************************************
-------------------------------------------------------------------------------
                                 ORCA SCF
-------------------------------------------------------------------------------

------------
SCF SETTINGS
------------
Hamiltonian:
 Density Functional     Method          .... DFT(GTOs)
 Exchange Functional    Exchange        .... PBE
   PBE kappa parameter   XKappa         ....  0.804000
   PBE mue parameter    XMuePBE         ....  0.219520
 Correlation Functional Correlation     .... PBE
   PBE beta parameter  CBetaPBE         ....  0.066725
 LDA part of GGA corr.  LDAOpt          .... PW91-LDA
 Gradients option       PostSCFGGA      .... off
 Hybrid DFT is turned on
   Fraction HF Exchange ScalHFX         ....  0.250000
   Scaling of DF-GGA-X  ScalDFX         ....  0.750000
   Scaling of DF-GGA-C  ScalDFC         ....  1.000000
   Scaling of DF-LDA-C  ScalLDAC        ....  1.000000
   Perturbative correction              ....  0.000000
   Density functional embedding theory  .... OFF
   NL short-range parameter             ....  6.900000
 RI-approximation to the Coulomb term is turned on
   Number of AuxJ basis functions       .... 191
   RIJ-COSX (HFX calculated with COS-X)).... on


General Settings:
 Integral files         IntName         .... ox_es1_A_orca0026
 Hartree-Fock type      HFTyp           .... RHF
 Total Charge           Charge          ....    0
 Multiplicity           Mult            ....    1
 Number of Electrons    NEL             ....   24
 Basis Dimension        Dim             ....  117
 Nuclear Repulsion      ENuc            ....     74.8301592471 Eh

Convergence Acceleration:
 DIIS                   CNVDIIS         .... on
   Start iteration      DIISMaxIt       ....    12
   Startup error        DIISStart       ....  0.200000
   # of expansion vecs  DIISMaxEq       ....     5
   Bias factor          DIISBfac        ....   1.050
   Max. coefficient     DIISMaxC        ....  10.000
 Trust-Rad. Augm. Hess. CNVTRAH         .... auto
   Auto Start mean grad. ratio tolernc. ....  1.125000
   Auto Start start iteration           ....     1
   Auto Start num. interpolation iter.  ....    10
   Max. Number of Micro iterations      ....    16
   Max. Number of Macro iterations      .... Maxiter - #DIIS iter
   Number of Davidson start vectors     ....     2
   Converg. threshold I  (grad. norm)   ....   1.000e-05
   Converg. threshold II (energy diff.) ....   1.000e-08
   Grad. Scal. Fac. for Micro threshold ....   0.100
   Minimum threshold for Micro iter.    ....   0.010
   NR start threshold (gradient norm)   ....   0.001
   Initial trust radius                 ....   0.400
   Minimum AH scaling param. (alpha)    ....   1.000
   Maximum AH scaling param. (alpha)    .... 1000.000
   Orbital update algorithm             .... Taylor
   White noise on init. David. guess    .... on
   Maximum white noise                  ....   0.010
   Quad. conv. algorithm                .... NR
 SOSCF                  CNVSOSCF        .... on
   Start iteration      SOSCFMaxIt      ....   150
   Startup grad/error   SOSCFStart      ....  0.003300
 Level Shifting         CNVShift        .... on
   Level shift para.    LevelShift      ....    0.2500
   Turn off err/grad.   ShiftErr        ....    0.0010
 Zerner damping         CNVZerner       .... off
 Static damping         CNVDamp         .... on
   Fraction old density DampFac         ....    0.7000
   Max. Damping (<1)    DampMax         ....    0.9800
   Min. Damping (>=0)   DampMin         ....    0.0000
   Turn off err/grad.   DampErr         ....    0.1000
 Fernandez-Rico         CNVRico         .... off

SCF Procedure:
 Maximum # iterations   MaxIter         ....   125
 SCF integral mode      SCFMode         .... Direct
   Integral package                     .... SHARK and LIBINT hybrid scheme
 Reset frequency        DirectResetFreq ....    20
 Integral Threshold     Thresh          ....  2.500e-11 Eh
 Primitive CutOff       TCut            ....  2.500e-12 Eh

Convergence Tolerance:
 Convergence Check Mode ConvCheckMode   .... Total+1el-Energy
 Convergence forced     ConvForced      .... 1
 Energy Change          TolE            ....  1.000e-08 Eh
 1-El. energy change                    ....  1.000e-05 Eh
 Orbital Gradient       TolG            ....  1.000e-05
 Orbital Rotation angle TolX            ....  1.000e-05
 DIIS Error             TolErr          ....  5.000e-07


Diagonalization of the overlap matrix:
Smallest eigenvalue                        ... 6.253e-04
Time for diagonalization                   ...    0.001 sec
Threshold for overlap eigenvalues          ... 1.000e-08
Number of eigenvalues below threshold      ... 0
Time for construction of square roots      ...    0.002 sec
Total time needed                          ...    0.003 sec

---------------------
INITIAL GUESS: MOREAD
---------------------
Guess MOs are being read from file: ox_es1_A_orca0026.ges
Input Geometry matches current geometry (good)
Input basis set matches current basis set (good)
MOs were renormalized
MOs were reorthogonalized (Cholesky)
                      ------------------
                      INITIAL GUESS DONE (   0.0 sec)
                      ------------------
-------------------
DFT GRID GENERATION
-------------------

General Integration Accuracy     IntAcc      ... 4.388
Radial Grid Type                 RadialGrid  ... OptM3 with GC (2021)
Angular Grid (max. ang.)         AngularGrid ... 4 (Lebedev-302)
Angular grid pruning method      GridPruning ... 4 (adaptive)
Weight generation scheme         WeightScheme... Becke
Basis function cutoff            BFCut       ... 1.0000e-11
Integration weight cutoff        WCut        ... 1.0000e-14
Angular grids for H and He will be reduced by one unit
Partially contracted basis set               ... off
Rotationally invariant grid construction     ... off

Total number of grid points                  ...    31301
Total number of batches                      ...      493
Average number of points per batch           ...       63
Average number of grid points per atom       ...     4472
Time for grid setup =    0.119 sec

--------------------
COSX GRID GENERATION
--------------------

GRIDX 1
-------
General Integration Accuracy     IntAcc      ... 3.816
Radial Grid Type                 RadialGrid  ... OptM3 with GC (2021)
Angular Grid (max. ang.)         AngularGrid ... 1 (Lebedev-50)
Angular grid pruning method      GridPruning ... 4 (adaptive)
Weight generation scheme         WeightScheme... Becke
Basis function cutoff            BFCut       ... 1.0000e-11
Integration weight cutoff        WCut        ... 1.0000e-14
Angular grids for H and He will be reduced by one unit
Partially contracted basis set               ... on
Rotationally invariant grid construction     ... off

Total number of grid points                  ...     4034
Total number of batches                      ...       68
Average number of points per batch           ...       59
Average number of grid points per atom       ...      576
UseSFitting                                  ... on

GRIDX 2
-------
General Integration Accuracy     IntAcc      ... 4.020
Radial Grid Type                 RadialGrid  ... OptM3 with GC (2021)
Angular Grid (max. ang.)         AngularGrid ... 2 (Lebedev-110)
Angular grid pruning method      GridPruning ... 4 (adaptive)
Weight generation scheme         WeightScheme... Becke
Basis function cutoff            BFCut       ... 1.0000e-11
Integration weight cutoff        WCut        ... 1.0000e-14
Angular grids for H and He will be reduced by one unit
Partially contracted basis set               ... on
Rotationally invariant grid construction     ... off

Total number of grid points                  ...     8712
Total number of batches                      ...      141
Average number of points per batch           ...       61
Average number of grid points per atom       ...     1245
UseSFitting                                  ... on

GRIDX 3
-------
General Integration Accuracy     IntAcc      ... 4.338
Radial Grid Type                 RadialGrid  ... OptM3 with GC (2021)
Angular Grid (max. ang.)         AngularGrid ... 3 (Lebedev-194)
Angular grid pruning method      GridPruning ... 4 (adaptive)
Weight generation scheme         WeightScheme... Becke
Basis function cutoff            BFCut       ... 1.0000e-11
Integration weight cutoff        WCut        ... 1.0000e-14
Angular grids for H and He will be reduced by one unit
Partially contracted basis set               ... on
Rotationally invariant grid construction     ... off

Total number of grid points                  ...    19258
Total number of batches                      ...      304
Average number of points per batch           ...       63
Average number of grid points per atom       ...     2751
UseSFitting                                  ... on

Time for X-Grid setup             =    0.074 sec

--------------
SCF ITERATIONS
--------------
ITER       Energy         Delta-E        Max-DP      RMS-DP      [F,P]     Damp
               ***  Starting incremental Fock matrix formation  ***
                      *** Initiating the SOSCF procedure ***
                      *** Re-Reading the Fockian *** 
                      *** Removing any level shift *** 
ITER      Energy       Delta-E        Grad      Rot      Max-DP    RMS-DP
  0   -153.66047616 -153.6604761645  0.000001  0.000001  0.000001  0.000000
               *** Restarting incremental Fock matrix formation ***
                  ***Gradient check signals convergence***
              ***Rediagonalizing the Fockian in SOSCF/NRSCF***

               *****************************************************
               *                     SUCCESS                       *
               *           SCF CONVERGED AFTER   1 CYCLES          *
               *****************************************************

Old exchange energy                            =     -4.998292736 Eh
New exchange energy                            =     -4.998292122 Eh
Exchange energy change after final integration =      0.000000614 Eh
Total energy after final integration           =   -153.660475551 Eh
Final COS-X integration done in                =     0.261 sec

----------------
TOTAL SCF ENERGY
----------------

Total Energy       :         -153.66047555 Eh           -4181.31411 eV

Components:
Nuclear Repulsion  :           74.83015925 Eh            2036.23215 eV
Electronic Energy  :         -228.49063480 Eh           -6217.54627 eV
One Electron Energy:         -356.29865277 Eh           -9695.37925 eV
Two Electron Energy:          127.80801797 Eh            3477.83298 eV
Max COSX asymmetry :            0.00000316 Eh               0.00009 eV

Virial components:
Potential Energy   :         -306.64275260 Eh           -8344.17351 eV
Kinetic Energy     :          152.98227705 Eh            4162.85939 eV
Virial Ratio       :            2.00443318


DFT components:
N(Alpha)           :       12.000001308287 electrons
N(Beta)            :       12.000001308287 electrons
N(Total)           :       24.000002616573 electrons
E(X)               :      -14.965111003946 Eh       
E(C)               :       -0.789470826747 Eh       
E(XC)              :      -15.754581830692 Eh       
DFET-embed. en.    :        0.000000000000 Eh       

---------------
SCF CONVERGENCE
---------------

  Last Energy change         ...    2.8990e-12  Tolerance :   1.0000e-08
  Last MAX-Density change    ...    1.4433e-15  Tolerance :   1.0000e-07
  Last RMS-Density change    ...    2.8704e-17  Tolerance :   5.0000e-09
  Last Orbital Gradient      ...    4.5827e-07  Tolerance :   1.0000e-05
  Last Orbital Rotation      ...    9.8587e-07  Tolerance :   1.0000e-05

             **** THE GBW FILE WAS UPDATED (ox_es1_A_orca0026.gbw) ****
             **** DENSITY ox_es1_A_orca0026.scfp WAS UPDATED ****
             **** ENERGY FILE WAS UPDATED (ox_es1_A_orca0026.en.tmp) ****
             **** THE GBW FILE WAS UPDATED (ox_es1_A_orca0026.gbw) ****
             **** DENSITY ox_es1_A_orca0026.scfp WAS UPDATED ****
----------------
ORBITAL ENERGIES
----------------

  NO   OCC          E(Eh)            E(eV) 
   0   2.0000     -19.226626      -523.1831 
   1   2.0000     -10.277770      -279.6723 
   2   2.0000     -10.274343      -279.5791 
   3   2.0000      -1.103171       -30.0188 
   4   2.0000      -0.694087       -18.8871 
   5   2.0000      -0.670319       -18.2403 
   6   2.0000      -0.526519       -14.3273 
   7   2.0000      -0.501514       -13.6469 
   8   2.0000      -0.430796       -11.7225 
   9   2.0000      -0.405307       -11.0290 
  10   2.0000      -0.314851        -8.5675 
  11   2.0000      -0.292130        -7.9493 
  12   0.0000       0.066029         1.7968 
  13   0.0000       0.069526         1.8919 
  14   0.0000       0.084091         2.2882 
  15   0.0000       0.103199         2.8082 
  16   0.0000       0.111344         3.0298 
  17   0.0000       0.154423         4.2021 
  18   0.0000       0.195176         5.3110 
  19   0.0000       0.212544         5.7836 
  20   0.0000       0.266201         7.2437 
  21   0.0000       0.269822         7.3422 
  22   0.0000       0.285412         7.7664 
  23   0.0000       0.335297         9.1239 
  24   0.0000       0.377994        10.2857 
  25   0.0000       0.387643        10.5483 
  26   0.0000       0.409013        11.1298 
  27   0.0000       0.410863        11.1802 
  28   0.0000       0.454503        12.3676 
  29   0.0000       0.469289        12.7700 
  30   0.0000       0.500312        13.6142 
  31   0.0000       0.525169        14.2906 
  32   0.0000       0.539877        14.6908 
  33   0.0000       0.703975        19.1561 
  34   0.0000       0.714018        19.4294 
  35   0.0000       0.717666        19.5287 
  36   0.0000       0.824244        22.4288 
  37   0.0000       0.858033        23.3483 
  38   0.0000       0.907172        24.6854 
  39   0.0000       0.931531        25.3482 
  40   0.0000       1.004682        27.3388 
  41   0.0000       1.015071        27.6215 
  42   0.0000       1.073798        29.2195 
  43   0.0000       1.078053        29.3353 
  44   0.0000       1.146662        31.2023 
  45   0.0000       1.350474        36.7483 
  46   0.0000       1.448938        39.4276 
  47   0.0000       1.489245        40.5244 
  48   0.0000       1.504418        40.9373 
  49   0.0000       1.509380        41.0723 
  50   0.0000       1.585426        43.1416 
  51   0.0000       1.614169        43.9238 
  52   0.0000       1.679307        45.6963 
  53   0.0000       1.724921        46.9375 
  54   0.0000       1.777030        48.3555 
  55   0.0000       1.811148        49.2838 
  56   0.0000       1.861493        50.6538 
  57   0.0000       1.909010        51.9468 
  58   0.0000       1.929211        52.4965 
  59   0.0000       1.950346        53.0716 
  60   0.0000       2.130171        57.9649 
  61   0.0000       2.156239        58.6743 
  62   0.0000       2.191057        59.6217 
  63   0.0000       2.233671        60.7813 
  64   0.0000       2.266086        61.6633 
  65   0.0000       2.418872        65.8209 
  66   0.0000       2.453482        66.7626 
  67   0.0000       2.516782        68.4851 
  68   0.0000       2.527495        68.7766 
  69   0.0000       2.558966        69.6330 
  70   0.0000       2.627381        71.4947 
  71   0.0000       2.649499        72.0965 
  72   0.0000       2.678633        72.8893 
  73   0.0000       2.723310        74.1050 
  74   0.0000       2.766963        75.2929 
  75   0.0000       2.831689        77.0542 
  76   0.0000       2.855404        77.6995 
  77   0.0000       2.942625        80.0729 
  78   0.0000       2.986730        81.2731 
  79   0.0000       3.013076        81.9900 
  80   0.0000       3.043226        82.8104 
  81   0.0000       3.088651        84.0465 
  82   0.0000       3.156272        85.8865 
  83   0.0000       3.207193        87.2722 
  84   0.0000       3.297126        89.7193 
  85   0.0000       3.307222        89.9941 
  86   0.0000       3.351126        91.1888 
  87   0.0000       3.428687        93.2993 
  88   0.0000       3.554327        96.7182 
  89   0.0000       3.601402        97.9991 
  90   0.0000       3.647270        99.2473 
  91   0.0000       3.704567       100.8064 
  92   0.0000       3.826361       104.1206 
  93   0.0000       3.976674       108.2108 
  94   0.0000       4.081740       111.0698 
  95   0.0000       4.173289       113.5610 
  96   0.0000       4.253945       115.7557 
  97   0.0000       4.290983       116.7636 
  98   0.0000       4.389129       119.4343 
  99   0.0000       4.572057       124.4120 
 100   0.0000       4.737833       128.9230 
 101   0.0000       4.837439       131.6334 
 102   0.0000       5.317781       144.7042 
 103   0.0000       5.471600       148.8898 
 104   0.0000       5.714924       155.5110 
 105   0.0000       5.775760       157.1664 
 106   0.0000       5.804214       157.9407 
 107   0.0000       5.905351       160.6928 
 108   0.0000       6.056709       164.8114 
 109   0.0000       6.634876       180.5442 
 110   0.0000       6.640039       180.6846 
 111   0.0000       6.781468       184.5331 
 112   0.0000       6.959297       189.3721 
 113   0.0000       7.184611       195.5032 
 114   0.0000      22.354286       608.2911 
 115   0.0000      22.420895       610.1036 
 116   0.0000      43.862114      1193.5488 

                    ********************************
                    * MULLIKEN POPULATION ANALYSIS *
                    ********************************

-----------------------
MULLIKEN ATOMIC CHARGES
-----------------------
   0 O :   -0.304840
   1 C :   -0.083178
   2 C :   -0.078806
   3 H :    0.117954
   4 H :    0.119053
   5 H :    0.108153
   6 H :    0.121664
Sum of atomic charges:   -0.0000000

--------------------------------
MULLIKEN REDUCED ORBITAL CHARGES
--------------------------------
  0 O s       :     3.848423  s :     3.848423
      pz      :     1.839428  p :     4.410514
      px      :     1.287720
      py      :     1.283366
      dz2     :     0.005817  d :     0.043756
      dxz     :     0.002778
      dyz     :     0.006528
      dx2y2   :     0.012364
      dxy     :     0.016268
      f0      :     0.000259  f :     0.002147
      f+1     :     0.000223
      f-1     :     0.000458
      f+2     :     0.000064
      f-2     :     0.000214
      f+3     :     0.000338
      f-3     :     0.000591
  1 C s       :     3.230631  s :     3.230631
      pz      :     1.044078  p :     2.738113
      px      :     0.897089
      py      :     0.796946
      dz2     :     0.006186  d :     0.103402
      dxz     :     0.023567
      dyz     :     0.028441
      dx2y2   :     0.026679
      dxy     :     0.018528
      f0      :     0.001432  f :     0.011032
      f+1     :     0.001416
      f-1     :     0.000623
      f+2     :     0.000920
      f-2     :     0.001739
      f+3     :     0.002293
      f-3     :     0.002609
  2 C s       :     3.222583  s :     3.222583
      pz      :     1.054328  p :     2.736780
      px      :     0.889344
      py      :     0.793108
      dz2     :     0.005239  d :     0.107914
      dxz     :     0.025985
      dyz     :     0.029777
      dx2y2   :     0.028548
      dxy     :     0.018365
      f0      :     0.001460  f :     0.011530
      f+1     :     0.001435
      f-1     :     0.000627
      f+2     :     0.001104
      f-2     :     0.001828
      f+3     :     0.002320
      f-3     :     0.002757
  3 H s       :     0.860273  s :     0.860273
      pz      :     0.010806  p :     0.021772
      px      :     0.006636
      py      :     0.004330
  4 H s       :     0.858298  s :     0.858298
      pz      :     0.011226  p :     0.022649
      px      :     0.006741
      py      :     0.004683
  5 H s       :     0.872179  s :     0.872179
      pz      :     0.010152  p :     0.019667
      px      :     0.006132
      py      :     0.003383
  6 H s       :     0.854526  s :     0.854526
      pz      :     0.010380  p :     0.023810
      px      :     0.008070
      py      :     0.005360


                     *******************************
                     * LOEWDIN POPULATION ANALYSIS *
                     *******************************

----------------------
LOEWDIN ATOMIC CHARGES
----------------------
   0 O :    0.127716
   1 C :   -0.264866
   2 C :   -0.285157
   3 H :    0.112124
   4 H :    0.104401
   5 H :    0.121105
   6 H :    0.084678

-------------------------------
LOEWDIN REDUCED ORBITAL CHARGES
-------------------------------
  0 O s       :     3.374895  s :     3.374895
      pz      :     1.719341  p :     4.393038
      px      :     1.280838
      py      :     1.392860
      dz2     :     0.011641  d :     0.097533
      dxz     :     0.008818
      dyz     :     0.014786
      dx2y2   :     0.034215
      dxy     :     0.028073
      f0      :     0.000645  f :     0.006819
      f+1     :     0.000304
      f-1     :     0.000856
      f+2     :     0.000122
      f-2     :     0.001031
      f+3     :     0.001246
      f-3     :     0.002615
  1 C s       :     2.832069  s :     2.832069
      pz      :     1.070471  p :     2.930733
      px      :     1.004597
      py      :     0.855665
      dz2     :     0.052423  d :     0.436774
      dxz     :     0.115368
      dyz     :     0.083250
      dx2y2   :     0.096907
      dxy     :     0.088826
      f0      :     0.008883  f :     0.065290
      f+1     :     0.005669
      f-1     :     0.005340
      f+2     :     0.005871
      f-2     :     0.007554
      f+3     :     0.014834
      f-3     :     0.017139
  2 C s       :     2.823646  s :     2.823646
      pz      :     1.072245  p :     2.931162
      px      :     0.997283
      py      :     0.861634
      dz2     :     0.050363  d :     0.460809
      dxz     :     0.126484
      dyz     :     0.085859
      dx2y2   :     0.104521
      dxy     :     0.093582
      f0      :     0.008785  f :     0.069540
      f+1     :     0.005904
      f-1     :     0.005628
      f+2     :     0.007148
      f-2     :     0.008233
      f+3     :     0.015361
      f-3     :     0.018481
  3 H s       :     0.823385  s :     0.823385
      pz      :     0.033084  p :     0.064491
      px      :     0.018225
      py      :     0.013182
  4 H s       :     0.826508  s :     0.826508
      pz      :     0.035459  p :     0.069091
      px      :     0.019031
      py      :     0.014601
  5 H s       :     0.823682  s :     0.823682
      pz      :     0.029600  p :     0.055213
      px      :     0.015788
      py      :     0.009825
  6 H s       :     0.836709  s :     0.836709
      pz      :     0.036325  p :     0.078613
      px      :     0.024420
      py      :     0.017867


                      *****************************
                      * MAYER POPULATION ANALYSIS *
                      *****************************

  NA   - Mulliken gross atomic population
  ZA   - Total nuclear charge
  QA   - Mulliken gross atomic charge
  VA   - Mayer's total valence
  BVA  - Mayer's bonded valence
  FA   - Mayer's free valence

  ATOM       NA         ZA         QA         VA         BVA        FA
  0 O      8.3048     8.0000    -0.3048     1.9987     1.9987    -0.0000
  1 C      6.0832     6.0000    -0.0832     3.9623     3.9623     0.0000
  2 C      6.0788     6.0000    -0.0788     3.9636     3.9636     0.0000
  3 H      0.8820     1.0000     0.1180     0.9608     0.9608    -0.0000
  4 H      0.8809     1.0000     0.1191     0.9591     0.9591    -0.0000
  5 H      0.8918     1.0000     0.1082     0.9637     0.9637     0.0000
  6 H      0.8783     1.0000     0.1217     0.9546     0.9546     0.0000

  Mayer bond orders larger than 0.100000
B(  0-O ,  1-C ) :   0.9896 B(  0-O ,  2-C ) :   0.9895 B(  1-C ,  2-C ) :   1.0486 
B(  1-C ,  3-H ) :   0.9566 B(  1-C ,  4-H ) :   0.9559 B(  2-C ,  5-H ) :   0.9566 
B(  2-C ,  6-H ) :   0.9586 

-------
TIMINGS
-------

Total SCF time: 0 days 0 hours 0 min 1 sec 

Total time                  ....       1.010 sec
Sum of individual times     ....       0.919 sec  ( 91.0%)

Fock matrix formation       ....       0.708 sec  ( 70.1%)
  Split-RI-J                ....       0.119 sec  ( 16.9% of F)
  Chain of spheres X        ....       0.523 sec  ( 73.8% of F)
  XC integration            ....       0.063 sec  (  9.0% of F)
    Basis function eval.    ....       0.018 sec  ( 28.5% of XC)
    Density eval.           ....       0.014 sec  ( 22.0% of XC)
    XC-Functional eval.     ....       0.004 sec  (  5.9% of XC)
    XC-Potential eval.      ....       0.021 sec  ( 32.5% of XC)
Diagonalization             ....       0.002 sec  (  0.2%)
Density matrix formation    ....       0.001 sec  (  0.1%)
Population analysis         ....       0.003 sec  (  0.3%)
Initial guess               ....       0.009 sec  (  0.9%)
Orbital Transformation      ....       0.000 sec  (  0.0%)
Orbital Orthonormalization  ....       0.001 sec  (  0.1%)
DIIS solution               ....       0.001 sec  (  0.1%)
SOSCF solution              ....       0.002 sec  (  0.2%)
Grid generation             ....       0.193 sec  ( 19.1%)

Maximum memory used throughout the entire SCF-calculation: 61.1 MB


           ************************************************************
           *        Program running with 8 parallel MPI-processes     *
           *              working on a common directory               *
           ************************************************************
------------------------------------------------------------------------------
                        ORCA TD-DFT/TDA CALCULATION
------------------------------------------------------------------------------

Input orbitals are from        ... ox_es1_A_orca0026.gbw
CI-vector output               ... ox_es1_A_orca0026.cis
Tamm-Dancoff approximation     ... operative
CIS-Integral strategy          ... AO-integrals
Integral handling              ... AO integral Direct
Max. core memory used          ... 3000 MB
Reference state                ... RHF
Generation of triplets         ... off
Follow IRoot                   ... off
Number of operators            ... 1
Orbital ranges used for CIS calculation:
 Operator 0:  Orbitals   3... 11  to  12...116
XAS localization array:
 Operator 0:  Orbitals  -1... -1

-------------------
XC-INTEGRATION GRID
-------------------

General Integration Accuracy     IntAcc      ... 3.467
Radial Grid Type                 RadialGrid  ... OptM3 with GC (2021)
Angular Grid (max. ang.)         AngularGrid ... 1 (Lebedev-50)
Angular grid pruning method      GridPruning ... 4 (adaptive)
Weight generation scheme         WeightScheme... Becke
Basis function cutoff            BFCut       ... 1.0000e-11
Integration weight cutoff        WCut        ... 1.0000e-14
Angular grids for H and He will be reduced by one unit
Partially contracted basis set               ... off
Rotationally invariant grid construction     ... off

Total number of grid points                  ...     4536
Total number of batches                      ...       75
Average number of points per batch           ...       60
Average number of grid points per atom       ...      648

---------------------
COSX-INTEGRATION GRID
---------------------

General Integration Accuracy     IntAcc      ... 3.067
Radial Grid Type                 RadialGrid  ... OptM3 with GC (2021)
Angular Grid (max. ang.)         AngularGrid ... 1 (Lebedev-50)
Angular grid pruning method      GridPruning ... 4 (adaptive)
Weight generation scheme         WeightScheme... Becke
Basis function cutoff            BFCut       ... 1.0000e-11
Integration weight cutoff        WCut        ... 1.0000e-14
Angular grids for H and He will be reduced by one unit
Partially contracted basis set               ... on
Rotationally invariant grid construction     ... off

Total number of grid points                  ...     2083
Total number of batches                      ...       38
Average number of points per batch           ...       54
Average number of grid points per atom       ...      298

---------------
TD-DFT XC SETUP
---------------

DFT calculation                         ... on
Name of the grid file                   ... ox_es1_A_orca0026.grid_cis.tmp
Exchange functional (TD-DFT)            ... PBE
   PBE kappa parameter  XKappa (TD-DFT) ...  0.804000
   PBE mue parameter   XMuePBE (TD-DFT) ...  0.219520
Correlation functional (TD-DFT)         ... PBE
   PBE beta parameter CBetaPBE (TD-DFT) ...  0.066725
 LDA part of GGA corr.  LDAOpt (TD-DFT) ... PW91-LDA
Hybrid DFT                              ... on
   Exchange mixing (TD-DFT)             ...  0.250
   GGA exch. scaling (TD-DFT)           ...  0.750
   GGA corr. scaling (TD-DFT)           ...  1.000

Building densities             ... done
Calculating rho(r) on the grid ... done
Building xc-kernel on the grid ... done
                    *** TD-DFT CALCULATION INITIALIZED ***

------------------------
DAVIDSON-DIAGONALIZATION
------------------------

Dimension of the eigenvalue problem            ...    945
Number of roots to be determined               ...      1
Maximum size of the expansion space            ...     10
Maximum number of iterations                   ...    100
Convergence tolerance for the residual         ...    2.500e-07
Convergence tolerance for the energies         ...    2.500e-07
Orthogonality tolerance                        ...    1.000e-14
Level Shift                                    ...    0.000e+00
Constructing the preconditioner                ... o.k.
Building the initial guess                     ... o.k.
Number of trial vectors determined             ...     10


                       ****Iteration    0****

   Memory handling for direct AO based CIS:
   Memory per vector needed      ...     1 MB
   Memory needed                 ...     1 MB
   Memory available              ...  3000 MB
   Number of vectors per batch   ...  3000
   Number of batches             ...     1
   Time for densities:            0.001
   Time for RI-J (Direct):        0.016
   Time for K (COSX):             0.055
   Time for XC-Integration:       0.016
   Time for Sigma-Completion:     0.000
   Size of expansion space: 3
   Lowest Energy          :     0.295237349639
   Maximum Energy change  :     0.295237349639 (vector 0)
   Maximum residual norm  :     0.001483034460

                       ****Iteration    1****
   Time for densities:            0.000
   Time for RI-J (Direct):        0.013
   Time for K (COSX):             0.049
   Time for XC-Integration:       0.007
   Time for Sigma-Completion:     0.000
   Size of expansion space: 4
   Lowest Energy          :     0.291055649629
   Maximum Energy change  :     0.004181700010 (vector 0)
   Maximum residual norm  :     0.000813037670

                       ****Iteration    2****
   Time for densities:            0.000
   Time for RI-J (Direct):        0.013
   Time for K (COSX):             0.049
   Time for XC-Integration:       0.007
   Time for Sigma-Completion:     0.000
   Size of expansion space: 5
   Lowest Energy          :     0.289962224499
   Maximum Energy change  :     0.001093425130 (vector 0)
   Maximum residual norm  :     0.000227326957

                       ****Iteration    3****
   Time for densities:            0.000
   Time for RI-J (Direct):        0.013
   Time for K (COSX):             0.049
   Time for XC-Integration:       0.007
   Time for Sigma-Completion:     0.000
   Size of expansion space: 6
   Lowest Energy          :     0.289698497115
   Maximum Energy change  :     0.000263727384 (vector 0)
   Maximum residual norm  :     0.000030555006

                       ****Iteration    4****
   Time for densities:            0.000
   Time for RI-J (Direct):        0.013
   Time for K (COSX):             0.050
   Time for XC-Integration:       0.007
   Time for Sigma-Completion:     0.000
   Size of expansion space: 7
   Lowest Energy          :     0.289659875124
   Maximum Energy change  :     0.000038621991 (vector 0)
   Maximum residual norm  :     0.000002380465

                       ****Iteration    5****
   Time for densities:            0.000
   Time for RI-J (Direct):        0.013
   Time for K (COSX):             0.049
   Time for XC-Integration:       0.007
   Time for Sigma-Completion:     0.000
   Size of expansion space: 8
   Lowest Energy          :     0.289657341205
   Maximum Energy change  :     0.000002533919 (vector 0)
   Maximum residual norm  :     0.000000384826

                       ****Iteration    6****
   Time for densities:            0.000
   Time for RI-J (Direct):        0.013
   Time for K (COSX):             0.049
   Time for XC-Integration:       0.007
   Time for Sigma-Completion:     0.000
   Size of expansion space: 9
   Lowest Energy          :     0.289656869400
   Maximum Energy change  :     0.000000471805 (vector 0)
   Maximum residual norm  :     0.000000063681

      *** CONVERGENCE OF RESIDUAL NORM REACHED ***

Storing the converged CI vectors               ... ox_es1_A_orca0026.cis1

                 *** DAVIDSON DONE ***

Total time for solving the CIS problem:     0.508sec

------------------------------------
TD-DFT/TDA EXCITED STATES (SINGLETS)
------------------------------------

the weight of the individual excitations are printed if larger than 1.0e-02

STATE  1:  E=   0.289657 au      7.882 eV    63572.3 cm**-1 <S**2> =   0.000000
    11a ->  12a  :     0.565879 (c=  0.75224958)
    11a ->  13a  :     0.331381 (c=  0.57565704)
    11a ->  14a  :     0.014530 (c=  0.12054197)
    11a ->  15a  :     0.068961 (c=  0.26260344)
    11a ->  16a  :     0.012231 (c= -0.11059485)


-----------------------------
TD-DFT/TDA-EXCITATION SPECTRA
-----------------------------

Center of mass = (  0.0414, -0.0490,  0.0120)
Calculating the Dipole integrals                  ... done
Transforming integrals                            ... done
Calculating the Linear Momentum integrals         ... done
Transforming integrals                            ... done
Calculating angular momentum integrals            ... done
Transforming integrals                            ... done

-----------------------------------------------------------------------------
         ABSORPTION SPECTRUM VIA TRANSITION ELECTRIC DIPOLE MOMENTS
-----------------------------------------------------------------------------
State   Energy    Wavelength  fosc         T2        TX        TY        TZ  
        (cm-1)      (nm)                 (au**2)    (au)      (au)      (au) 
-----------------------------------------------------------------------------
   1   63572.3    157.3   0.002094438   0.01085   0.04472   0.00146  -0.09404

-----------------------------------------------------------------------------
         ABSORPTION SPECTRUM VIA TRANSITION VELOCITY DIPOLE MOMENTS
-----------------------------------------------------------------------------
State   Energy    Wavelength   fosc        P2         PX        PY        PZ  
        (cm-1)      (nm)                 (au**2)     (au)      (au)      (au) 
-----------------------------------------------------------------------------
   1   63572.3    157.3   0.002412965   0.00105  -0.00903   0.00017   0.03109

-------------------------------------------------------------------
                             CD SPECTRUM
-------------------------------------------------------------------
State  Energy     Wavelength     R         MX        MY        MZ   
       (cm-1)       (nm)     (1e40*cgs)   (au)      (au)      (au)  
-------------------------------------------------------------------
   1   63572.3    157.3     -0.25287  -0.00740  -0.23123  -0.00140

-------------------------------------------------------------------
         CD SPECTRUM VIA TRANSITION VELOCITY DIPOLE MOMENTS        
-------------------------------------------------------------------
State  Energy     Wavelength     R         MX        MY        MZ   
       (cm-1)       (nm)     (1e40*cgs)   (au)      (au)      (au)  
-------------------------------------------------------------------
   1   63572.3    157.3     -0.02594  -0.00740  -0.23123  -0.00140

Total run time:        0.791 sec

           *** ORCA-CIS/TD-DFT FINISHED WITHOUT ERROR ***

Maximum memory used throughout the entire CIS-calculation: 49.4 MB

-----------------------
CIS/TD-DFT TOTAL ENERGY
-----------------------

    E(SCF)  =   -153.660475551 Eh
    DE(CIS) =      0.289656869 Eh (Root  1)
    ----------------------------- ---------
    E(tot)  =   -153.370818681 Eh



-------------------------------------------------------------------------------
                          DFT DISPERSION CORRECTION                            
                                                                               
                              DFTD3 V3.1  Rev 1                                
                          USING Becke-Johnson damping                          
-------------------------------------------------------------------------------
The PBE0 functional is recognized
Active option DFTDOPT                   ...         4   

molecular C6(AA) [au] = 350.862702 


            DFT-D V3
 parameters
 s6 scaling factor         :     1.0000 
 a1 scaling factor         :     0.4145 
 s8 scaling factor         :     1.2177 
 a2 scaling factor         :     4.8593 
 ad hoc parameters k1-k3   :    16.0000     1.3333    -4.0000 

 Edisp/kcal,au: -1.503951516830  -0.002396699044 
 E6   /kcal   :  -0.985619090 
 E8   /kcal   :  -0.518332427 
 % E8         :  34.464703231 

-------------------------   ----------------
Dispersion correction           -0.002396699
-------------------------   ----------------


-------------------------   --------------------
FINAL SINGLE POINT ENERGY      -153.373215380191
-------------------------   --------------------



           ************************************************************
           *        Program running with 8 parallel MPI-processes     *
           *              working on a common directory               *
           ************************************************************
------------------------------------------------------------------------------
                         ORCA SCF GRADIENT CALCULATION
------------------------------------------------------------------------------


------------------------
TD-DFT GRADIENT XC SETUP
------------------------

Building densities                     ... done
Calculating rho(r) on the grid         ... done
Building xc-kernel on the grid         ... done
Building xc 3rd derivative on the grid      ... done
                *** TD-DFT GRADIENT CALCULATION INITIALIZED ***

-------------------
TD-DFT/TDA GRADIENT
-------------------

Reference wavefunction             ... RHF
State of interest                  ... 1
Basis dimension                    ... 117
DFT-XC contribution needed         ... YES
RI-approximation                   ... ON
CIS-vectors being read from        ... ox_es1_A_orca0026.cis

 => Number of Vectors found: 1
 => Orbital Window: 3...11 -> 12...116

Reading the CIS file                     ... done
Norm of the CI vector                    ... 1.000000000
Making the CIS (pseudo)densities         ... done
Making operators G(D) and Q(T)           ... done
Transforming the Fock operators          ... done
Making the frozen-core relaxed density   ... done
Constructing the G(H) operator           ... done
Transforming the G(H) operator           ... done
Calculating the CIS Lagrangian           ... done
Solving the Z-vector equations           ... done
Finalizing the relaxed density           ... done
Storing the relaxed density              ... done
Constructing the G(Z) operator           ... done
Transforming the G(Z) operator           ... done
Making the W-matrix                      ... done
Finalizing the W-matrix                  ... done
Transforming the W-matrix                ... done
Nuclear repulsion gradient               ... done
One-Electron gradient                    ... done
Dispersion correction                    ... done
Prescreening matrices                    ... done
COSX-gradient                            ... done
Coulomb gradient (RI)                    ... done
Exchange-Correlation gradient            ... done

                 ---------------------------
                 EXCITED STATE GRADIENT DONE
                 ---------------------------

------------------
CARTESIAN GRADIENT
------------------

   1   O   :   -0.020031982   -0.045631668   -0.002727797
   2   C   :    0.052829661    0.049939833   -0.016287917
   3   C   :   -0.018710340    0.020999771    0.086921703
   4   H   :    0.005718584   -0.010435515   -0.004259577
   5   H   :    0.014336098   -0.003671305    0.020876755
   6   H   :    0.008893508   -0.016546903   -0.017159741
   7   H   :   -0.042981525    0.005363223   -0.067350907

Difference to translation invariance:
           :    0.0000540040    0.0000174354    0.0000125186

Difference to rotation invariance:
           :    0.0002079680   -0.0000268789   -0.0000588229

Norm of the cartesian gradient     ...    0.1557624309
RMS gradient                       ...    0.0339901490
MAX gradient                       ...    0.0869217026

------------------------------------------------------------------------------
                  RELAXED CIS/TDA DENSITY POPULATION ANALYSIS
                                   IROOT 1
------------------------------------------------------------------------------
------------------------------------------------------------------------------
                           ORCA POPULATION ANALYSIS
------------------------------------------------------------------------------
Input electron density              ... ox_es1_A_orca0026.cisp
BaseName (.gbw .S,...)              ... ox_es1_A_orca0026

                    ********************************
                    * MULLIKEN POPULATION ANALYSIS *
                    ********************************

-----------------------
MULLIKEN ATOMIC CHARGES
-----------------------
   0 O :    0.070820
   1 C :   -0.422851
   2 C :   -0.221424
   3 H :    0.161486
   4 H :    0.163807
   5 H :    0.120147
   6 H :    0.128015
Sum of atomic charges:   -0.0000000

--------------------------------
MULLIKEN REDUCED ORBITAL CHARGES
--------------------------------
  0 O s       :     3.858499  s :     3.858499
      pz      :     1.129944  p :     4.025715
      px      :     1.501316
      py      :     1.394455
      dz2     :     0.005099  d :     0.043314
      dxz     :     0.003315
      dyz     :     0.007373
      dx2y2   :     0.013102
      dxy     :     0.014424
      f0      :     0.000120  f :     0.001653
      f+1     :    -0.000017
      f-1     :     0.000230
      f+2     :     0.000083
      f-2     :     0.000243
      f+3     :     0.000373
      f-3     :     0.000619
  1 C s       :     3.177314  s :     3.177314
      pz      :     1.064300  p :     3.157569
      px      :     1.036850
      py      :     1.056419
      dz2     :     0.007217  d :     0.078096
      dxz     :     0.012762
      dyz     :     0.005246
      dx2y2   :     0.028406
      dxy     :     0.024465
      f0      :     0.000955  f :     0.009872
      f+1     :     0.001392
      f-1     :     0.000653
      f+2     :     0.000657
      f-2     :     0.001305
      f+3     :     0.002639
      f-3     :     0.002270
  2 C s       :     3.121859  s :     3.121859
      pz      :     1.055413  p :     3.011300
      px      :     1.083607
      py      :     0.872279
      dz2     :     0.004707  d :     0.077949
      dxz     :     0.016588
      dyz     :     0.007096
      dx2y2   :     0.030277
      dxy     :     0.019281
      f0      :     0.000915  f :     0.010316
      f+1     :     0.001531
      f-1     :     0.000558
      f+2     :     0.000782
      f-2     :     0.001369
      f+3     :     0.002673
      f-3     :     0.002487
  3 H s       :     0.811881  s :     0.811881
      pz      :     0.010133  p :     0.026634
      px      :     0.008849
      py      :     0.007652
  4 H s       :     0.808800  s :     0.808800
      pz      :     0.010520  p :     0.027393
      px      :     0.008659
      py      :     0.008214
  5 H s       :     0.855886  s :     0.855886
      pz      :     0.010067  p :     0.023968
      px      :     0.009071
      py      :     0.004829
  6 H s       :     0.843250  s :     0.843250
      pz      :     0.010216  p :     0.028734
      px      :     0.011149
      py      :     0.007369


                     *******************************
                     * LOEWDIN POPULATION ANALYSIS *
                     *******************************

----------------------
LOEWDIN ATOMIC CHARGES
----------------------
   0 O :    0.438150
   1 C :   -0.505753
   2 C :   -0.414507
   3 H :    0.129617
   4 H :    0.120434
   5 H :    0.139147
   6 H :    0.092913

-------------------------------
LOEWDIN REDUCED ORBITAL CHARGES
-------------------------------
  0 O s       :     3.394070  s :     3.394070
      pz      :     1.069729  p :     4.056609
      px      :     1.504920
      py      :     1.481961
      dz2     :     0.010397  d :     0.104814
      dxz     :     0.010252
      dyz     :     0.015042
      dx2y2   :     0.037602
      dxy     :     0.031522
      f0      :     0.000663  f :     0.006356
      f+1     :     0.000148
      f-1     :     0.000575
      f+2     :     0.000118
      f-2     :     0.001133
      f+3     :     0.001048
      f-3     :     0.002670
  1 C s       :     2.826163  s :     2.826163
      pz      :     1.057542  p :     3.116037
      px      :     1.051772
      py      :     1.006724
      dz2     :     0.055317  d :     0.494950
      dxz     :     0.092968
      dyz     :     0.032680
      dx2y2   :     0.178619
      dxy     :     0.135366
      f0      :     0.006630  f :     0.068603
      f+1     :     0.005913
      f-1     :     0.006927
      f+2     :     0.003856
      f-2     :     0.005667
      f+3     :     0.022083
      f-3     :     0.017526
  2 C s       :     2.832223  s :     2.832223
      pz      :     1.047466  p :     3.045255
      px      :     1.070188
      py      :     0.927601
      dz2     :     0.052403  d :     0.468586
      dxz     :     0.102423
      dyz     :     0.034982
      dx2y2   :     0.167243
      dxy     :     0.111535
      f0      :     0.006406  f :     0.068443
      f+1     :     0.007009
      f-1     :     0.006351
      f+2     :     0.004690
      f-2     :     0.006162
      f+3     :     0.018693
      f-3     :     0.019132
  3 H s       :     0.793925  s :     0.793925
      pz      :     0.031390  p :     0.076458
      px      :     0.023001
      py      :     0.022067
  4 H s       :     0.798477  s :     0.798477
      pz      :     0.033679  p :     0.081089
      px      :     0.023104
      py      :     0.024306
  5 H s       :     0.794487  s :     0.794487
      pz      :     0.029366  p :     0.066366
      px      :     0.023075
      py      :     0.013925
  6 H s       :     0.815779  s :     0.815779
      pz      :     0.035864  p :     0.091308
      px      :     0.031372
      py      :     0.024072


                      *****************************
                      * MAYER POPULATION ANALYSIS *
                      *****************************

  NA   - Mulliken gross atomic population
  ZA   - Total nuclear charge
  QA   - Mulliken gross atomic charge
  VA   - Mayer's total valence
  BVA  - Mayer's bonded valence
  FA   - Mayer's free valence

  ATOM       NA         ZA         QA         VA         BVA        FA
  0 O      7.9292     8.0000     0.0708     2.2001     1.4587     0.7413
  1 C      6.4229     6.0000    -0.4229     3.5297     2.9619     0.5678
  2 C      6.2214     6.0000    -0.2214     3.2614     2.9347     0.3267
  3 H      0.8385     1.0000     0.1615     1.0027     0.9577     0.0450
  4 H      0.8362     1.0000     0.1638     0.9981     0.9604     0.0377
  5 H      0.8799     1.0000     0.1201     1.0439     0.9492     0.0947
  6 H      0.8720     1.0000     0.1280     1.0462     0.9768     0.0694

  Mayer bond orders larger than 0.100000
B(  0-O ,  1-C ) :   0.6595 B(  0-O ,  2-C ) :   0.7856 B(  1-C ,  2-C ) :   0.3297 
B(  1-C ,  3-H ) :   0.9445 B(  1-C ,  4-H ) :   0.9530 B(  2-C ,  5-H ) :   0.8834 
B(  2-C ,  6-H ) :   0.9311 


-------
TIMINGS
-------

Total TD-DFT gradient time         ...        5.130 sec

Fock matrix formation       ....       0.843 sec  ( 16.4%)
  Coulomb formation         ....       0.680 sec  ( 80.7% of F)
  RI-J                      ....       0.292 sec  ( 34.6% of F)
  Chain of spheres X        ....       0.388 sec  ( 46.0% of F)
  XC integration            ....       0.163 sec  ( 19.3% of F)
Z-vector equation           ....       1.391 sec  ( 27.1%)
One electron gradient       ....       0.033 sec  (  0.6%)
Prescreening matrices       ....       0.160 sec  (  3.1%)
RI-J Coulomb gradient       ....       0.268 sec  (  5.2%)
COSX gradient               ....       0.359 sec  (  7.0%)
XC gradient                 ....       1.751 sec  ( 34.1%)

Maximum memory used throughout the entire SCFGRAD-calculation: 130.3 MB

                            ***************************************
                            *     ORCA property calculations      *
                            ***************************************

                                    ---------------------
                                    Active property flags
                                    ---------------------
   (+) Dipole Moment


------------------------------------------------------------------------------
                       ORCA ELECTRIC PROPERTIES CALCULATION
------------------------------------------------------------------------------

Dipole Moment Calculation                       ... on
Quadrupole Moment Calculation                   ... off
Polarizability Calculation                      ... off
GBWName                                         ... ox_es1_A_orca0026.gbw
Electron density                                ... ox_es1_A_orca0026.scfp
The origin for moment calculation is the CENTER OF MASS  = ( 0.041373, -0.049025  0.012003)

-------------
DIPOLE MOMENT
-------------
                                X             Y             Z
Electronic contribution:     -0.07903       1.72194       0.15307
Nuclear contribution   :      0.07083      -2.41979      -0.14125
                        -----------------------------------------
Total Dipole Moment    :     -0.00821      -0.69785       0.01182
                        -----------------------------------------
Magnitude (a.u.)       :      0.69800
Magnitude (Debye)      :      1.77417



--------------------
Rotational spectrum 
--------------------
 
Rotational constants in cm-1:     0.897729     0.689486     0.457807 
Rotational constants in MHz : 26913.238844 20670.275924 13724.704509 

 Dipole components along the rotational axes: 
x,y,z [a.u.] :    -0.043279    -0.696256     0.023585 
x,y,z [Debye]:    -0.110007    -1.769743     0.059949 

 

                        *** CIS RELAXED DENSITY ***

------------------------------------------------------------------------------
                       ORCA ELECTRIC PROPERTIES CALCULATION
------------------------------------------------------------------------------

Dipole Moment Calculation                       ... on
Quadrupole Moment Calculation                   ... off
Polarizability Calculation                      ... off
GBWName                                         ... ox_es1_A_orca0026.gbw
Electron density                                ... ox_es1_A_orca0026.cisp
The origin for moment calculation is the CENTER OF MASS  = ( 0.041373, -0.049025  0.012003)

-------------
DIPOLE MOMENT
-------------
                                X             Y             Z
Electronic contribution:      0.09719       2.25329       0.14754
Nuclear contribution   :      0.07083      -2.41979      -0.14125
                        -----------------------------------------
Total Dipole Moment    :      0.16801      -0.16651       0.00629
                        -----------------------------------------
Magnitude (a.u.)       :      0.23663
Magnitude (Debye)      :      0.60146



--------------------
Rotational spectrum 
--------------------
 
Rotational constants in cm-1:     0.897729     0.689486     0.457807 
Rotational constants in MHz : 26913.238844 20670.275924 13724.704509 

 Dipole components along the rotational axes: 
x,y,z [a.u.] :     0.159433    -0.174616     0.009084 
x,y,z [Debye]:     0.405246    -0.443838     0.023091 

 

Timings for individual modules:

Sum of individual times         ...        7.868 sec (=   0.131 min)
GTO integral calculation        ...        0.309 sec (=   0.005 min)   3.9 %
SCF iterations                  ...        1.208 sec (=   0.020 min)  15.4 %
CIS module                      ...        1.015 sec (=   0.017 min)  12.9 %
SCF Gradient evaluation         ...        5.337 sec (=   0.089 min)  67.8 %
                             ****ORCA TERMINATED NORMALLY****
TOTAL RUN TIME: 0 days 0 hours 0 minutes 8 seconds 236 msec
