
                                 *****************
                                 * O   R   C   A *
                                 *****************

                                            #,                                       
                                            ###                                      
                                            ####                                     
                                            #####                                    
                                            ######                                   
                                           ########,                                 
                                     ,,################,,,,,                         
                               ,,#################################,,                 
                          ,,##########################################,,             
                       ,#########################################, ''#####,          
                    ,#############################################,,   '####,        
                  ,##################################################,,,,####,       
                ,###########''''           ''''###############################       
              ,#####''   ,,,,##########,,,,          '''####'''          '####       
            ,##' ,,,,###########################,,,                        '##       
           ' ,,###''''                  '''############,,,                           
         ,,##''                                '''############,,,,        ,,,,,,###''
      ,#''                                            '''#######################'''  
     '                                                          ''''####''''         
             ,#######,   #######,   ,#######,      ##                                
            ,#'     '#,  ##    ##  ,#'     '#,    #''#        ######   ,####,        
            ##       ##  ##   ,#'  ##            #'  '#       #        #'  '#        
            ##       ##  #######   ##           ,######,      #####,   #    #        
            '#,     ,#'  ##    ##  '#,     ,#' ,#      #,         ##   #,  ,#        
             '#######'   ##     ##  '#######'  #'      '#     #####' # '####'        



                  #######################################################
                  #                        -***-                        #
                  #          Department of theory and spectroscopy      #
                  #    Directorship and core code : Frank Neese         #
                  #        Max Planck Institute fuer Kohlenforschung    #
                  #                Kaiser Wilhelm Platz 1               #
                  #                 D-45470 Muelheim/Ruhr               #
                  #                      Germany                        #
                  #                                                     #
                  #                  All rights reserved                #
                  #                        -***-                        #
                  #######################################################


                         Program Version 5.0.2 -  RELEASE  -


 With contributions from (in alphabetic order):
   Daniel Aravena         : Magnetic Suceptibility
   Michael Atanasov       : Ab Initio Ligand Field Theory (pilot matlab implementation)
   Alexander A. Auer      : GIAO ZORA, VPT2 properties, NMR spectrum
   Ute Becker             : Parallelization
   Giovanni Bistoni       : ED, misc. LED, open-shell LED, HFLD
   Martin Brehm           : Molecular dynamics
   Dmytro Bykov           : SCF Hessian
   Vijay G. Chilkuri      : MRCI spin determinant printing, contributions to CSF-ICE
   Dipayan Datta          : RHF DLPNO-CCSD density
   Achintya Kumar Dutta   : EOM-CC, STEOM-CC
   Dmitry Ganyushin       : Spin-Orbit,Spin-Spin,Magnetic field MRCI
   Miquel Garcia          : C-PCM and meta-GGA Hessian, CC/C-PCM, Gaussian charge scheme
   Yang Guo               : DLPNO-NEVPT2, F12-NEVPT2, CIM, IAO-localization
   Andreas Hansen         : Spin unrestricted coupled pair/coupled cluster methods
   Benjamin Helmich-Paris : MC-RPA, TRAH-SCF, COSX integrals
   Lee Huntington         : MR-EOM, pCC
   Robert Izsak           : Overlap fitted RIJCOSX, COSX-SCS-MP3, EOM
   Marcus Kettner         : VPT2
   Christian Kollmar      : KDIIS, OOCD, Brueckner-CCSD(T), CCSD density, CASPT2, CASPT2-K
   Simone Kossmann        : Meta GGA functionals, TD-DFT gradient, OOMP2, MP2 Hessian
   Martin Krupicka        : Initial AUTO-CI
   Lucas Lang             : DCDCAS
   Marvin Lechner         : AUTO-CI (C++ implementation), FIC-MRCC
   Dagmar Lenk            : GEPOL surface, SMD
   Dimitrios Liakos       : Extrapolation schemes; Compound Job, initial MDCI parallelization
   Dimitrios Manganas     : Further ROCIS development; embedding schemes
   Dimitrios Pantazis     : SARC Basis sets
   Anastasios Papadopoulos: AUTO-CI, single reference methods and gradients
   Taras Petrenko         : DFT Hessian,TD-DFT gradient, ASA, ECA, R-Raman, ABS, FL, XAS/XES, NRVS
   Peter Pinski           : DLPNO-MP2, DLPNO-MP2 Gradient
   Christoph Reimann      : Effective Core Potentials
   Marius Retegan         : Local ZFS, SOC
   Christoph Riplinger    : Optimizer, TS searches, QM/MM, DLPNO-CCSD(T), (RO)-DLPNO pert. Triples
   Tobias Risthaus        : Range-separated hybrids, TD-DFT gradient, RPA, STAB
   Michael Roemelt        : Original ROCIS implementation
   Masaaki Saitow         : Open-shell DLPNO-CCSD energy and density
   Barbara Sandhoefer     : DKH picture change effects
   Avijit Sen             : IP-ROCIS
   Kantharuban Sivalingam : CASSCF convergence, NEVPT2, FIC-MRCI
   Bernardo de Souza      : ESD, SOC TD-DFT
   Georgi Stoychev        : AutoAux, RI-MP2 NMR, DLPNO-MP2 response
   Willem Van den Heuvel  : Paramagnetic NMR
   Boris Wezisla          : Elementary symmetry handling
   Frank Wennmohs         : Technical directorship


 We gratefully acknowledge several colleagues who have allowed us to
 interface, adapt or use parts of their codes:
   Stefan Grimme, W. Hujo, H. Kruse, P. Pracht,  : VdW corrections, initial TS optimization,
                  C. Bannwarth, S. Ehlert          DFT functionals, gCP, sTDA/sTD-DF
   Ed Valeev, F. Pavosevic, A. Kumar             : LibInt (2-el integral package), F12 methods
   Garnet Chan, S. Sharma, J. Yang, R. Olivares  : DMRG
   Ulf Ekstrom                                   : XCFun DFT Library
   Mihaly Kallay                                 : mrcc  (arbitrary order and MRCC methods)
   Jiri Pittner, Ondrej Demel                    : Mk-CCSD
   Frank Weinhold                                : gennbo (NPA and NBO analysis)
   Christopher J. Cramer and Donald G. Truhlar   : smd solvation model
   Lars Goerigk                                  : TD-DFT with DH, B97 family of functionals
   V. Asgeirsson, H. Jonsson                     : NEB implementation
   FAccTs GmbH                                   : IRC, NEB, NEB-TS, DLPNO-Multilevel, CI-OPT
                                                   MM, QMMM, 2- and 3-layer-ONIOM, Crystal-QMMM,
                                                   LR-CPCM, SF, NACMEs, symmetry and pop. for TD-DFT,
                                                   nearIR, NL-DFT gradient (VV10), updates on ESD,
                                                   ML-optimized integration grids
   S Lehtola, MJT Oliveira, MAL Marques          : LibXC Library
   Liviu Ungur et al                             : ANISO software


 Your calculation uses the libint2 library for the computation of 2-el integrals
 For citations please refer to: http://libint.valeyev.net

 Your ORCA version has been built with support for libXC version: 5.1.0
 For citations please refer to: https://tddft.org/programs/libxc/

 This ORCA versions uses:
   CBLAS   interface :  Fast vector & matrix operations
   LAPACKE interface :  Fast linear algebra routines
   SCALAPACK package :  Parallel linear algebra routines
   Shared memory     :  Shared parallel matrices
   BLAS/LAPACK       :  OpenBLAS 0.3.15  USE64BITINT DYNAMIC_ARCH NO_AFFINITY SkylakeX SINGLE_THREADED
        Core in use  :  SkylakeX
   Copyright (c) 2011-2014, The OpenBLAS Project


Your calculation utilizes the atom-pairwise dispersion correction
with the Becke-Johnson damping scheme (D3BJ)
Cite in your paper:
S.Grimme, S.Ehrlich, L.Goerigk, J Comput Chem, (2011), 32, 1456–1465 
S.Grimme, J.Antony, S.Ehrlich and H.Krieg, J.Chem.Phys., 132, (2010), 154104 
   

================================================================================

----- Orbital basis set information -----
Your calculation utilizes the basis: def2-TZVP
   F. Weigend and R. Ahlrichs, Phys. Chem. Chem. Phys. 7, 3297 (2005).

----- AuxJ basis set information -----
Your calculation utilizes the auxiliary basis: def2/J
   F. Weigend, Phys. Chem. Chem. Phys. 8, 1057 (2006).

================================================================================
                                        WARNINGS
                       Please study these warnings very carefully!
================================================================================

INFO   : Checking CIS options ...

WARNING: CIS/ROCIS methods need fully converged wavefunctions
  ===> : Setting SCFConvForced true
         You can overwrite this default with %scf ConvForced false 


INFO   : the flag for use of the SHARK integral package has been found!

================================================================================
                                       INPUT FILE
================================================================================
NAME = ox_es1_D_orca0005.inp
|  1> ! engrad PBE0 D3BJ def2-TZVP  
|  2> %pal nprocs 8 end
|  3> %maxcore 3000
|  4> 
|  5> %tddft
|  6>   nroots 1
|  7>   tda true
|  8>   Iroot 1
|  9>   end 
| 10> *xyz 0 1 
| 11> O   -0.7863491109644989 0.9711938280158862 -0.02613587736701498
| 12> C   -0.6833725382858096 -0.47886048741730064 -0.0016583482734380825
| 13> C   0.750473448684991 -0.43491150188348576 -0.05156003036299265
| 14> H   -1.2637077914248658 -0.5865994582751373 0.9233847036699065
| 15> H   -1.3034782175742723 -0.6795498086057149 -0.9320031536183044
| 16> H   1.2490352535547518 -0.6667054846336348 -0.9253126953545823
| 17> H   1.2359763371455785 -0.7584618731585426 0.9004435724228681
| 18> *
| 19> 
| 20>                          ****END OF INPUT****
================================================================================

                     *******************************
                     * Energy+Gradient Calculation *
                     *******************************

---------------------------------
CARTESIAN COORDINATES (ANGSTROEM)
---------------------------------
  O     -0.786349    0.971194   -0.026136
  C     -0.683373   -0.478860   -0.001658
  C      0.750473   -0.434912   -0.051560
  H     -1.263708   -0.586599    0.923385
  H     -1.303478   -0.679550   -0.932003
  H      1.249035   -0.666705   -0.925313
  H      1.235976   -0.758462    0.900444

----------------------------
CARTESIAN COORDINATES (A.U.)
----------------------------
  NO LB      ZA    FRAG     MASS         X           Y           Z
   0 O     8.0000    0    15.999   -1.485984    1.835290   -0.049390
   1 C     6.0000    0    12.011   -1.291387   -0.904915   -0.003134
   2 C     6.0000    0    12.011    1.418189   -0.821864   -0.097434
   3 H     1.0000    0     1.008   -2.388062   -1.108512    1.744944
   4 H     1.0000    0     1.008   -2.463217   -1.284163   -1.761231
   5 H     1.0000    0     1.008    2.360335   -1.259891   -1.748588
   6 H     1.0000    0     1.008    2.335657   -1.433285    1.701592

--------------------------------
INTERNAL COORDINATES (ANGSTROEM)
--------------------------------
 O      0   0   0     0.000000000000     0.00000000     0.00000000
 C      1   0   0     1.453912253768     0.00000000     0.00000000
 C      2   1   0     1.435387057750    92.27116467     0.00000000
 H      2   1   3     1.097315515167    94.28156427   124.44355419
 H      2   1   3     1.135935171547    97.10865237   237.88271078
 H      3   2   1     1.032344924574   120.32952085   254.95460934
 H      3   2   1     1.116561130065   113.31830837   110.30813860

---------------------------
INTERNAL COORDINATES (A.U.)
---------------------------
 O      0   0   0     0.000000000000     0.00000000     0.00000000
 C      1   0   0     2.747495982374     0.00000000     0.00000000
 C      2   1   0     2.712488435323    92.27116467     0.00000000
 H      2   1   3     2.073625806168    94.28156427   124.44355419
 H      2   1   3     2.146606380112    97.10865237   237.88271078
 H      3   2   1     1.950849183189   120.32952085   254.95460934
 H      3   2   1     2.109994747605   113.31830837   110.30813860

---------------------
BASIS SET INFORMATION
---------------------
There are 3 groups of distinct atoms

 Group   1 Type O   : 11s6p2d1f contracted to 5s3p2d1f pattern {62111/411/11/1}
 Group   2 Type C   : 11s6p2d1f contracted to 5s3p2d1f pattern {62111/411/11/1}
 Group   3 Type H   : 5s1p contracted to 3s1p pattern {311/1}

Atom   0O    basis set group =>   1
Atom   1C    basis set group =>   2
Atom   2C    basis set group =>   2
Atom   3H    basis set group =>   3
Atom   4H    basis set group =>   3
Atom   5H    basis set group =>   3
Atom   6H    basis set group =>   3
---------------------------------
AUXILIARY/J BASIS SET INFORMATION
---------------------------------
There are 3 groups of distinct atoms

 Group   1 Type O   : 12s5p4d2f1g contracted to 6s4p3d1f1g pattern {711111/2111/211/2/1}
 Group   2 Type C   : 12s5p4d2f1g contracted to 6s4p3d1f1g pattern {711111/2111/211/2/1}
 Group   3 Type H   : 5s2p1d contracted to 3s1p1d pattern {311/2/1}

Atom   0O    basis set group =>   1
Atom   1C    basis set group =>   2
Atom   2C    basis set group =>   2
Atom   3H    basis set group =>   3
Atom   4H    basis set group =>   3
Atom   5H    basis set group =>   3
Atom   6H    basis set group =>   3

Checking for AutoStart:
The File: ox_es1_D_orca0005.gbw exists
Trying to determine its content:
     ... Fine, the file contains calculation information
     ... Fine, the calculation information was read
     ... Fine, the file contains a basis set
     ... Fine, the basis set was read
     ... Fine, the file contains a geometry
     ... Fine, the geometry was read
     ... Fine, the file contains a set of orbitals
     ... Fine, the orbitals can be read
     => possible old guess file was deleted
     => GBW file was renamed to GES file
     => GES file is set as startup file
     => Guess is set to MORead
     ... now leaving AutoStart



           ************************************************************
           *        Program running with 8 parallel MPI-processes     *
           *              working on a common directory               *
           ************************************************************
------------------------------------------------------------------------------
                           ORCA GTO INTEGRAL CALCULATION
                           -- RI-GTO INTEGRALS CHOSEN --
------------------------------------------------------------------------------
------------------------------------------------------------------------------
                   ___                                                        
                  /   \      - P O W E R E D   B Y -                         
                 /     \                                                     
                 |  |  |   _    _      __       _____    __    __             
                 |  |  |  | |  | |    /  \     |  _  \  |  |  /  |          
                  \  \/   | |  | |   /    \    | | | |  |  | /  /          
                 / \  \   | |__| |  /  /\  \   | |_| |  |  |/  /          
                |  |  |   |  __  | /  /__\  \  |    /   |      \           
                |  |  |   | |  | | |   __   |  |    \   |  |\   \          
                \     /   | |  | | |  |  |  |  | |\  \  |  | \   \       
                 \___/    |_|  |_| |__|  |__|  |_| \__\ |__|  \__/        
                                                                              
                      - O R C A' S   B I G   F R I E N D -                    
                                      &                                       
                       - I N T E G R A L  F E E D E R -                       
                                                                              
 v1 FN, 2020, v2 2021                                                         
------------------------------------------------------------------------------


Reading SHARK input file ox_es1_D_orca0005.SHARKINP.tmp ... ok
----------------------
SHARK INTEGRAL PACKAGE
----------------------

Number of atoms                             ...      7
Number of basis functions                   ...    117
Number of shells                            ...     49
Maximum angular momentum                    ...      3
Integral batch strategy                     ... SHARK/LIBINT Hybrid
RI-J (if used) integral strategy            ... SPLIT-RIJ (Revised 2003 algorithm where possible)
Printlevel                                  ...      1
Contraction scheme used                     ... SEGMENTED contraction
Coulomb Range Separation                    ... NOT USED
Exchange Range Separation                   ... NOT USED
Finite Nucleus Model                        ... NOT USED
Auxiliary Coulomb fitting basis             ... AVAILABLE
   # of basis functions in Aux-J            ...    191
   # of shells in Aux-J                     ...     65
   Maximum angular momentum in Aux-J        ...      4
Auxiliary J/K fitting basis                 ... NOT available
Auxiliary Correlation fitting basis         ... NOT available
Auxiliary 'external' fitting basis          ... NOT available
Integral threshold                          ...     2.500000e-11
Primitive cut-off                           ...     2.500000e-12
Primitive pair pre-selection threshold      ...     2.500000e-12

Calculating pre-screening integrals         ... done (  0.0 sec) Dimension = 49
Organizing shell pair data                  ... done (  0.0 sec)
Shell pair information
Total number of shell pairs                 ...      1225
Shell pairs after pre-screening             ...      1213
Total number of primitive shell pairs       ...      3648
Primitive shell pairs kept                  ...      3086
          la=0 lb=0:    367 shell pairs
          la=1 lb=0:    351 shell pairs
          la=1 lb=1:     91 shell pairs
          la=2 lb=0:    161 shell pairs
          la=2 lb=1:     78 shell pairs
          la=2 lb=2:     21 shell pairs
          la=3 lb=0:     81 shell pairs
          la=3 lb=1:     39 shell pairs
          la=3 lb=2:     18 shell pairs
          la=3 lb=3:      6 shell pairs

Calculating one electron integrals          ... done (  0.0 sec)
Calculating RI/J V-Matrix + Cholesky decomp.... done (  0.0 sec)
Calculating Nuclear repulsion               ... done (  0.0 sec) ENN=     69.111147497542 Eh

SHARK setup successfully completed in   0.1 seconds

Maximum memory used throughout the entire GTOINT-calculation: 14.9 MB


           ************************************************************
           *        Program running with 8 parallel MPI-processes     *
           *              working on a common directory               *
           ************************************************************
-------------------------------------------------------------------------------
                                 ORCA SCF
-------------------------------------------------------------------------------

------------
SCF SETTINGS
------------
Hamiltonian:
 Density Functional     Method          .... DFT(GTOs)
 Exchange Functional    Exchange        .... PBE
   PBE kappa parameter   XKappa         ....  0.804000
   PBE mue parameter    XMuePBE         ....  0.219520
 Correlation Functional Correlation     .... PBE
   PBE beta parameter  CBetaPBE         ....  0.066725
 LDA part of GGA corr.  LDAOpt          .... PW91-LDA
 Gradients option       PostSCFGGA      .... off
 Hybrid DFT is turned on
   Fraction HF Exchange ScalHFX         ....  0.250000
   Scaling of DF-GGA-X  ScalDFX         ....  0.750000
   Scaling of DF-GGA-C  ScalDFC         ....  1.000000
   Scaling of DF-LDA-C  ScalLDAC        ....  1.000000
   Perturbative correction              ....  0.000000
   Density functional embedding theory  .... OFF
   NL short-range parameter             ....  6.900000
 RI-approximation to the Coulomb term is turned on
   Number of AuxJ basis functions       .... 191
   RIJ-COSX (HFX calculated with COS-X)).... on


General Settings:
 Integral files         IntName         .... ox_es1_D_orca0005
 Hartree-Fock type      HFTyp           .... RHF
 Total Charge           Charge          ....    0
 Multiplicity           Mult            ....    1
 Number of Electrons    NEL             ....   24
 Basis Dimension        Dim             ....  117
 Nuclear Repulsion      ENuc            ....     69.1111474975 Eh

Convergence Acceleration:
 DIIS                   CNVDIIS         .... on
   Start iteration      DIISMaxIt       ....    12
   Startup error        DIISStart       ....  0.200000
   # of expansion vecs  DIISMaxEq       ....     5
   Bias factor          DIISBfac        ....   1.050
   Max. coefficient     DIISMaxC        ....  10.000
 Trust-Rad. Augm. Hess. CNVTRAH         .... auto
   Auto Start mean grad. ratio tolernc. ....  1.125000
   Auto Start start iteration           ....     1
   Auto Start num. interpolation iter.  ....    10
   Max. Number of Micro iterations      ....    16
   Max. Number of Macro iterations      .... Maxiter - #DIIS iter
   Number of Davidson start vectors     ....     2
   Converg. threshold I  (grad. norm)   ....   1.000e-05
   Converg. threshold II (energy diff.) ....   1.000e-08
   Grad. Scal. Fac. for Micro threshold ....   0.100
   Minimum threshold for Micro iter.    ....   0.010
   NR start threshold (gradient norm)   ....   0.001
   Initial trust radius                 ....   0.400
   Minimum AH scaling param. (alpha)    ....   1.000
   Maximum AH scaling param. (alpha)    .... 1000.000
   Orbital update algorithm             .... Taylor
   White noise on init. David. guess    .... on
   Maximum white noise                  ....   0.010
   Quad. conv. algorithm                .... NR
 SOSCF                  CNVSOSCF        .... on
   Start iteration      SOSCFMaxIt      ....   150
   Startup grad/error   SOSCFStart      ....  0.003300
 Level Shifting         CNVShift        .... on
   Level shift para.    LevelShift      ....    0.2500
   Turn off err/grad.   ShiftErr        ....    0.0010
 Zerner damping         CNVZerner       .... off
 Static damping         CNVDamp         .... on
   Fraction old density DampFac         ....    0.7000
   Max. Damping (<1)    DampMax         ....    0.9800
   Min. Damping (>=0)   DampMin         ....    0.0000
   Turn off err/grad.   DampErr         ....    0.1000
 Fernandez-Rico         CNVRico         .... off

SCF Procedure:
 Maximum # iterations   MaxIter         ....   125
 SCF integral mode      SCFMode         .... Direct
   Integral package                     .... SHARK and LIBINT hybrid scheme
 Reset frequency        DirectResetFreq ....    20
 Integral Threshold     Thresh          ....  2.500e-11 Eh
 Primitive CutOff       TCut            ....  2.500e-12 Eh

Convergence Tolerance:
 Convergence Check Mode ConvCheckMode   .... Total+1el-Energy
 Convergence forced     ConvForced      .... 1
 Energy Change          TolE            ....  1.000e-08 Eh
 1-El. energy change                    ....  1.000e-05 Eh
 Orbital Gradient       TolG            ....  1.000e-05
 Orbital Rotation angle TolX            ....  1.000e-05
 DIIS Error             TolErr          ....  5.000e-07


Diagonalization of the overlap matrix:
Smallest eigenvalue                        ... 3.834e-04
Time for diagonalization                   ...    0.002 sec
Threshold for overlap eigenvalues          ... 1.000e-08
Number of eigenvalues below threshold      ... 0
Time for construction of square roots      ...    0.001 sec
Total time needed                          ...    0.003 sec

---------------------
INITIAL GUESS: MOREAD
---------------------
Guess MOs are being read from file: ox_es1_D_orca0005.ges
Input Geometry matches current geometry (good)
Input basis set matches current basis set (good)
MOs were renormalized
MOs were reorthogonalized (Cholesky)
                      ------------------
                      INITIAL GUESS DONE (   0.0 sec)
                      ------------------
-------------------
DFT GRID GENERATION
-------------------

General Integration Accuracy     IntAcc      ... 4.388
Radial Grid Type                 RadialGrid  ... OptM3 with GC (2021)
Angular Grid (max. ang.)         AngularGrid ... 4 (Lebedev-302)
Angular grid pruning method      GridPruning ... 4 (adaptive)
Weight generation scheme         WeightScheme... Becke
Basis function cutoff            BFCut       ... 1.0000e-11
Integration weight cutoff        WCut        ... 1.0000e-14
Angular grids for H and He will be reduced by one unit
Partially contracted basis set               ... off
Rotationally invariant grid construction     ... off

Total number of grid points                  ...    31325
Total number of batches                      ...      494
Average number of points per batch           ...       63
Average number of grid points per atom       ...     4475
Time for grid setup =    0.134 sec

--------------------
COSX GRID GENERATION
--------------------

GRIDX 1
-------
General Integration Accuracy     IntAcc      ... 3.816
Radial Grid Type                 RadialGrid  ... OptM3 with GC (2021)
Angular Grid (max. ang.)         AngularGrid ... 1 (Lebedev-50)
Angular grid pruning method      GridPruning ... 4 (adaptive)
Weight generation scheme         WeightScheme... Becke
Basis function cutoff            BFCut       ... 1.0000e-11
Integration weight cutoff        WCut        ... 1.0000e-14
Angular grids for H and He will be reduced by one unit
Partially contracted basis set               ... on
Rotationally invariant grid construction     ... off

Total number of grid points                  ...     4033
Total number of batches                      ...       67
Average number of points per batch           ...       60
Average number of grid points per atom       ...      576
UseSFitting                                  ... on

GRIDX 2
-------
General Integration Accuracy     IntAcc      ... 4.020
Radial Grid Type                 RadialGrid  ... OptM3 with GC (2021)
Angular Grid (max. ang.)         AngularGrid ... 2 (Lebedev-110)
Angular grid pruning method      GridPruning ... 4 (adaptive)
Weight generation scheme         WeightScheme... Becke
Basis function cutoff            BFCut       ... 1.0000e-11
Integration weight cutoff        WCut        ... 1.0000e-14
Angular grids for H and He will be reduced by one unit
Partially contracted basis set               ... on
Rotationally invariant grid construction     ... off

Total number of grid points                  ...     8719
Total number of batches                      ...      140
Average number of points per batch           ...       62
Average number of grid points per atom       ...     1246
UseSFitting                                  ... on

GRIDX 3
-------
General Integration Accuracy     IntAcc      ... 4.338
Radial Grid Type                 RadialGrid  ... OptM3 with GC (2021)
Angular Grid (max. ang.)         AngularGrid ... 3 (Lebedev-194)
Angular grid pruning method      GridPruning ... 4 (adaptive)
Weight generation scheme         WeightScheme... Becke
Basis function cutoff            BFCut       ... 1.0000e-11
Integration weight cutoff        WCut        ... 1.0000e-14
Angular grids for H and He will be reduced by one unit
Partially contracted basis set               ... on
Rotationally invariant grid construction     ... off

Total number of grid points                  ...    19240
Total number of batches                      ...      304
Average number of points per batch           ...       63
Average number of grid points per atom       ...     2749
UseSFitting                                  ... on

Time for X-Grid setup             =    0.083 sec

--------------
SCF ITERATIONS
--------------
ITER       Energy         Delta-E        Max-DP      RMS-DP      [F,P]     Damp
               ***  Starting incremental Fock matrix formation  ***
                      *** Initiating the SOSCF procedure ***
                      *** Re-Reading the Fockian *** 
                      *** Removing any level shift *** 
ITER      Energy       Delta-E        Grad      Rot      Max-DP    RMS-DP
  0   -153.55244056 -153.5524405624  0.000002  0.000002  0.000005  0.000000
               *** Restarting incremental Fock matrix formation ***
                  ***Gradient check signals convergence***
              ***Rediagonalizing the Fockian in SOSCF/NRSCF***

               *****************************************************
               *                     SUCCESS                       *
               *           SCF CONVERGED AFTER   1 CYCLES          *
               *****************************************************

Old exchange energy                            =     -4.955269499 Eh
New exchange energy                            =     -4.955279489 Eh
Exchange energy change after final integration =     -0.000009990 Eh
Total energy after final integration           =   -153.552450553 Eh
Final COS-X integration done in                =     0.306 sec

----------------
TOTAL SCF ENERGY
----------------

Total Energy       :         -153.55245055 Eh           -4178.37460 eV

Components:
Nuclear Repulsion  :           69.11114750 Eh            1880.60993 eV
Electronic Energy  :         -222.66359805 Eh           -6058.98454 eV
One Electron Energy:         -345.04303737 Eh           -9389.09838 eV
Two Electron Energy:          122.37943932 Eh            3330.11384 eV
Max COSX asymmetry :            0.00000081 Eh               0.00002 eV

Virial components:
Potential Energy   :         -306.29448495 Eh           -8334.69666 eV
Kinetic Energy     :          152.74203440 Eh            4156.32206 eV
Virial Ratio       :            2.00530578


DFT components:
N(Alpha)           :       12.000004141525 electrons
N(Beta)            :       12.000004141525 electrons
N(Total)           :       24.000008283050 electrons
E(X)               :      -14.876504623923 Eh       
E(C)               :       -0.773087337443 Eh       
E(XC)              :      -15.649591961366 Eh       
DFET-embed. en.    :        0.000000000000 Eh       

---------------
SCF CONVERGENCE
---------------

  Last Energy change         ...   -6.0822e-11  Tolerance :   1.0000e-08
  Last MAX-Density change    ...    1.2212e-15  Tolerance :   1.0000e-07
  Last RMS-Density change    ...    2.1830e-17  Tolerance :   5.0000e-09
  Last Orbital Gradient      ...    1.4421e-06  Tolerance :   1.0000e-05
  Last Orbital Rotation      ...    5.5800e-06  Tolerance :   1.0000e-05

             **** THE GBW FILE WAS UPDATED (ox_es1_D_orca0005.gbw) ****
             **** DENSITY ox_es1_D_orca0005.scfp WAS UPDATED ****
             **** ENERGY FILE WAS UPDATED (ox_es1_D_orca0005.en.tmp) ****
             **** THE GBW FILE WAS UPDATED (ox_es1_D_orca0005.gbw) ****
             **** DENSITY ox_es1_D_orca0005.scfp WAS UPDATED ****
----------------
ORBITAL ENERGIES
----------------

  NO   OCC          E(Eh)            E(eV) 
   0   2.0000     -19.207696      -522.6680 
   1   2.0000     -10.312215      -280.6096 
   2   2.0000     -10.273905      -279.5672 
   3   2.0000      -0.996866       -27.1261 
   4   2.0000      -0.773317       -21.0430 
   5   2.0000      -0.624415       -16.9912 
   6   2.0000      -0.521472       -14.1900 
   7   2.0000      -0.487574       -13.2676 
   8   2.0000      -0.419017       -11.4020 
   9   2.0000      -0.390232       -10.6188 
  10   2.0000      -0.287058        -7.8113 
  11   2.0000      -0.259700        -7.0668 
  12   0.0000      -0.124016        -3.3746 
  13   0.0000       0.053996         1.4693 
  14   0.0000       0.079463         2.1623 
  15   0.0000       0.084119         2.2890 
  16   0.0000       0.116943         3.1822 
  17   0.0000       0.148036         4.0283 
  18   0.0000       0.181557         4.9404 
  19   0.0000       0.200103         5.4451 
  20   0.0000       0.236342         6.4312 
  21   0.0000       0.253658         6.9024 
  22   0.0000       0.268432         7.3044 
  23   0.0000       0.323892         8.8136 
  24   0.0000       0.336901         9.1675 
  25   0.0000       0.372386        10.1331 
  26   0.0000       0.408172        11.1069 
  27   0.0000       0.418143        11.3782 
  28   0.0000       0.441576        12.0159 
  29   0.0000       0.492712        13.4074 
  30   0.0000       0.511986        13.9318 
  31   0.0000       0.545736        14.8502 
  32   0.0000       0.563871        15.3437 
  33   0.0000       0.611692        16.6450 
  34   0.0000       0.691386        18.8136 
  35   0.0000       0.745521        20.2867 
  36   0.0000       0.784613        21.3504 
  37   0.0000       0.846377        23.0311 
  38   0.0000       0.858666        23.3655 
  39   0.0000       0.933178        25.3931 
  40   0.0000       0.937840        25.5199 
  41   0.0000       1.031733        28.0749 
  42   0.0000       1.077378        29.3169 
  43   0.0000       1.079242        29.3677 
  44   0.0000       1.172112        31.8948 
  45   0.0000       1.315912        35.8078 
  46   0.0000       1.400789        38.1174 
  47   0.0000       1.449365        39.4392 
  48   0.0000       1.500132        40.8207 
  49   0.0000       1.514528        41.2124 
  50   0.0000       1.581209        43.0269 
  51   0.0000       1.598363        43.4937 
  52   0.0000       1.630733        44.3745 
  53   0.0000       1.679017        45.6884 
  54   0.0000       1.724238        46.9189 
  55   0.0000       1.799044        48.9545 
  56   0.0000       1.817084        49.4454 
  57   0.0000       1.832484        49.8644 
  58   0.0000       1.882829        51.2344 
  59   0.0000       1.889957        51.4284 
  60   0.0000       2.004491        54.5450 
  61   0.0000       2.032092        55.2960 
  62   0.0000       2.162746        58.8513 
  63   0.0000       2.228998        60.6541 
  64   0.0000       2.319100        63.1059 
  65   0.0000       2.354311        64.0641 
  66   0.0000       2.403693        65.4078 
  67   0.0000       2.441067        66.4248 
  68   0.0000       2.469170        67.1895 
  69   0.0000       2.523538        68.6690 
  70   0.0000       2.535702        69.0000 
  71   0.0000       2.611562        71.0642 
  72   0.0000       2.647087        72.0309 
  73   0.0000       2.654111        72.2220 
  74   0.0000       2.748255        74.7838 
  75   0.0000       2.808356        76.4193 
  76   0.0000       2.879925        78.3668 
  77   0.0000       2.962466        80.6128 
  78   0.0000       2.970659        80.8357 
  79   0.0000       2.997887        81.5767 
  80   0.0000       3.088341        84.0380 
  81   0.0000       3.103450        84.4492 
  82   0.0000       3.112944        84.7075 
  83   0.0000       3.141253        85.4778 
  84   0.0000       3.164183        86.1018 
  85   0.0000       3.196953        86.9935 
  86   0.0000       3.338340        90.8409 
  87   0.0000       3.367060        91.6223 
  88   0.0000       3.455977        94.0419 
  89   0.0000       3.498086        95.1878 
  90   0.0000       3.526256        95.9543 
  91   0.0000       3.639942        99.0479 
  92   0.0000       3.715527       101.1046 
  93   0.0000       3.886929       105.7687 
  94   0.0000       4.033831       109.7661 
  95   0.0000       4.116241       112.0086 
  96   0.0000       4.129523       112.3700 
  97   0.0000       4.292492       116.8046 
  98   0.0000       4.390844       119.4809 
  99   0.0000       4.522788       123.0713 
 100   0.0000       4.574819       124.4871 
 101   0.0000       4.735493       128.8593 
 102   0.0000       5.203350       141.5903 
 103   0.0000       5.250773       142.8808 
 104   0.0000       5.360119       145.8562 
 105   0.0000       5.384681       146.5246 
 106   0.0000       5.710304       155.3853 
 107   0.0000       5.732254       155.9826 
 108   0.0000       5.896001       160.4383 
 109   0.0000       6.368798       173.3038 
 110   0.0000       6.433219       175.0568 
 111   0.0000       6.770817       184.2433 
 112   0.0000       6.807625       185.2449 
 113   0.0000       6.967530       189.5961 
 114   0.0000      22.129334       602.1698 
 115   0.0000      22.403143       609.6205 
 116   0.0000      43.720712      1189.7010 

                    ********************************
                    * MULLIKEN POPULATION ANALYSIS *
                    ********************************

-----------------------
MULLIKEN ATOMIC CHARGES
-----------------------
   0 O :   -0.371098
   1 C :   -0.069306
   2 C :   -0.129915
   3 H :    0.135194
   4 H :    0.119738
   5 H :    0.159693
   6 H :    0.155695
Sum of atomic charges:    0.0000000

--------------------------------
MULLIKEN REDUCED ORBITAL CHARGES
--------------------------------
  0 O s       :     3.917236  s :     3.917236
      pz      :     1.925065  p :     4.430026
      px      :     1.239105
      py      :     1.265855
      dz2     :     0.003177  d :     0.022662
      dxz     :     0.000248
      dyz     :     0.004958
      dx2y2   :     0.008185
      dxy     :     0.006095
      f0      :     0.000134  f :     0.001174
      f+1     :     0.000062
      f-1     :     0.000288
      f+2     :     0.000145
      f-2     :     0.000022
      f+3     :     0.000241
      f-3     :     0.000284
  1 C s       :     3.198295  s :     3.198295
      pz      :     1.080197  p :     2.709536
      px      :     0.910727
      py      :     0.718611
      dz2     :     0.010978  d :     0.151636
      dxz     :     0.022298
      dyz     :     0.042593
      dx2y2   :     0.023702
      dxy     :     0.052065
      f0      :     0.001672  f :     0.009840
      f+1     :     0.001239
      f-1     :     0.000680
      f+2     :     0.003027
      f-2     :     0.000066
      f+3     :     0.002246
      f-3     :     0.000908
  2 C s       :     3.278304  s :     3.278304
      pz      :     1.040443  p :     2.792282
      px      :     1.000904
      py      :     0.750936
      dz2     :     0.006320  d :     0.054410
      dxz     :     0.021345
      dyz     :     0.005206
      dx2y2   :     0.006267
      dxy     :     0.015273
      f0      :     0.000551  f :     0.004919
      f+1     :     0.001010
      f-1     :     0.000181
      f+2     :     0.000731
      f-2     :     0.000292
      f+3     :     0.000843
      f-3     :     0.001312
  3 H s       :     0.842864  s :     0.842864
      pz      :     0.010396  p :     0.021942
      px      :     0.006616
      py      :     0.004930
  4 H s       :     0.860324  s :     0.860324
      pz      :     0.009508  p :     0.019937
      px      :     0.006352
      py      :     0.004077
  5 H s       :     0.815904  s :     0.815904
      pz      :     0.011668  p :     0.024403
      px      :     0.007631
      py      :     0.005104
  6 H s       :     0.822580  s :     0.822580
      pz      :     0.011079  p :     0.021725
      px      :     0.006057
      py      :     0.004589


                     *******************************
                     * LOEWDIN POPULATION ANALYSIS *
                     *******************************

----------------------
LOEWDIN ATOMIC CHARGES
----------------------
   0 O :   -0.066569
   1 C :   -0.424962
   2 C :   -0.028859
   3 H :    0.127947
   4 H :    0.129333
   5 H :    0.116382
   6 H :    0.146728

-------------------------------
LOEWDIN REDUCED ORBITAL CHARGES
-------------------------------
  0 O s       :     3.586860  s :     3.586860
      pz      :     1.856383  p :     4.425468
      px      :     1.193951
      py      :     1.375134
      dz2     :     0.006699  d :     0.051005
      dxz     :     0.000261
      dyz     :     0.013581
      dx2y2   :     0.016860
      dxy     :     0.013604
      f0      :     0.000333  f :     0.003237
      f+1     :     0.000091
      f-1     :     0.000533
      f+2     :     0.000640
      f-2     :     0.000013
      f+3     :     0.000945
      f-3     :     0.000682
  1 C s       :     2.839968  s :     2.839968
      pz      :     1.053687  p :     2.937345
      px      :     1.054026
      py      :     0.829631
      dz2     :     0.064497  d :     0.578731
      dxz     :     0.116552
      dyz     :     0.109037
      dx2y2   :     0.128990
      dxy     :     0.159655
      f0      :     0.009848  f :     0.068918
      f+1     :     0.005901
      f-1     :     0.006714
      f+2     :     0.016764
      f-2     :     0.000994
      f+3     :     0.015769
      f-3     :     0.012929
  2 C s       :     2.887357  s :     2.887357
      pz      :     1.070412  p :     2.873864
      px      :     1.119775
      py      :     0.683677
      dz2     :     0.032628  d :     0.240610
      dxz     :     0.104895
      dyz     :     0.015838
      dx2y2   :     0.040747
      dxy     :     0.046502
      f0      :     0.003696  f :     0.027027
      f+1     :     0.003708
      f-1     :     0.001578
      f+2     :     0.004429
      f-2     :     0.002059
      f+3     :     0.004752
      f-3     :     0.006805
  3 H s       :     0.810645  s :     0.810645
      pz      :     0.030680  p :     0.061408
      px      :     0.017684
      py      :     0.013044
  4 H s       :     0.816296  s :     0.816296
      pz      :     0.027418  p :     0.054371
      px      :     0.016344
      py      :     0.010609
  5 H s       :     0.808837  s :     0.808837
      pz      :     0.037525  p :     0.074781
      px      :     0.022012
      py      :     0.015244
  6 H s       :     0.792850  s :     0.792850
      pz      :     0.031861  p :     0.060422
      px      :     0.015948
      py      :     0.012613


                      *****************************
                      * MAYER POPULATION ANALYSIS *
                      *****************************

  NA   - Mulliken gross atomic population
  ZA   - Total nuclear charge
  QA   - Mulliken gross atomic charge
  VA   - Mayer's total valence
  BVA  - Mayer's bonded valence
  FA   - Mayer's free valence

  ATOM       NA         ZA         QA         VA         BVA        FA
  0 O      8.3711     8.0000    -0.3711     1.7955     1.7955     0.0000
  1 C      6.0693     6.0000    -0.0693     3.9769     3.9769    -0.0000
  2 C      6.1299     6.0000    -0.1299     3.8495     3.8495    -0.0000
  3 H      0.8648     1.0000     0.1352     0.9778     0.9778     0.0000
  4 H      0.8803     1.0000     0.1197     0.9723     0.9723     0.0000
  5 H      0.8403     1.0000     0.1597     0.9610     0.9610    -0.0000
  6 H      0.8443     1.0000     0.1557     0.9624     0.9624    -0.0000

  Mayer bond orders larger than 0.100000
B(  0-O ,  1-C ) :   0.9320 B(  0-O ,  2-C ) :   0.8609 B(  1-C ,  2-C ) :   1.0925 
B(  1-C ,  3-H ) :   0.9781 B(  1-C ,  4-H ) :   0.9646 B(  2-C ,  5-H ) :   0.9477 
B(  2-C ,  6-H ) :   0.9452 

-------
TIMINGS
-------

Total SCF time: 0 days 0 hours 0 min 1 sec 

Total time                  ....       1.157 sec
Sum of individual times     ....       1.052 sec  ( 90.9%)

Fock matrix formation       ....       0.817 sec  ( 70.6%)
  Split-RI-J                ....       0.131 sec  ( 16.1% of F)
  Chain of spheres X        ....       0.610 sec  ( 74.6% of F)
  XC integration            ....       0.074 sec  (  9.0% of F)
    Basis function eval.    ....       0.021 sec  ( 28.3% of XC)
    Density eval.           ....       0.016 sec  ( 21.8% of XC)
    XC-Functional eval.     ....       0.004 sec  (  6.0% of XC)
    XC-Potential eval.      ....       0.025 sec  ( 33.5% of XC)
Diagonalization             ....       0.003 sec  (  0.2%)
Density matrix formation    ....       0.000 sec  (  0.0%)
Population analysis         ....       0.005 sec  (  0.4%)
Initial guess               ....       0.005 sec  (  0.5%)
Orbital Transformation      ....       0.000 sec  (  0.0%)
Orbital Orthonormalization  ....       0.001 sec  (  0.1%)
DIIS solution               ....       0.002 sec  (  0.1%)
SOSCF solution              ....       0.003 sec  (  0.2%)
Grid generation             ....       0.218 sec  ( 18.8%)

Maximum memory used throughout the entire SCF-calculation: 61.1 MB


           ************************************************************
           *        Program running with 8 parallel MPI-processes     *
           *              working on a common directory               *
           ************************************************************
------------------------------------------------------------------------------
                        ORCA TD-DFT/TDA CALCULATION
------------------------------------------------------------------------------

Input orbitals are from        ... ox_es1_D_orca0005.gbw
CI-vector output               ... ox_es1_D_orca0005.cis
Tamm-Dancoff approximation     ... operative
CIS-Integral strategy          ... AO-integrals
Integral handling              ... AO integral Direct
Max. core memory used          ... 3000 MB
Reference state                ... RHF
Generation of triplets         ... off
Follow IRoot                   ... off
Number of operators            ... 1
Orbital ranges used for CIS calculation:
 Operator 0:  Orbitals   3... 11  to  12...116
XAS localization array:
 Operator 0:  Orbitals  -1... -1

-------------------
XC-INTEGRATION GRID
-------------------

General Integration Accuracy     IntAcc      ... 3.467
Radial Grid Type                 RadialGrid  ... OptM3 with GC (2021)
Angular Grid (max. ang.)         AngularGrid ... 1 (Lebedev-50)
Angular grid pruning method      GridPruning ... 4 (adaptive)
Weight generation scheme         WeightScheme... Becke
Basis function cutoff            BFCut       ... 1.0000e-11
Integration weight cutoff        WCut        ... 1.0000e-14
Angular grids for H and He will be reduced by one unit
Partially contracted basis set               ... off
Rotationally invariant grid construction     ... off

Total number of grid points                  ...     4536
Total number of batches                      ...       75
Average number of points per batch           ...       60
Average number of grid points per atom       ...      648

---------------------
COSX-INTEGRATION GRID
---------------------

General Integration Accuracy     IntAcc      ... 3.067
Radial Grid Type                 RadialGrid  ... OptM3 with GC (2021)
Angular Grid (max. ang.)         AngularGrid ... 1 (Lebedev-50)
Angular grid pruning method      GridPruning ... 4 (adaptive)
Weight generation scheme         WeightScheme... Becke
Basis function cutoff            BFCut       ... 1.0000e-11
Integration weight cutoff        WCut        ... 1.0000e-14
Angular grids for H and He will be reduced by one unit
Partially contracted basis set               ... on
Rotationally invariant grid construction     ... off

Total number of grid points                  ...     2084
Total number of batches                      ...       37
Average number of points per batch           ...       56
Average number of grid points per atom       ...      298

---------------
TD-DFT XC SETUP
---------------

DFT calculation                         ... on
Name of the grid file                   ... ox_es1_D_orca0005.grid_cis.tmp
Exchange functional (TD-DFT)            ... PBE
   PBE kappa parameter  XKappa (TD-DFT) ...  0.804000
   PBE mue parameter   XMuePBE (TD-DFT) ...  0.219520
Correlation functional (TD-DFT)         ... PBE
   PBE beta parameter CBetaPBE (TD-DFT) ...  0.066725
 LDA part of GGA corr.  LDAOpt (TD-DFT) ... PW91-LDA
Hybrid DFT                              ... on
   Exchange mixing (TD-DFT)             ...  0.250
   GGA exch. scaling (TD-DFT)           ...  0.750
   GGA corr. scaling (TD-DFT)           ...  1.000

Building densities             ... done
Calculating rho(r) on the grid ... done
Building xc-kernel on the grid ... done
                    *** TD-DFT CALCULATION INITIALIZED ***

------------------------
DAVIDSON-DIAGONALIZATION
------------------------

Dimension of the eigenvalue problem            ...    945
Number of roots to be determined               ...      1
Maximum size of the expansion space            ...     10
Maximum number of iterations                   ...    100
Convergence tolerance for the residual         ...    2.500e-07
Convergence tolerance for the energies         ...    2.500e-07
Orthogonality tolerance                        ...    1.000e-14
Level Shift                                    ...    0.000e+00
Constructing the preconditioner                ... o.k.
Building the initial guess                     ... o.k.
Number of trial vectors determined             ...     10


                       ****Iteration    0****

   Memory handling for direct AO based CIS:
   Memory per vector needed      ...     1 MB
   Memory needed                 ...     1 MB
   Memory available              ...  3000 MB
   Number of vectors per batch   ...  3000
   Number of batches             ...     1
   Time for densities:            0.000
   Time for RI-J (Direct):        0.017
   Time for K (COSX):             0.062
   Time for XC-Integration:       0.017
   Time for Sigma-Completion:     0.000
   Size of expansion space: 3
   Lowest Energy          :     0.052437213520
   Maximum Energy change  :     0.052437213520 (vector 0)
   Maximum residual norm  :     0.002784570131

                       ****Iteration    1****
   Time for densities:            0.000
   Time for RI-J (Direct):        0.014
   Time for K (COSX):             0.057
   Time for XC-Integration:       0.007
   Time for Sigma-Completion:     0.000
   Size of expansion space: 4
   Lowest Energy          :     0.050401785220
   Maximum Energy change  :     0.002035428300 (vector 0)
   Maximum residual norm  :     0.000058829037

                       ****Iteration    2****
   Time for densities:            0.000
   Time for RI-J (Direct):        0.014
   Time for K (COSX):             0.057
   Time for XC-Integration:       0.007
   Time for Sigma-Completion:     0.000
   Size of expansion space: 5
   Lowest Energy          :     0.050357831338
   Maximum Energy change  :     0.000043953882 (vector 0)
   Maximum residual norm  :     0.000003110684

                       ****Iteration    3****
   Time for densities:            0.000
   Time for RI-J (Direct):        0.014
   Time for K (COSX):             0.057
   Time for XC-Integration:       0.007
   Time for Sigma-Completion:     0.000
   Size of expansion space: 6
   Lowest Energy          :     0.050355136413
   Maximum Energy change  :     0.000002694924 (vector 0)
   Maximum residual norm  :     0.000000197006

      *** CONVERGENCE OF RESIDUAL NORM REACHED ***

Storing the converged CI vectors               ... ox_es1_D_orca0005.cis1

                 *** DAVIDSON DONE ***

Total time for solving the CIS problem:     0.334sec

------------------------------------
TD-DFT/TDA EXCITED STATES (SINGLETS)
------------------------------------

the weight of the individual excitations are printed if larger than 1.0e-02

STATE  1:  E=   0.050355 au      1.370 eV    11051.7 cm**-1 <S**2> =   0.000000
    11a ->  12a  :     0.994642 (c= -0.99731729)


-----------------------------
TD-DFT/TDA-EXCITATION SPECTRA
-----------------------------

Center of mass = ( -0.5087,  0.0794, -0.0468)
Calculating the Dipole integrals                  ... done
Transforming integrals                            ... done
Calculating the Linear Momentum integrals         ... done
Transforming integrals                            ... done
Calculating angular momentum integrals            ... done
Transforming integrals                            ... done

-----------------------------------------------------------------------------
         ABSORPTION SPECTRUM VIA TRANSITION ELECTRIC DIPOLE MOMENTS
-----------------------------------------------------------------------------
State   Energy    Wavelength  fosc         T2        TX        TY        TZ  
        (cm-1)      (nm)                 (au**2)    (au)      (au)      (au) 
-----------------------------------------------------------------------------
   1   11051.7    904.8   0.000117403   0.00350  -0.01042  -0.00426   0.05806

-----------------------------------------------------------------------------
         ABSORPTION SPECTRUM VIA TRANSITION VELOCITY DIPOLE MOMENTS
-----------------------------------------------------------------------------
State   Energy    Wavelength   fosc        P2         PX        PY        PZ  
        (cm-1)      (nm)                 (au**2)     (au)      (au)      (au) 
-----------------------------------------------------------------------------
   1   11051.7    904.8   0.009981187   0.00075  -0.00193  -0.00228  -0.02729

-------------------------------------------------------------------
                             CD SPECTRUM
-------------------------------------------------------------------
State  Energy     Wavelength     R         MX        MY        MZ   
       (cm-1)       (nm)     (1e40*cgs)   (au)      (au)      (au)  
-------------------------------------------------------------------
   1   11051.7    904.8      0.67881  -0.03432  -0.28839  -0.00251

-------------------------------------------------------------------
         CD SPECTRUM VIA TRANSITION VELOCITY DIPOLE MOMENTS        
-------------------------------------------------------------------
State  Energy     Wavelength     R         MX        MY        MZ   
       (cm-1)       (nm)     (1e40*cgs)   (au)      (au)      (au)  
-------------------------------------------------------------------
   1   11051.7    904.8      7.42480  -0.03432  -0.28839  -0.00251

Total run time:        0.646 sec

           *** ORCA-CIS/TD-DFT FINISHED WITHOUT ERROR ***

Maximum memory used throughout the entire CIS-calculation: 49.4 MB

-----------------------
CIS/TD-DFT TOTAL ENERGY
-----------------------

    E(SCF)  =   -153.552450553 Eh
    DE(CIS) =      0.050355136 Eh (Root  1)
    ----------------------------- ---------
    E(tot)  =   -153.502095416 Eh



-------------------------------------------------------------------------------
                          DFT DISPERSION CORRECTION                            
                                                                               
                              DFTD3 V3.1  Rev 1                                
                          USING Becke-Johnson damping                          
-------------------------------------------------------------------------------
The PBE0 functional is recognized
Active option DFTDOPT                   ...         4   

molecular C6(AA) [au] = 393.473600 


            DFT-D V3
 parameters
 s6 scaling factor         :     1.0000 
 a1 scaling factor         :     0.4145 
 s8 scaling factor         :     1.2177 
 a2 scaling factor         :     4.8593 
 ad hoc parameters k1-k3   :    16.0000     1.3333    -4.0000 

 Edisp/kcal,au: -1.652860817398  -0.002634001094 
 E6   /kcal   :  -1.078960436 
 E8   /kcal   :  -0.573900381 
 % E8         :  34.721639899 

-------------------------   ----------------
Dispersion correction           -0.002634001
-------------------------   ----------------


-------------------------   --------------------
FINAL SINGLE POINT ENERGY      -153.504729417266
-------------------------   --------------------



           ************************************************************
           *        Program running with 8 parallel MPI-processes     *
           *              working on a common directory               *
           ************************************************************
------------------------------------------------------------------------------
                         ORCA SCF GRADIENT CALCULATION
------------------------------------------------------------------------------


------------------------
TD-DFT GRADIENT XC SETUP
------------------------

Building densities                     ... done
Calculating rho(r) on the grid         ... done
Building xc-kernel on the grid         ... done
Building xc 3rd derivative on the grid      ... done
                *** TD-DFT GRADIENT CALCULATION INITIALIZED ***

-------------------
TD-DFT/TDA GRADIENT
-------------------

Reference wavefunction             ... RHF
State of interest                  ... 1
Basis dimension                    ... 117
DFT-XC contribution needed         ... YES
RI-approximation                   ... ON
CIS-vectors being read from        ... ox_es1_D_orca0005.cis

 => Number of Vectors found: 1
 => Orbital Window: 3...11 -> 12...116

Reading the CIS file                     ... done
Norm of the CI vector                    ... 1.000000000
Making the CIS (pseudo)densities         ... done
Making operators G(D) and Q(T)           ... done
Transforming the Fock operators          ... done
Making the frozen-core relaxed density   ... done
Constructing the G(H) operator           ... done
Transforming the G(H) operator           ... done
Calculating the CIS Lagrangian           ... done
Solving the Z-vector equations           ... done
Finalizing the relaxed density           ... done
Storing the relaxed density              ... done
Constructing the G(Z) operator           ... done
Transforming the G(Z) operator           ... done
Making the W-matrix                      ... done
Finalizing the W-matrix                  ... done
Transforming the W-matrix                ... done
Nuclear repulsion gradient               ... done
One-Electron gradient                    ... done
Dispersion correction                    ... done
Prescreening matrices                    ... done
COSX-gradient                            ... done
Coulomb gradient (RI)                    ... done
Exchange-Correlation gradient            ... done

                 ---------------------------
                 EXCITED STATE GRADIENT DONE
                 ---------------------------

------------------
CARTESIAN GRADIENT
------------------

   1   O   :    0.013672133    0.003160249    0.001526775
   2   C   :    0.013736484   -0.081430747    0.026374938
   3   C   :    0.003275841    0.056508353   -0.060752992
   4   H   :   -0.001581612    0.024306677   -0.001048997
   5   H   :   -0.009386067    0.014298499   -0.018416869
   6   H   :   -0.020088805   -0.000499914    0.035948078
   7   H   :    0.000372026   -0.016337479    0.016373141

Difference to translation invariance:
           :    0.0000000000    0.0000056385    0.0000040738

Difference to rotation invariance:
           :    0.0000222072    0.0000207012   -0.0005554344

Norm of the cartesian gradient     ...    0.1344125734
RMS gradient                       ...    0.0293312282
MAX gradient                       ...    0.0814307468

------------------------------------------------------------------------------
                  RELAXED CIS/TDA DENSITY POPULATION ANALYSIS
                                   IROOT 1
------------------------------------------------------------------------------
------------------------------------------------------------------------------
                           ORCA POPULATION ANALYSIS
------------------------------------------------------------------------------
Input electron density              ... ox_es1_D_orca0005.cisp
BaseName (.gbw .S,...)              ... ox_es1_D_orca0005

                    ********************************
                    * MULLIKEN POPULATION ANALYSIS *
                    ********************************

-----------------------
MULLIKEN ATOMIC CHARGES
-----------------------
   0 O :   -0.239941
   1 C :   -0.087790
   2 C :   -0.257465
   3 H :    0.163625
   4 H :    0.156466
   5 H :    0.137655
   6 H :    0.127449
Sum of atomic charges:   -0.0000000

--------------------------------
MULLIKEN REDUCED ORBITAL CHARGES
--------------------------------
  0 O s       :     3.903266  s :     3.903266
      pz      :     1.100745  p :     4.313804
      px      :     1.897996
      py      :     1.315063
      dz2     :     0.002700  d :     0.022018
      dxz     :     0.000218
      dyz     :     0.005740
      dx2y2   :     0.008239
      dxy     :     0.005121
      f0      :     0.000026  f :     0.000853
      f+1     :    -0.000032
      f-1     :     0.000077
      f+2     :     0.000166
      f-2     :    -0.000000
      f+3     :     0.000244
      f-3     :     0.000372
  1 C s       :     3.204846  s :     3.204846
      pz      :     1.020197  p :     2.734056
      px      :     0.977998
      py      :     0.735861
      dz2     :     0.009654  d :     0.139249
      dxz     :     0.026044
      dyz     :     0.021674
      dx2y2   :     0.025416
      dxy     :     0.056461
      f0      :     0.000918  f :     0.009639
      f+1     :     0.001349
      f-1     :     0.000465
      f+2     :     0.001656
      f-2     :     0.000057
      f+3     :     0.003045
      f-3     :     0.002150
  2 C s       :     3.290519  s :     3.290519
      pz      :     1.018317  p :     2.914752
      px      :     0.937390
      py      :     0.959046
      dz2     :     0.005646  d :     0.047487
      dxz     :     0.013669
      dyz     :     0.003082
      dx2y2   :     0.008526
      dxy     :     0.016563
      f0      :     0.000494  f :     0.004706
      f+1     :     0.000867
      f-1     :     0.000294
      f+2     :     0.000676
      f-2     :     0.000165
      f+3     :     0.000996
      f-3     :     0.001214
  3 H s       :     0.813965  s :     0.813965
      pz      :     0.010780  p :     0.022411
      px      :     0.006855
      py      :     0.004775
  4 H s       :     0.823067  s :     0.823067
      pz      :     0.009813  p :     0.020467
      px      :     0.006570
      py      :     0.004084
  5 H s       :     0.837085  s :     0.837085
      pz      :     0.010837  p :     0.025260
      px      :     0.007250
      py      :     0.007173
  6 H s       :     0.850247  s :     0.850247
      pz      :     0.010254  p :     0.022304
      px      :     0.005750
      py      :     0.006300


                     *******************************
                     * LOEWDIN POPULATION ANALYSIS *
                     *******************************

----------------------
LOEWDIN ATOMIC CHARGES
----------------------
   0 O :    0.035899
   1 C :   -0.388446
   2 C :   -0.199930
   3 H :    0.157436
   4 H :    0.163334
   5 H :    0.102447
   6 H :    0.129260

-------------------------------
LOEWDIN REDUCED ORBITAL CHARGES
-------------------------------
  0 O s       :     3.596761  s :     3.596761
      pz      :     1.072809  p :     4.312092
      px      :     1.823686
      py      :     1.415597
      dz2     :     0.006982  d :     0.052283
      dxz     :     0.000284
      dyz     :     0.012460
      dx2y2   :     0.016630
      dxy     :     0.015927
      f0      :     0.000337  f :     0.002965
      f+1     :     0.000039
      f-1     :     0.000335
      f+2     :     0.000492
      f-2     :     0.000009
      f+3     :     0.000958
      f-3     :     0.000794
  1 C s       :     2.845590  s :     2.845590
      pz      :     0.997282  p :     2.932388
      px      :     1.093340
      py      :     0.841766
      dz2     :     0.062810  d :     0.536544
      dxz     :     0.119515
      dyz     :     0.053482
      dx2y2   :     0.149416
      dxy     :     0.151320
      f0      :     0.006162  f :     0.073923
      f+1     :     0.005931
      f-1     :     0.006458
      f+2     :     0.010672
      f-2     :     0.000741
      f+3     :     0.021390
      f-3     :     0.022569
  2 C s       :     2.900627  s :     2.900627
      pz      :     1.061429  p :     3.024464
      px      :     1.087198
      py      :     0.875837
      dz2     :     0.034913  d :     0.246771
      dxz     :     0.094361
      dyz     :     0.012127
      dx2y2   :     0.042029
      dxy     :     0.063342
      f0      :     0.003547  f :     0.028068
      f+1     :     0.004214
      f-1     :     0.002087
      f+2     :     0.003999
      f-2     :     0.001751
      f+3     :     0.005498
      f-3     :     0.006973
  3 H s       :     0.780739  s :     0.780739
      pz      :     0.031133  p :     0.061825
      px      :     0.018017
      py      :     0.012674
  4 H s       :     0.781504  s :     0.781504
      pz      :     0.027838  p :     0.055162
      px      :     0.016787
      py      :     0.010538
  5 H s       :     0.819800  s :     0.819800
      pz      :     0.034850  p :     0.077753
      px      :     0.020940
      py      :     0.021963
  6 H s       :     0.808398  s :     0.808398
      pz      :     0.029289  p :     0.062342
      px      :     0.015149
      py      :     0.017904


                      *****************************
                      * MAYER POPULATION ANALYSIS *
                      *****************************

  NA   - Mulliken gross atomic population
  ZA   - Total nuclear charge
  QA   - Mulliken gross atomic charge
  VA   - Mayer's total valence
  BVA  - Mayer's bonded valence
  FA   - Mayer's free valence

  ATOM       NA         ZA         QA         VA         BVA        FA
  0 O      8.2399     8.0000    -0.2399     1.9022     1.1362     0.7660
  1 C      6.0878     6.0000    -0.0878     4.0381     3.9508     0.0873
  2 C      6.2575     6.0000    -0.2575     3.8864     3.1367     0.7497
  3 H      0.8364     1.0000     0.1636     0.9651     0.9169     0.0482
  4 H      0.8435     1.0000     0.1565     0.9628     0.9057     0.0571
  5 H      0.8623     1.0000     0.1377     0.9740     0.9639     0.0101
  6 H      0.8726     1.0000     0.1274     0.9745     0.9636     0.0109

  Mayer bond orders larger than 0.100000
B(  0-O ,  1-C ) :   1.0198 B(  1-C ,  2-C ) :   1.1313 B(  1-C ,  3-H ) :   0.9028 
B(  1-C ,  4-H ) :   0.8907 B(  2-C ,  5-H ) :   0.9552 B(  2-C ,  6-H ) :   0.9504 



-------
TIMINGS
-------

Total TD-DFT gradient time         ...        6.057 sec

Fock matrix formation       ....       0.916 sec  ( 15.1%)
  Coulomb formation         ....       0.737 sec  ( 80.4% of F)
  RI-J                      ....       0.326 sec  ( 35.6% of F)
  Chain of spheres X        ....       0.410 sec  ( 44.8% of F)
  XC integration            ....       0.179 sec  ( 19.6% of F)
Z-vector equation           ....       2.024 sec  ( 33.4%)
One electron gradient       ....       0.037 sec  (  0.6%)
Prescreening matrices       ....       0.174 sec  (  2.9%)
RI-J Coulomb gradient       ....       0.306 sec  (  5.0%)
COSX gradient               ....       0.406 sec  (  6.7%)
XC gradient                 ....       1.837 sec  ( 30.3%)

Maximum memory used throughout the entire SCFGRAD-calculation: 130.2 MB

                            ***************************************
                            *     ORCA property calculations      *
                            ***************************************

                                    ---------------------
                                    Active property flags
                                    ---------------------
   (+) Dipole Moment


------------------------------------------------------------------------------
                       ORCA ELECTRIC PROPERTIES CALCULATION
------------------------------------------------------------------------------

Dipole Moment Calculation                       ... on
Quadrupole Moment Calculation                   ... off
Polarizability Calculation                      ... off
GBWName                                         ... ox_es1_D_orca0005.gbw
Electron density                                ... ox_es1_D_orca0005.scfp
The origin for moment calculation is the CENTER OF MASS  = (-0.508655,  0.079357 -0.046805)

-------------
DIPOLE MOMENT
-------------
                                X             Y             Z
Electronic contribution:     -0.36182       1.49541      -0.05003
Nuclear contribution   :      0.92537      -2.66878       0.06151
                        -----------------------------------------
Total Dipole Moment    :      0.56355      -1.17336       0.01148
                        -----------------------------------------
Magnitude (a.u.)       :      1.30173
Magnitude (Debye)      :      3.30874



--------------------
Rotational spectrum 
--------------------
 
Rotational constants in cm-1:     1.114134     0.431066     0.355625 
Rotational constants in MHz : 33400.890240 12923.048534 10661.354684 

 Dipole components along the rotational axes: 
x,y,z [a.u.] :     1.191712    -0.523759     0.002096 
x,y,z [Debye]:     3.029091    -1.331290     0.005326 

 

                        *** CIS RELAXED DENSITY ***

------------------------------------------------------------------------------
                       ORCA ELECTRIC PROPERTIES CALCULATION
------------------------------------------------------------------------------

Dipole Moment Calculation                       ... on
Quadrupole Moment Calculation                   ... off
Polarizability Calculation                      ... off
GBWName                                         ... ox_es1_D_orca0005.gbw
Electron density                                ... ox_es1_D_orca0005.cisp
The origin for moment calculation is the CENTER OF MASS  = (-0.508655,  0.079357 -0.046805)

-------------
DIPOLE MOMENT
-------------
                                X             Y             Z
Electronic contribution:     -0.97794       1.75019      -0.06356
Nuclear contribution   :      0.92537      -2.66878       0.06151
                        -----------------------------------------
Total Dipole Moment    :     -0.05257      -0.91859      -0.00205
                        -----------------------------------------
Magnitude (a.u.)       :      0.92009
Magnitude (Debye)      :      2.33869



--------------------
Rotational spectrum 
--------------------
 
Rotational constants in cm-1:     1.114134     0.431066     0.355625 
Rotational constants in MHz : 33400.890240 12923.048534 10661.354684 

 Dipole components along the rotational axes: 
x,y,z [a.u.] :     0.558391    -0.730866    -0.024608 
x,y,z [Debye]:     1.419318    -1.857715    -0.062550 

 

Timings for individual modules:

Sum of individual times         ...        8.626 sec (=   0.144 min)
GTO integral calculation        ...        0.251 sec (=   0.004 min)   2.9 %
SCF iterations                  ...        1.332 sec (=   0.022 min)  15.4 %
CIS module                      ...        0.824 sec (=   0.014 min)   9.5 %
SCF Gradient evaluation         ...        6.220 sec (=   0.104 min)  72.1 %
                             ****ORCA TERMINATED NORMALLY****
TOTAL RUN TIME: 0 days 0 hours 0 minutes 8 seconds 967 msec
