
                                 *****************
                                 * O   R   C   A *
                                 *****************

                                            #,                                       
                                            ###                                      
                                            ####                                     
                                            #####                                    
                                            ######                                   
                                           ########,                                 
                                     ,,################,,,,,                         
                               ,,#################################,,                 
                          ,,##########################################,,             
                       ,#########################################, ''#####,          
                    ,#############################################,,   '####,        
                  ,##################################################,,,,####,       
                ,###########''''           ''''###############################       
              ,#####''   ,,,,##########,,,,          '''####'''          '####       
            ,##' ,,,,###########################,,,                        '##       
           ' ,,###''''                  '''############,,,                           
         ,,##''                                '''############,,,,        ,,,,,,###''
      ,#''                                            '''#######################'''  
     '                                                          ''''####''''         
             ,#######,   #######,   ,#######,      ##                                
            ,#'     '#,  ##    ##  ,#'     '#,    #''#        ######   ,####,        
            ##       ##  ##   ,#'  ##            #'  '#       #        #'  '#        
            ##       ##  #######   ##           ,######,      #####,   #    #        
            '#,     ,#'  ##    ##  '#,     ,#' ,#      #,         ##   #,  ,#        
             '#######'   ##     ##  '#######'  #'      '#     #####' # '####'        



                  #######################################################
                  #                        -***-                        #
                  #          Department of theory and spectroscopy      #
                  #    Directorship and core code : Frank Neese         #
                  #        Max Planck Institute fuer Kohlenforschung    #
                  #                Kaiser Wilhelm Platz 1               #
                  #                 D-45470 Muelheim/Ruhr               #
                  #                      Germany                        #
                  #                                                     #
                  #                  All rights reserved                #
                  #                        -***-                        #
                  #######################################################


                         Program Version 5.0.2 -  RELEASE  -


 With contributions from (in alphabetic order):
   Daniel Aravena         : Magnetic Suceptibility
   Michael Atanasov       : Ab Initio Ligand Field Theory (pilot matlab implementation)
   Alexander A. Auer      : GIAO ZORA, VPT2 properties, NMR spectrum
   Ute Becker             : Parallelization
   Giovanni Bistoni       : ED, misc. LED, open-shell LED, HFLD
   Martin Brehm           : Molecular dynamics
   Dmytro Bykov           : SCF Hessian
   Vijay G. Chilkuri      : MRCI spin determinant printing, contributions to CSF-ICE
   Dipayan Datta          : RHF DLPNO-CCSD density
   Achintya Kumar Dutta   : EOM-CC, STEOM-CC
   Dmitry Ganyushin       : Spin-Orbit,Spin-Spin,Magnetic field MRCI
   Miquel Garcia          : C-PCM and meta-GGA Hessian, CC/C-PCM, Gaussian charge scheme
   Yang Guo               : DLPNO-NEVPT2, F12-NEVPT2, CIM, IAO-localization
   Andreas Hansen         : Spin unrestricted coupled pair/coupled cluster methods
   Benjamin Helmich-Paris : MC-RPA, TRAH-SCF, COSX integrals
   Lee Huntington         : MR-EOM, pCC
   Robert Izsak           : Overlap fitted RIJCOSX, COSX-SCS-MP3, EOM
   Marcus Kettner         : VPT2
   Christian Kollmar      : KDIIS, OOCD, Brueckner-CCSD(T), CCSD density, CASPT2, CASPT2-K
   Simone Kossmann        : Meta GGA functionals, TD-DFT gradient, OOMP2, MP2 Hessian
   Martin Krupicka        : Initial AUTO-CI
   Lucas Lang             : DCDCAS
   Marvin Lechner         : AUTO-CI (C++ implementation), FIC-MRCC
   Dagmar Lenk            : GEPOL surface, SMD
   Dimitrios Liakos       : Extrapolation schemes; Compound Job, initial MDCI parallelization
   Dimitrios Manganas     : Further ROCIS development; embedding schemes
   Dimitrios Pantazis     : SARC Basis sets
   Anastasios Papadopoulos: AUTO-CI, single reference methods and gradients
   Taras Petrenko         : DFT Hessian,TD-DFT gradient, ASA, ECA, R-Raman, ABS, FL, XAS/XES, NRVS
   Peter Pinski           : DLPNO-MP2, DLPNO-MP2 Gradient
   Christoph Reimann      : Effective Core Potentials
   Marius Retegan         : Local ZFS, SOC
   Christoph Riplinger    : Optimizer, TS searches, QM/MM, DLPNO-CCSD(T), (RO)-DLPNO pert. Triples
   Tobias Risthaus        : Range-separated hybrids, TD-DFT gradient, RPA, STAB
   Michael Roemelt        : Original ROCIS implementation
   Masaaki Saitow         : Open-shell DLPNO-CCSD energy and density
   Barbara Sandhoefer     : DKH picture change effects
   Avijit Sen             : IP-ROCIS
   Kantharuban Sivalingam : CASSCF convergence, NEVPT2, FIC-MRCI
   Bernardo de Souza      : ESD, SOC TD-DFT
   Georgi Stoychev        : AutoAux, RI-MP2 NMR, DLPNO-MP2 response
   Willem Van den Heuvel  : Paramagnetic NMR
   Boris Wezisla          : Elementary symmetry handling
   Frank Wennmohs         : Technical directorship


 We gratefully acknowledge several colleagues who have allowed us to
 interface, adapt or use parts of their codes:
   Stefan Grimme, W. Hujo, H. Kruse, P. Pracht,  : VdW corrections, initial TS optimization,
                  C. Bannwarth, S. Ehlert          DFT functionals, gCP, sTDA/sTD-DF
   Ed Valeev, F. Pavosevic, A. Kumar             : LibInt (2-el integral package), F12 methods
   Garnet Chan, S. Sharma, J. Yang, R. Olivares  : DMRG
   Ulf Ekstrom                                   : XCFun DFT Library
   Mihaly Kallay                                 : mrcc  (arbitrary order and MRCC methods)
   Jiri Pittner, Ondrej Demel                    : Mk-CCSD
   Frank Weinhold                                : gennbo (NPA and NBO analysis)
   Christopher J. Cramer and Donald G. Truhlar   : smd solvation model
   Lars Goerigk                                  : TD-DFT with DH, B97 family of functionals
   V. Asgeirsson, H. Jonsson                     : NEB implementation
   FAccTs GmbH                                   : IRC, NEB, NEB-TS, DLPNO-Multilevel, CI-OPT
                                                   MM, QMMM, 2- and 3-layer-ONIOM, Crystal-QMMM,
                                                   LR-CPCM, SF, NACMEs, symmetry and pop. for TD-DFT,
                                                   nearIR, NL-DFT gradient (VV10), updates on ESD,
                                                   ML-optimized integration grids
   S Lehtola, MJT Oliveira, MAL Marques          : LibXC Library
   Liviu Ungur et al                             : ANISO software


 Your calculation uses the libint2 library for the computation of 2-el integrals
 For citations please refer to: http://libint.valeyev.net

 Your ORCA version has been built with support for libXC version: 5.1.0
 For citations please refer to: https://tddft.org/programs/libxc/

 This ORCA versions uses:
   CBLAS   interface :  Fast vector & matrix operations
   LAPACKE interface :  Fast linear algebra routines
   SCALAPACK package :  Parallel linear algebra routines
   Shared memory     :  Shared parallel matrices
   BLAS/LAPACK       :  OpenBLAS 0.3.15  USE64BITINT DYNAMIC_ARCH NO_AFFINITY SkylakeX SINGLE_THREADED
        Core in use  :  SkylakeX
   Copyright (c) 2011-2014, The OpenBLAS Project


Your calculation utilizes the atom-pairwise dispersion correction
with the Becke-Johnson damping scheme (D3BJ)
Cite in your paper:
S.Grimme, S.Ehrlich, L.Goerigk, J Comput Chem, (2011), 32, 1456–1465 
S.Grimme, J.Antony, S.Ehrlich and H.Krieg, J.Chem.Phys., 132, (2010), 154104 
   

================================================================================

----- Orbital basis set information -----
Your calculation utilizes the basis: def2-TZVP
   F. Weigend and R. Ahlrichs, Phys. Chem. Chem. Phys. 7, 3297 (2005).

----- AuxJ basis set information -----
Your calculation utilizes the auxiliary basis: def2/J
   F. Weigend, Phys. Chem. Chem. Phys. 8, 1057 (2006).

================================================================================
                                        WARNINGS
                       Please study these warnings very carefully!
================================================================================

INFO   : Checking CIS options ...

WARNING: CIS/ROCIS methods need fully converged wavefunctions
  ===> : Setting SCFConvForced true
         You can overwrite this default with %scf ConvForced false 


INFO   : the flag for use of the SHARK integral package has been found!

================================================================================
                                       INPUT FILE
================================================================================
NAME = ox_es1_D_orca0002.inp
|  1> ! engrad PBE0 D3BJ def2-TZVP  
|  2> %pal nprocs 8 end
|  3> %maxcore 3000
|  4> 
|  5> %tddft
|  6>   nroots 1
|  7>   tda true
|  8>   Iroot 1
|  9>   end 
| 10> *xyz 0 1 
| 11> O   -0.6829987069061947 0.9589889804181618 0.02679573806699722
| 12> C   -0.7521412129095411 -0.40134405022686315 0.06423794169680283
| 13> C   0.7111648952727354 -0.4394715999118703 0.011334249426106956
| 14> H   -1.2787864868814591 -0.7332512035151112 0.9109832558489074
| 15> H   -1.1689065582859608 -0.6982550812856578 -0.8969911394110422
| 16> H   1.2408149183672743 -0.7630164406546887 -0.9378541930785252
| 17> H   1.3441471440079507 -0.6714321974420335 0.9844794032276672
| 18> *
| 19> 
| 20>                          ****END OF INPUT****
================================================================================

                     *******************************
                     * Energy+Gradient Calculation *
                     *******************************

---------------------------------
CARTESIAN COORDINATES (ANGSTROEM)
---------------------------------
  O     -0.682999    0.958989    0.026796
  C     -0.752141   -0.401344    0.064238
  C      0.711165   -0.439472    0.011334
  H     -1.278786   -0.733251    0.910983
  H     -1.168907   -0.698255   -0.896991
  H      1.240815   -0.763016   -0.937854
  H      1.344147   -0.671432    0.984479

----------------------------
CARTESIAN COORDINATES (A.U.)
----------------------------
  NO LB      ZA    FRAG     MASS         X           Y           Z
   0 O     8.0000    0    15.999   -1.290681    1.812227    0.050637
   1 C     6.0000    0    12.011   -1.421341   -0.758430    0.121392
   2 C     6.0000    0    12.011    1.343907   -0.830481    0.021419
   3 H     1.0000    0     1.008   -2.416556   -1.385644    1.721509
   4 H     1.0000    0     1.008   -2.208913   -1.319511   -1.695068
   5 H     1.0000    0     1.008    2.344800   -1.441892   -1.772288
   6 H     1.0000    0     1.008    2.540070   -1.268823    1.860396

--------------------------------
INTERNAL COORDINATES (ANGSTROEM)
--------------------------------
 O      0   0   0     0.000000000000     0.00000000     0.00000000
 C      1   0   0     1.362603595699     0.00000000     0.00000000
 C      2   1   0     1.464758436379    88.52742047     0.00000000
 H      2   1   3     1.050949680070   111.27578104   123.35418423
 H      2   1   3     1.088949429422   105.50775530   249.55417220
 H      3   2   1     1.134093960093   120.27937456   253.09208003
 H      3   2   1     1.183842783645   120.63485619   103.73070527

---------------------------
INTERNAL COORDINATES (A.U.)
---------------------------
 O      0   0   0     0.000000000000     0.00000000     0.00000000
 C      1   0   0     2.574947624968     0.00000000     0.00000000
 C      2   1   0     2.767992297108    88.52742047     0.00000000
 H      2   1   3     1.986007075865   111.27578104   123.35418423
 H      2   1   3     2.057816195297   105.50775530   249.55417220
 H      3   2   1     2.143126994710   120.27937456   253.09208003
 H      3   2   1     2.237138646708   120.63485619   103.73070527

---------------------
BASIS SET INFORMATION
---------------------
There are 3 groups of distinct atoms

 Group   1 Type O   : 11s6p2d1f contracted to 5s3p2d1f pattern {62111/411/11/1}
 Group   2 Type C   : 11s6p2d1f contracted to 5s3p2d1f pattern {62111/411/11/1}
 Group   3 Type H   : 5s1p contracted to 3s1p pattern {311/1}

Atom   0O    basis set group =>   1
Atom   1C    basis set group =>   2
Atom   2C    basis set group =>   2
Atom   3H    basis set group =>   3
Atom   4H    basis set group =>   3
Atom   5H    basis set group =>   3
Atom   6H    basis set group =>   3
---------------------------------
AUXILIARY/J BASIS SET INFORMATION
---------------------------------
There are 3 groups of distinct atoms

 Group   1 Type O   : 12s5p4d2f1g contracted to 6s4p3d1f1g pattern {711111/2111/211/2/1}
 Group   2 Type C   : 12s5p4d2f1g contracted to 6s4p3d1f1g pattern {711111/2111/211/2/1}
 Group   3 Type H   : 5s2p1d contracted to 3s1p1d pattern {311/2/1}

Atom   0O    basis set group =>   1
Atom   1C    basis set group =>   2
Atom   2C    basis set group =>   2
Atom   3H    basis set group =>   3
Atom   4H    basis set group =>   3
Atom   5H    basis set group =>   3
Atom   6H    basis set group =>   3

Checking for AutoStart:
The File: ox_es1_D_orca0002.gbw exists
Trying to determine its content:
     ... Fine, the file contains calculation information
     ... Fine, the calculation information was read
     ... Fine, the file contains a basis set
     ... Fine, the basis set was read
     ... Fine, the file contains a geometry
     ... Fine, the geometry was read
     ... Fine, the file contains a set of orbitals
     ... Fine, the orbitals can be read
     => possible old guess file was deleted
     => GBW file was renamed to GES file
     => GES file is set as startup file
     => Guess is set to MORead
     ... now leaving AutoStart



           ************************************************************
           *        Program running with 8 parallel MPI-processes     *
           *              working on a common directory               *
           ************************************************************
------------------------------------------------------------------------------
                           ORCA GTO INTEGRAL CALCULATION
                           -- RI-GTO INTEGRALS CHOSEN --
------------------------------------------------------------------------------
------------------------------------------------------------------------------
                   ___                                                        
                  /   \      - P O W E R E D   B Y -                         
                 /     \                                                     
                 |  |  |   _    _      __       _____    __    __             
                 |  |  |  | |  | |    /  \     |  _  \  |  |  /  |          
                  \  \/   | |  | |   /    \    | | | |  |  | /  /          
                 / \  \   | |__| |  /  /\  \   | |_| |  |  |/  /          
                |  |  |   |  __  | /  /__\  \  |    /   |      \           
                |  |  |   | |  | | |   __   |  |    \   |  |\   \          
                \     /   | |  | | |  |  |  |  | |\  \  |  | \   \       
                 \___/    |_|  |_| |__|  |__|  |_| \__\ |__|  \__/        
                                                                              
                      - O R C A' S   B I G   F R I E N D -                    
                                      &                                       
                       - I N T E G R A L  F E E D E R -                       
                                                                              
 v1 FN, 2020, v2 2021                                                         
------------------------------------------------------------------------------


Reading SHARK input file ox_es1_D_orca0002.SHARKINP.tmp ... ok
----------------------
SHARK INTEGRAL PACKAGE
----------------------

Number of atoms                             ...      7
Number of basis functions                   ...    117
Number of shells                            ...     49
Maximum angular momentum                    ...      3
Integral batch strategy                     ... SHARK/LIBINT Hybrid
RI-J (if used) integral strategy            ... SPLIT-RIJ (Revised 2003 algorithm where possible)
Printlevel                                  ...      1
Contraction scheme used                     ... SEGMENTED contraction
Coulomb Range Separation                    ... NOT USED
Exchange Range Separation                   ... NOT USED
Finite Nucleus Model                        ... NOT USED
Auxiliary Coulomb fitting basis             ... AVAILABLE
   # of basis functions in Aux-J            ...    191
   # of shells in Aux-J                     ...     65
   Maximum angular momentum in Aux-J        ...      4
Auxiliary J/K fitting basis                 ... NOT available
Auxiliary Correlation fitting basis         ... NOT available
Auxiliary 'external' fitting basis          ... NOT available
Integral threshold                          ...     2.500000e-11
Primitive cut-off                           ...     2.500000e-12
Primitive pair pre-selection threshold      ...     2.500000e-12

Calculating pre-screening integrals         ... done (  0.0 sec) Dimension = 49
Organizing shell pair data                  ... done (  0.0 sec)
Shell pair information
Total number of shell pairs                 ...      1225
Shell pairs after pre-screening             ...      1217
Total number of primitive shell pairs       ...      3648
Primitive shell pairs kept                  ...      3106
          la=0 lb=0:    370 shell pairs
          la=1 lb=0:    351 shell pairs
          la=1 lb=1:     91 shell pairs
          la=2 lb=0:    162 shell pairs
          la=2 lb=1:     78 shell pairs
          la=2 lb=2:     21 shell pairs
          la=3 lb=0:     81 shell pairs
          la=3 lb=1:     39 shell pairs
          la=3 lb=2:     18 shell pairs
          la=3 lb=3:      6 shell pairs

Calculating one electron integrals          ... done (  0.0 sec)
Calculating RI/J V-Matrix + Cholesky decomp.... done (  0.0 sec)
Calculating Nuclear repulsion               ... done (  0.0 sec) ENN=     70.327228527240 Eh

SHARK setup successfully completed in   0.1 seconds

Maximum memory used throughout the entire GTOINT-calculation: 14.9 MB


           ************************************************************
           *        Program running with 8 parallel MPI-processes     *
           *              working on a common directory               *
           ************************************************************
-------------------------------------------------------------------------------
                                 ORCA SCF
-------------------------------------------------------------------------------

------------
SCF SETTINGS
------------
Hamiltonian:
 Density Functional     Method          .... DFT(GTOs)
 Exchange Functional    Exchange        .... PBE
   PBE kappa parameter   XKappa         ....  0.804000
   PBE mue parameter    XMuePBE         ....  0.219520
 Correlation Functional Correlation     .... PBE
   PBE beta parameter  CBetaPBE         ....  0.066725
 LDA part of GGA corr.  LDAOpt          .... PW91-LDA
 Gradients option       PostSCFGGA      .... off
 Hybrid DFT is turned on
   Fraction HF Exchange ScalHFX         ....  0.250000
   Scaling of DF-GGA-X  ScalDFX         ....  0.750000
   Scaling of DF-GGA-C  ScalDFC         ....  1.000000
   Scaling of DF-LDA-C  ScalLDAC        ....  1.000000
   Perturbative correction              ....  0.000000
   Density functional embedding theory  .... OFF
   NL short-range parameter             ....  6.900000
 RI-approximation to the Coulomb term is turned on
   Number of AuxJ basis functions       .... 191
   RIJ-COSX (HFX calculated with COS-X)).... on


General Settings:
 Integral files         IntName         .... ox_es1_D_orca0002
 Hartree-Fock type      HFTyp           .... RHF
 Total Charge           Charge          ....    0
 Multiplicity           Mult            ....    1
 Number of Electrons    NEL             ....   24
 Basis Dimension        Dim             ....  117
 Nuclear Repulsion      ENuc            ....     70.3272285272 Eh

Convergence Acceleration:
 DIIS                   CNVDIIS         .... on
   Start iteration      DIISMaxIt       ....    12
   Startup error        DIISStart       ....  0.200000
   # of expansion vecs  DIISMaxEq       ....     5
   Bias factor          DIISBfac        ....   1.050
   Max. coefficient     DIISMaxC        ....  10.000
 Trust-Rad. Augm. Hess. CNVTRAH         .... auto
   Auto Start mean grad. ratio tolernc. ....  1.125000
   Auto Start start iteration           ....     1
   Auto Start num. interpolation iter.  ....    10
   Max. Number of Micro iterations      ....    16
   Max. Number of Macro iterations      .... Maxiter - #DIIS iter
   Number of Davidson start vectors     ....     2
   Converg. threshold I  (grad. norm)   ....   1.000e-05
   Converg. threshold II (energy diff.) ....   1.000e-08
   Grad. Scal. Fac. for Micro threshold ....   0.100
   Minimum threshold for Micro iter.    ....   0.010
   NR start threshold (gradient norm)   ....   0.001
   Initial trust radius                 ....   0.400
   Minimum AH scaling param. (alpha)    ....   1.000
   Maximum AH scaling param. (alpha)    .... 1000.000
   Orbital update algorithm             .... Taylor
   White noise on init. David. guess    .... on
   Maximum white noise                  ....   0.010
   Quad. conv. algorithm                .... NR
 SOSCF                  CNVSOSCF        .... on
   Start iteration      SOSCFMaxIt      ....   150
   Startup grad/error   SOSCFStart      ....  0.003300
 Level Shifting         CNVShift        .... on
   Level shift para.    LevelShift      ....    0.2500
   Turn off err/grad.   ShiftErr        ....    0.0010
 Zerner damping         CNVZerner       .... off
 Static damping         CNVDamp         .... on
   Fraction old density DampFac         ....    0.7000
   Max. Damping (<1)    DampMax         ....    0.9800
   Min. Damping (>=0)   DampMin         ....    0.0000
   Turn off err/grad.   DampErr         ....    0.1000
 Fernandez-Rico         CNVRico         .... off

SCF Procedure:
 Maximum # iterations   MaxIter         ....   125
 SCF integral mode      SCFMode         .... Direct
   Integral package                     .... SHARK and LIBINT hybrid scheme
 Reset frequency        DirectResetFreq ....    20
 Integral Threshold     Thresh          ....  2.500e-11 Eh
 Primitive CutOff       TCut            ....  2.500e-12 Eh

Convergence Tolerance:
 Convergence Check Mode ConvCheckMode   .... Total+1el-Energy
 Convergence forced     ConvForced      .... 1
 Energy Change          TolE            ....  1.000e-08 Eh
 1-El. energy change                    ....  1.000e-05 Eh
 Orbital Gradient       TolG            ....  1.000e-05
 Orbital Rotation angle TolX            ....  1.000e-05
 DIIS Error             TolErr          ....  5.000e-07


Diagonalization of the overlap matrix:
Smallest eigenvalue                        ... 4.492e-04
Time for diagonalization                   ...    0.001 sec
Threshold for overlap eigenvalues          ... 1.000e-08
Number of eigenvalues below threshold      ... 0
Time for construction of square roots      ...    0.001 sec
Total time needed                          ...    0.003 sec

---------------------
INITIAL GUESS: MOREAD
---------------------
Guess MOs are being read from file: ox_es1_D_orca0002.ges
Input Geometry matches current geometry (good)
Input basis set matches current basis set (good)
MOs were renormalized
MOs were reorthogonalized (Cholesky)
                      ------------------
                      INITIAL GUESS DONE (   0.0 sec)
                      ------------------
-------------------
DFT GRID GENERATION
-------------------

General Integration Accuracy     IntAcc      ... 4.388
Radial Grid Type                 RadialGrid  ... OptM3 with GC (2021)
Angular Grid (max. ang.)         AngularGrid ... 4 (Lebedev-302)
Angular grid pruning method      GridPruning ... 4 (adaptive)
Weight generation scheme         WeightScheme... Becke
Basis function cutoff            BFCut       ... 1.0000e-11
Integration weight cutoff        WCut        ... 1.0000e-14
Angular grids for H and He will be reduced by one unit
Partially contracted basis set               ... off
Rotationally invariant grid construction     ... off

Total number of grid points                  ...    31320
Total number of batches                      ...      495
Average number of points per batch           ...       63
Average number of grid points per atom       ...     4474
Time for grid setup =    0.120 sec

--------------------
COSX GRID GENERATION
--------------------

GRIDX 1
-------
General Integration Accuracy     IntAcc      ... 3.816
Radial Grid Type                 RadialGrid  ... OptM3 with GC (2021)
Angular Grid (max. ang.)         AngularGrid ... 1 (Lebedev-50)
Angular grid pruning method      GridPruning ... 4 (adaptive)
Weight generation scheme         WeightScheme... Becke
Basis function cutoff            BFCut       ... 1.0000e-11
Integration weight cutoff        WCut        ... 1.0000e-14
Angular grids for H and He will be reduced by one unit
Partially contracted basis set               ... on
Rotationally invariant grid construction     ... off

Total number of grid points                  ...     4025
Total number of batches                      ...       67
Average number of points per batch           ...       60
Average number of grid points per atom       ...      575
UseSFitting                                  ... on

GRIDX 2
-------
General Integration Accuracy     IntAcc      ... 4.020
Radial Grid Type                 RadialGrid  ... OptM3 with GC (2021)
Angular Grid (max. ang.)         AngularGrid ... 2 (Lebedev-110)
Angular grid pruning method      GridPruning ... 4 (adaptive)
Weight generation scheme         WeightScheme... Becke
Basis function cutoff            BFCut       ... 1.0000e-11
Integration weight cutoff        WCut        ... 1.0000e-14
Angular grids for H and He will be reduced by one unit
Partially contracted basis set               ... on
Rotationally invariant grid construction     ... off

Total number of grid points                  ...     8711
Total number of batches                      ...      140
Average number of points per batch           ...       62
Average number of grid points per atom       ...     1244
UseSFitting                                  ... on

GRIDX 3
-------
General Integration Accuracy     IntAcc      ... 4.338
Radial Grid Type                 RadialGrid  ... OptM3 with GC (2021)
Angular Grid (max. ang.)         AngularGrid ... 3 (Lebedev-194)
Angular grid pruning method      GridPruning ... 4 (adaptive)
Weight generation scheme         WeightScheme... Becke
Basis function cutoff            BFCut       ... 1.0000e-11
Integration weight cutoff        WCut        ... 1.0000e-14
Angular grids for H and He will be reduced by one unit
Partially contracted basis set               ... on
Rotationally invariant grid construction     ... off

Total number of grid points                  ...    19251
Total number of batches                      ...      305
Average number of points per batch           ...       63
Average number of grid points per atom       ...     2750
UseSFitting                                  ... on

Time for X-Grid setup             =    0.073 sec

--------------
SCF ITERATIONS
--------------
ITER       Energy         Delta-E        Max-DP      RMS-DP      [F,P]     Damp
               ***  Starting incremental Fock matrix formation  ***
                      *** Initiating the SOSCF procedure ***
                      *** Re-Reading the Fockian *** 
                      *** Removing any level shift *** 
ITER      Energy       Delta-E        Grad      Rot      Max-DP    RMS-DP
  0   -153.58315107 -153.5831510664  0.000002  0.000002  0.000002  0.000000
               *** Restarting incremental Fock matrix formation ***
                  ***Gradient check signals convergence***
              ***Rediagonalizing the Fockian in SOSCF/NRSCF***

               *****************************************************
               *                     SUCCESS                       *
               *           SCF CONVERGED AFTER   1 CYCLES          *
               *****************************************************

Old exchange energy                            =     -4.959698248 Eh
New exchange energy                            =     -4.959708208 Eh
Exchange energy change after final integration =     -0.000009960 Eh
Total energy after final integration           =   -153.583161026 Eh
Final COS-X integration done in                =     0.257 sec

----------------
TOTAL SCF ENERGY
----------------

Total Energy       :         -153.58316103 Eh           -4179.21028 eV

Components:
Nuclear Repulsion  :           70.32722853 Eh            1913.70118 eV
Electronic Energy  :         -223.91038955 Eh           -6092.91146 eV
One Electron Energy:         -347.45212284 Eh           -9454.65293 eV
Two Electron Energy:          123.54173328 Eh            3361.74147 eV
Max COSX asymmetry :            0.00000101 Eh               0.00003 eV

Virial components:
Potential Energy   :         -306.29272293 Eh           -8334.64872 eV
Kinetic Energy     :          152.70956191 Eh            4155.43844 eV
Virial Ratio       :            2.00572066


DFT components:
N(Alpha)           :       12.000005515607 electrons
N(Beta)            :       12.000005515607 electrons
N(Total)           :       24.000011031213 electrons
E(X)               :      -14.881378073450 Eh       
E(C)               :       -0.775786469283 Eh       
E(XC)              :      -15.657164542733 Eh       
DFET-embed. en.    :        0.000000000000 Eh       

---------------
SCF CONVERGENCE
---------------

  Last Energy change         ...   -6.5199e-11  Tolerance :   1.0000e-08
  Last MAX-Density change    ...    1.2212e-15  Tolerance :   1.0000e-07
  Last RMS-Density change    ...    2.1725e-17  Tolerance :   5.0000e-09
  Last Orbital Gradient      ...    1.9417e-06  Tolerance :   1.0000e-05
  Last Orbital Rotation      ...    1.1688e-05  Tolerance :   1.0000e-05

             **** THE GBW FILE WAS UPDATED (ox_es1_D_orca0002.gbw) ****
             **** DENSITY ox_es1_D_orca0002.scfp WAS UPDATED ****
             **** ENERGY FILE WAS UPDATED (ox_es1_D_orca0002.en.tmp) ****
             **** THE GBW FILE WAS UPDATED (ox_es1_D_orca0002.gbw) ****
             **** DENSITY ox_es1_D_orca0002.scfp WAS UPDATED ****
----------------
ORBITAL ENERGIES
----------------

  NO   OCC          E(Eh)            E(eV) 
   0   2.0000     -19.211235      -522.7643 
   1   2.0000     -10.321702      -280.8678 
   2   2.0000     -10.266192      -279.3573 
   3   2.0000      -1.033636       -28.1267 
   4   2.0000      -0.749081       -20.3835 
   5   2.0000      -0.625382       -17.0175 
   6   2.0000      -0.516033       -14.0420 
   7   2.0000      -0.487575       -13.2676 
   8   2.0000      -0.410048       -11.1580 
   9   2.0000      -0.409135       -11.1331 
  10   2.0000      -0.294556        -8.0153 
  11   2.0000      -0.268880        -7.3166 
  12   0.0000      -0.102746        -2.7959 
  13   0.0000       0.049737         1.3534 
  14   0.0000       0.076624         2.0850 
  15   0.0000       0.087517         2.3814 
  16   0.0000       0.130443         3.5495 
  17   0.0000       0.151106         4.1118 
  18   0.0000       0.186234         5.0677 
  19   0.0000       0.197735         5.3806 
  20   0.0000       0.241555         6.5730 
  21   0.0000       0.258039         7.0216 
  22   0.0000       0.268424         7.3042 
  23   0.0000       0.339302         9.2329 
  24   0.0000       0.378547        10.3008 
  25   0.0000       0.386909        10.5283 
  26   0.0000       0.396298        10.7838 
  27   0.0000       0.409148        11.1335 
  28   0.0000       0.434104        11.8126 
  29   0.0000       0.486837        13.2475 
  30   0.0000       0.499350        13.5880 
  31   0.0000       0.540184        14.6991 
  32   0.0000       0.550130        14.9698 
  33   0.0000       0.625736        17.0272 
  34   0.0000       0.657226        17.8840 
  35   0.0000       0.760765        20.7015 
  36   0.0000       0.805558        21.9204 
  37   0.0000       0.850834        23.1524 
  38   0.0000       0.877715        23.8838 
  39   0.0000       0.927978        25.2516 
  40   0.0000       0.954327        25.9685 
  41   0.0000       1.047847        28.5134 
  42   0.0000       1.064136        28.9566 
  43   0.0000       1.076317        29.2881 
  44   0.0000       1.175580        31.9892 
  45   0.0000       1.337852        36.4048 
  46   0.0000       1.386461        37.7275 
  47   0.0000       1.457082        39.6492 
  48   0.0000       1.524340        41.4794 
  49   0.0000       1.540590        41.9216 
  50   0.0000       1.577721        42.9320 
  51   0.0000       1.598039        43.4849 
  52   0.0000       1.673464        45.5373 
  53   0.0000       1.683223        45.8028 
  54   0.0000       1.705455        46.4078 
  55   0.0000       1.769568        48.1524 
  56   0.0000       1.801270        49.0151 
  57   0.0000       1.830833        49.8195 
  58   0.0000       1.877675        51.0941 
  59   0.0000       1.914696        52.1015 
  60   0.0000       1.993399        54.2431 
  61   0.0000       2.091806        56.9209 
  62   0.0000       2.122002        57.7426 
  63   0.0000       2.252724        61.2997 
  64   0.0000       2.323234        63.2184 
  65   0.0000       2.356001        64.1100 
  66   0.0000       2.377662        64.6995 
  67   0.0000       2.435202        66.2652 
  68   0.0000       2.477470        67.4154 
  69   0.0000       2.545252        69.2598 
  70   0.0000       2.561947        69.7141 
  71   0.0000       2.569432        69.9178 
  72   0.0000       2.610334        71.0308 
  73   0.0000       2.703141        73.5562 
  74   0.0000       2.774631        75.5016 
  75   0.0000       2.800529        76.2063 
  76   0.0000       2.836735        77.1915 
  77   0.0000       2.947151        80.1961 
  78   0.0000       2.964412        80.6658 
  79   0.0000       2.999609        81.6235 
  80   0.0000       3.072481        83.6065 
  81   0.0000       3.093300        84.1730 
  82   0.0000       3.103020        84.4375 
  83   0.0000       3.140060        85.4454 
  84   0.0000       3.184808        86.6630 
  85   0.0000       3.232166        87.9517 
  86   0.0000       3.312531        90.1385 
  87   0.0000       3.396809        92.4319 
  88   0.0000       3.485461        94.8442 
  89   0.0000       3.548775        96.5671 
  90   0.0000       3.611866        98.2839 
  91   0.0000       3.700410       100.6933 
  92   0.0000       3.711743       101.0017 
  93   0.0000       3.851106       104.7939 
  94   0.0000       3.953390       107.5772 
  95   0.0000       4.044397       110.0536 
  96   0.0000       4.106130       111.7335 
  97   0.0000       4.222938       114.9120 
  98   0.0000       4.349357       118.3520 
  99   0.0000       4.478315       121.8611 
 100   0.0000       4.530979       123.2942 
 101   0.0000       4.769831       129.7937 
 102   0.0000       5.221379       142.0810 
 103   0.0000       5.280854       143.6993 
 104   0.0000       5.415490       147.3630 
 105   0.0000       5.432318       147.8209 
 106   0.0000       5.861776       159.5070 
 107   0.0000       5.883838       160.1074 
 108   0.0000       6.021959       163.8658 
 109   0.0000       6.394372       173.9997 
 110   0.0000       6.490261       176.6090 
 111   0.0000       6.812247       185.3707 
 112   0.0000       6.896601       187.6660 
 113   0.0000       6.954983       189.2547 
 114   0.0000      21.967515       597.7665 
 115   0.0000      22.654304       616.4550 
 116   0.0000      43.752317      1190.5611 

                    ********************************
                    * MULLIKEN POPULATION ANALYSIS *
                    ********************************

-----------------------
MULLIKEN ATOMIC CHARGES
-----------------------
   0 O :   -0.357915
   1 C :    0.026635
   2 C :   -0.168417
   3 H :    0.098295
   4 H :    0.078444
   5 H :    0.162758
   6 H :    0.160199
Sum of atomic charges:    0.0000000

--------------------------------
MULLIKEN REDUCED ORBITAL CHARGES
--------------------------------
  0 O s       :     3.900543  s :     3.900543
      pz      :     1.882451  p :     4.427934
      px      :     1.277215
      py      :     1.268268
      dz2     :     0.003646  d :     0.027964
      dxz     :     0.000417
      dyz     :     0.006080
      dx2y2   :     0.009157
      dxy     :     0.008664
      f0      :     0.000179  f :     0.001474
      f+1     :     0.000079
      f-1     :     0.000346
      f+2     :     0.000188
      f-2     :     0.000027
      f+3     :     0.000345
      f-3     :     0.000311
  1 C s       :     3.161479  s :     3.161479
      pz      :     1.033044  p :     2.642235
      px      :     0.895617
      py      :     0.713575
      dz2     :     0.009084  d :     0.158579
      dxz     :     0.016833
      dyz     :     0.054266
      dx2y2   :     0.024427
      dxy     :     0.053969
      f0      :     0.001952  f :     0.011072
      f+1     :     0.000992
      f-1     :     0.001038
      f+2     :     0.002996
      f-2     :     0.000150
      f+3     :     0.002144
      f-3     :     0.001800
  2 C s       :     3.319871  s :     3.319871
      pz      :     1.039178  p :     2.782079
      px      :     1.001314
      py      :     0.741587
      dz2     :     0.006760  d :     0.060954
      dxz     :     0.024438
      dyz     :     0.007824
      dx2y2   :     0.007012
      dxy     :     0.014921
      f0      :     0.000535  f :     0.005513
      f+1     :     0.001019
      f-1     :     0.000186
      f+2     :     0.000780
      f-2     :     0.000458
      f+3     :     0.001149
      f-3     :     0.001385
  3 H s       :     0.880049  s :     0.880049
      pz      :     0.010197  p :     0.021656
      px      :     0.006829
      py      :     0.004630
  4 H s       :     0.900611  s :     0.900611
      pz      :     0.011230  p :     0.020945
      px      :     0.005330
      py      :     0.004385
  5 H s       :     0.816052  s :     0.816052
      pz      :     0.010551  p :     0.021190
      px      :     0.006202
      py      :     0.004437
  6 H s       :     0.820460  s :     0.820460
      pz      :     0.009669  p :     0.019341
      px      :     0.006326
      py      :     0.003346


                     *******************************
                     * LOEWDIN POPULATION ANALYSIS *
                     *******************************

----------------------
LOEWDIN ATOMIC CHARGES
----------------------
   0 O :    0.016181
   1 C :   -0.467056
   2 C :   -0.059178
   3 H :    0.102459
   4 H :    0.115709
   5 H :    0.140842
   6 H :    0.151043

-------------------------------
LOEWDIN REDUCED ORBITAL CHARGES
-------------------------------
  0 O s       :     3.508224  s :     3.508224
      pz      :     1.793159  p :     4.406537
      px      :     1.216169
      py      :     1.397210
      dz2     :     0.007725  d :     0.064425
      dxz     :     0.000680
      dyz     :     0.016734
      dx2y2   :     0.019693
      dxy     :     0.019593
      f0      :     0.000486  f :     0.004632
      f+1     :     0.000133
      f-1     :     0.000688
      f+2     :     0.000900
      f-2     :     0.000056
      f+3     :     0.001461
      f-3     :     0.000908
  1 C s       :     2.804743  s :     2.804743
      pz      :     1.045532  p :     2.935879
      px      :     1.038811
      py      :     0.851536
      dz2     :     0.068589  d :     0.642767
      dxz     :     0.096735
      dyz     :     0.159586
      dx2y2   :     0.144063
      dxy     :     0.173795
      f0      :     0.013079  f :     0.083667
      f+1     :     0.005567
      f-1     :     0.008808
      f+2     :     0.018897
      f-2     :     0.002005
      f+3     :     0.015910
      f-3     :     0.019401
  2 C s       :     2.928657  s :     2.928657
      pz      :     1.064047  p :     2.858539
      px      :     1.106379
      py      :     0.688114
      dz2     :     0.030464  d :     0.246125
      dxz     :     0.110672
      dyz     :     0.017959
      dx2y2   :     0.040806
      dxy     :     0.046223
      f0      :     0.003297  f :     0.025857
      f+1     :     0.003041
      f-1     :     0.001374
      f+2     :     0.004246
      f-2     :     0.001868
      f+3     :     0.004996
      f-3     :     0.007034
  3 H s       :     0.832477  s :     0.832477
      pz      :     0.031900  p :     0.065063
      px      :     0.019373
      py      :     0.013790
  4 H s       :     0.825512  s :     0.825512
      pz      :     0.032095  p :     0.058779
      px      :     0.014732
      py      :     0.011952
  5 H s       :     0.799623  s :     0.799623
      pz      :     0.031270  p :     0.059535
      px      :     0.016299
      py      :     0.011966
  6 H s       :     0.796606  s :     0.796606
      pz      :     0.027833  p :     0.052351
      px      :     0.015891
      py      :     0.008627


                      *****************************
                      * MAYER POPULATION ANALYSIS *
                      *****************************

  NA   - Mulliken gross atomic population
  ZA   - Total nuclear charge
  QA   - Mulliken gross atomic charge
  VA   - Mayer's total valence
  BVA  - Mayer's bonded valence
  FA   - Mayer's free valence

  ATOM       NA         ZA         QA         VA         BVA        FA
  0 O      8.3579     8.0000    -0.3579     1.9236     1.9236    -0.0000
  1 C      5.9734     6.0000     0.0266     4.0570     4.0570    -0.0000
  2 C      6.1684     6.0000    -0.1684     3.8038     3.8038     0.0000
  3 H      0.9017     1.0000     0.0983     0.9487     0.9487     0.0000
  4 H      0.9216     1.0000     0.0784     0.9567     0.9567    -0.0000
  5 H      0.8372     1.0000     0.1628     0.9555     0.9555    -0.0000
  6 H      0.8398     1.0000     0.1602     0.9583     0.9583    -0.0000

  Mayer bond orders larger than 0.100000
B(  0-O ,  1-C ) :   1.0589 B(  0-O ,  2-C ) :   0.8554 B(  1-C ,  2-C ) :   1.0670 
B(  1-C ,  3-H ) :   0.9570 B(  1-C ,  4-H ) :   0.9610 B(  2-C ,  5-H ) :   0.9362 
B(  2-C ,  6-H ) :   0.9377 

-------
TIMINGS
-------

Total SCF time: 0 days 0 hours 0 min 1 sec 

Total time                  ....       1.034 sec
Sum of individual times     ....       0.911 sec  ( 88.1%)

Fock matrix formation       ....       0.700 sec  ( 67.7%)
  Split-RI-J                ....       0.114 sec  ( 16.3% of F)
  Chain of spheres X        ....       0.514 sec  ( 73.4% of F)
  XC integration            ....       0.063 sec  (  9.0% of F)
    Basis function eval.    ....       0.018 sec  ( 28.6% of XC)
    Density eval.           ....       0.014 sec  ( 21.7% of XC)
    XC-Functional eval.     ....       0.004 sec  (  5.9% of XC)
    XC-Potential eval.      ....       0.021 sec  ( 33.0% of XC)
Diagonalization             ....       0.002 sec  (  0.2%)
Density matrix formation    ....       0.000 sec  (  0.0%)
Population analysis         ....       0.003 sec  (  0.3%)
Initial guess               ....       0.009 sec  (  0.9%)
Orbital Transformation      ....       0.000 sec  (  0.0%)
Orbital Orthonormalization  ....       0.001 sec  (  0.1%)
DIIS solution               ....       0.001 sec  (  0.1%)
SOSCF solution              ....       0.002 sec  (  0.2%)
Grid generation             ....       0.193 sec  ( 18.7%)

Maximum memory used throughout the entire SCF-calculation: 61.1 MB


           ************************************************************
           *        Program running with 8 parallel MPI-processes     *
           *              working on a common directory               *
           ************************************************************
------------------------------------------------------------------------------
                        ORCA TD-DFT/TDA CALCULATION
------------------------------------------------------------------------------

Input orbitals are from        ... ox_es1_D_orca0002.gbw
CI-vector output               ... ox_es1_D_orca0002.cis
Tamm-Dancoff approximation     ... operative
CIS-Integral strategy          ... AO-integrals
Integral handling              ... AO integral Direct
Max. core memory used          ... 3000 MB
Reference state                ... RHF
Generation of triplets         ... off
Follow IRoot                   ... off
Number of operators            ... 1
Orbital ranges used for CIS calculation:
 Operator 0:  Orbitals   3... 11  to  12...116
XAS localization array:
 Operator 0:  Orbitals  -1... -1

-------------------
XC-INTEGRATION GRID
-------------------

General Integration Accuracy     IntAcc      ... 3.467
Radial Grid Type                 RadialGrid  ... OptM3 with GC (2021)
Angular Grid (max. ang.)         AngularGrid ... 1 (Lebedev-50)
Angular grid pruning method      GridPruning ... 4 (adaptive)
Weight generation scheme         WeightScheme... Becke
Basis function cutoff            BFCut       ... 1.0000e-11
Integration weight cutoff        WCut        ... 1.0000e-14
Angular grids for H and He will be reduced by one unit
Partially contracted basis set               ... off
Rotationally invariant grid construction     ... off

Total number of grid points                  ...     4530
Total number of batches                      ...       75
Average number of points per batch           ...       60
Average number of grid points per atom       ...      647

---------------------
COSX-INTEGRATION GRID
---------------------

General Integration Accuracy     IntAcc      ... 3.067
Radial Grid Type                 RadialGrid  ... OptM3 with GC (2021)
Angular Grid (max. ang.)         AngularGrid ... 1 (Lebedev-50)
Angular grid pruning method      GridPruning ... 4 (adaptive)
Weight generation scheme         WeightScheme... Becke
Basis function cutoff            BFCut       ... 1.0000e-11
Integration weight cutoff        WCut        ... 1.0000e-14
Angular grids for H and He will be reduced by one unit
Partially contracted basis set               ... on
Rotationally invariant grid construction     ... off

Total number of grid points                  ...     2080
Total number of batches                      ...       37
Average number of points per batch           ...       56
Average number of grid points per atom       ...      297

---------------
TD-DFT XC SETUP
---------------

DFT calculation                         ... on
Name of the grid file                   ... ox_es1_D_orca0002.grid_cis.tmp
Exchange functional (TD-DFT)            ... PBE
   PBE kappa parameter  XKappa (TD-DFT) ...  0.804000
   PBE mue parameter   XMuePBE (TD-DFT) ...  0.219520
Correlation functional (TD-DFT)         ... PBE
   PBE beta parameter CBetaPBE (TD-DFT) ...  0.066725
 LDA part of GGA corr.  LDAOpt (TD-DFT) ... PW91-LDA
Hybrid DFT                              ... on
   Exchange mixing (TD-DFT)             ...  0.250
   GGA exch. scaling (TD-DFT)           ...  0.750
   GGA corr. scaling (TD-DFT)           ...  1.000

Building densities             ... done
Calculating rho(r) on the grid ... done
Building xc-kernel on the grid ... done
                    *** TD-DFT CALCULATION INITIALIZED ***

------------------------
DAVIDSON-DIAGONALIZATION
------------------------

Dimension of the eigenvalue problem            ...    945
Number of roots to be determined               ...      1
Maximum size of the expansion space            ...     10
Maximum number of iterations                   ...    100
Convergence tolerance for the residual         ...    2.500e-07
Convergence tolerance for the energies         ...    2.500e-07
Orthogonality tolerance                        ...    1.000e-14
Level Shift                                    ...    0.000e+00
Constructing the preconditioner                ... o.k.
Building the initial guess                     ... o.k.
Number of trial vectors determined             ...     10


                       ****Iteration    0****

   Memory handling for direct AO based CIS:
   Memory per vector needed      ...     1 MB
   Memory needed                 ...     1 MB
   Memory available              ...  3000 MB
   Number of vectors per batch   ...  3000
   Number of batches             ...     1
   Time for densities:            0.001
   Time for RI-J (Direct):        0.016
   Time for K (COSX):             0.056
   Time for XC-Integration:       0.015
   Time for Sigma-Completion:     0.000
   Size of expansion space: 3
   Lowest Energy          :     0.084723537662
   Maximum Energy change  :     0.084723537662 (vector 0)
   Maximum residual norm  :     0.002819174146

                       ****Iteration    1****
   Time for densities:            0.000
   Time for RI-J (Direct):        0.013
   Time for K (COSX):             0.050
   Time for XC-Integration:       0.006
   Time for Sigma-Completion:     0.000
   Size of expansion space: 4
   Lowest Energy          :     0.082686013761
   Maximum Energy change  :     0.002037523902 (vector 0)
   Maximum residual norm  :     0.000051866600

                       ****Iteration    2****
   Time for densities:            0.000
   Time for RI-J (Direct):        0.012
   Time for K (COSX):             0.050
   Time for XC-Integration:       0.006
   Time for Sigma-Completion:     0.000
   Size of expansion space: 5
   Lowest Energy          :     0.082654514050
   Maximum Energy change  :     0.000031499711 (vector 0)
   Maximum residual norm  :     0.000001125126

                       ****Iteration    3****
   Time for densities:            0.000
   Time for RI-J (Direct):        0.012
   Time for K (COSX):             0.050
   Time for XC-Integration:       0.006
   Time for Sigma-Completion:     0.000
   Size of expansion space: 6
   Lowest Energy          :     0.082653391080
   Maximum Energy change  :     0.000001122970 (vector 0)
   Maximum residual norm  :     0.000000085962

      *** CONVERGENCE OF RESIDUAL NORM REACHED ***

Storing the converged CI vectors               ... ox_es1_D_orca0002.cis1

                 *** DAVIDSON DONE ***

Total time for solving the CIS problem:     0.297sec

------------------------------------
TD-DFT/TDA EXCITED STATES (SINGLETS)
------------------------------------

the weight of the individual excitations are printed if larger than 1.0e-02

STATE  1:  E=   0.082653 au      2.249 eV    18140.3 cm**-1 <S**2> =   0.000000
    10a ->  12a  :     0.012539 (c=  0.11197690)
    11a ->  12a  :     0.981762 (c=  0.99083885)


-----------------------------
TD-DFT/TDA-EXCITATION SPECTRA
-----------------------------

Center of mass = ( -0.4839,  0.1010,  0.0599)
Calculating the Dipole integrals                  ... done
Transforming integrals                            ... done
Calculating the Linear Momentum integrals         ... done
Transforming integrals                            ... done
Calculating angular momentum integrals            ... done
Transforming integrals                            ... done

-----------------------------------------------------------------------------
         ABSORPTION SPECTRUM VIA TRANSITION ELECTRIC DIPOLE MOMENTS
-----------------------------------------------------------------------------
State   Energy    Wavelength  fosc         T2        TX        TY        TZ  
        (cm-1)      (nm)                 (au**2)    (au)      (au)      (au) 
-----------------------------------------------------------------------------
   1   18140.3    551.3   0.000541579   0.00983  -0.04157   0.01165  -0.08925

-----------------------------------------------------------------------------
         ABSORPTION SPECTRUM VIA TRANSITION VELOCITY DIPOLE MOMENTS
-----------------------------------------------------------------------------
State   Energy    Wavelength   fosc        P2         PX        PY        PZ  
        (cm-1)      (nm)                 (au**2)     (au)      (au)      (au) 
-----------------------------------------------------------------------------
   1   18140.3    551.3   0.008113080   0.00101  -0.00509   0.00660   0.03060

-------------------------------------------------------------------
                             CD SPECTRUM
-------------------------------------------------------------------
State  Energy     Wavelength     R         MX        MY        MZ   
       (cm-1)       (nm)     (1e40*cgs)   (au)      (au)      (au)  
-------------------------------------------------------------------
   1   18140.3    551.3      2.22042   0.01200   0.25917  -0.02454

-------------------------------------------------------------------
         CD SPECTRUM VIA TRANSITION VELOCITY DIPOLE MOMENTS        
-------------------------------------------------------------------
State  Energy     Wavelength     R         MX        MY        MZ   
       (cm-1)       (nm)     (1e40*cgs)   (au)      (au)      (au)  
-------------------------------------------------------------------
   1   18140.3    551.3      5.12538   0.01200   0.25917  -0.02454

Total run time:        0.584 sec

           *** ORCA-CIS/TD-DFT FINISHED WITHOUT ERROR ***

Maximum memory used throughout the entire CIS-calculation: 49.4 MB

-----------------------
CIS/TD-DFT TOTAL ENERGY
-----------------------

    E(SCF)  =   -153.583161026 Eh
    DE(CIS) =      0.082653391 Eh (Root  1)
    ----------------------------- ---------
    E(tot)  =   -153.500507635 Eh



-------------------------------------------------------------------------------
                          DFT DISPERSION CORRECTION                            
                                                                               
                              DFTD3 V3.1  Rev 1                                
                          USING Becke-Johnson damping                          
-------------------------------------------------------------------------------
The PBE0 functional is recognized
Active option DFTDOPT                   ...         4   

molecular C6(AA) [au] = 390.852397 


            DFT-D V3
 parameters
 s6 scaling factor         :     1.0000 
 a1 scaling factor         :     0.4145 
 s8 scaling factor         :     1.2177 
 a2 scaling factor         :     4.8593 
 ad hoc parameters k1-k3   :    16.0000     1.3333    -4.0000 

 Edisp/kcal,au: -1.643734690732  -0.002619457687 
 E6   /kcal   :  -1.073177013 
 E8   /kcal   :  -0.570557678 
 % E8         :  34.711056545 

-------------------------   ----------------
Dispersion correction           -0.002619458
-------------------------   ----------------


-------------------------   --------------------
FINAL SINGLE POINT ENERGY      -153.503127092986
-------------------------   --------------------



           ************************************************************
           *        Program running with 8 parallel MPI-processes     *
           *              working on a common directory               *
           ************************************************************
------------------------------------------------------------------------------
                         ORCA SCF GRADIENT CALCULATION
------------------------------------------------------------------------------


------------------------
TD-DFT GRADIENT XC SETUP
------------------------

Building densities                     ... done
Calculating rho(r) on the grid         ... done
Building xc-kernel on the grid         ... done
Building xc 3rd derivative on the grid      ... done
                *** TD-DFT GRADIENT CALCULATION INITIALIZED ***

-------------------
TD-DFT/TDA GRADIENT
-------------------

Reference wavefunction             ... RHF
State of interest                  ... 1
Basis dimension                    ... 117
DFT-XC contribution needed         ... YES
RI-approximation                   ... ON
CIS-vectors being read from        ... ox_es1_D_orca0002.cis

 => Number of Vectors found: 1
 => Orbital Window: 3...11 -> 12...116

Reading the CIS file                     ... done
Norm of the CI vector                    ... 1.000000000
Making the CIS (pseudo)densities         ... done
Making operators G(D) and Q(T)           ... done
Transforming the Fock operators          ... done
Making the frozen-core relaxed density   ... done
Constructing the G(H) operator           ... done
Transforming the G(H) operator           ... done
Calculating the CIS Lagrangian           ... done
Solving the Z-vector equations           ... done
Finalizing the relaxed density           ... done
Storing the relaxed density              ... done
Constructing the G(Z) operator           ... done
Transforming the G(Z) operator           ... done
Making the W-matrix                      ... done
Finalizing the W-matrix                  ... done
Transforming the W-matrix                ... done
Nuclear repulsion gradient               ... done
One-Electron gradient                    ... done
Dispersion correction                    ... done
Prescreening matrices                    ... done
COSX-gradient                            ... done
Coulomb gradient (RI)                    ... done
Exchange-Correlation gradient            ... done

                 ---------------------------
                 EXCITED STATE GRADIENT DONE
                 ---------------------------

------------------
CARTESIAN GRADIENT
------------------

   1   O   :    0.045458405   -0.037659551   -0.001814663
   2   C   :   -0.067402643   -0.037627468    0.023525158
   3   C   :   -0.060391864    0.080734048   -0.022478653
   4   H   :    0.023097806    0.016241158   -0.021797578
   5   H   :    0.016919561    0.009512911    0.004880634
   6   H   :    0.014483493   -0.014792591   -0.021804565
   7   H   :    0.027829278   -0.016473402    0.039519356

Difference to translation invariance:
           :   -0.0000059645   -0.0000648941    0.0000296888

Difference to rotation invariance:
           :   -0.0000608051    0.0001696345    0.0006663272

Norm of the cartesian gradient     ...    0.1607964212
RMS gradient                       ...    0.0350886558
MAX gradient                       ...    0.0807340479

------------------------------------------------------------------------------
                  RELAXED CIS/TDA DENSITY POPULATION ANALYSIS
                                   IROOT 1
------------------------------------------------------------------------------
------------------------------------------------------------------------------
                           ORCA POPULATION ANALYSIS
------------------------------------------------------------------------------
Input electron density              ... ox_es1_D_orca0002.cisp
BaseName (.gbw .S,...)              ... ox_es1_D_orca0002

                    ********************************
                    * MULLIKEN POPULATION ANALYSIS *
                    ********************************

-----------------------
MULLIKEN ATOMIC CHARGES
-----------------------
   0 O :   -0.199927
   1 C :   -0.031689
   2 C :   -0.329894
   3 H :    0.146104
   4 H :    0.150473
   5 H :    0.134236
   6 H :    0.130697
Sum of atomic charges:   -0.0000000

--------------------------------
MULLIKEN REDUCED ORBITAL CHARGES
--------------------------------
  0 O s       :     3.883584  s :     3.883584
      pz      :     1.091308  p :     4.288077
      px      :     1.865961
      py      :     1.330808
      dz2     :     0.003113  d :     0.027122
      dxz     :     0.000378
      dyz     :     0.006742
      dx2y2   :     0.009421
      dxy     :     0.007468
      f0      :     0.000047  f :     0.001145
      f+1     :    -0.000047
      f-1     :     0.000103
      f+2     :     0.000229
      f-2     :     0.000009
      f+3     :     0.000390
      f-3     :     0.000413
  1 C s       :     3.163421  s :     3.163421
      pz      :     1.008534  p :     2.716124
      px      :     0.977764
      py      :     0.729826
      dz2     :     0.008189  d :     0.141009
      dxz     :     0.019410
      dyz     :     0.026383
      dx2y2   :     0.025507
      dxy     :     0.061520
      f0      :     0.001037  f :     0.011136
      f+1     :     0.001085
      f-1     :     0.000824
      f+2     :     0.001777
      f-2     :     0.000154
      f+3     :     0.003896
      f-3     :     0.002362
  2 C s       :     3.342343  s :     3.342343
      pz      :     1.023078  p :     2.931153
      px      :     0.927294
      py      :     0.980782
      dz2     :     0.005990  d :     0.051211
      dxz     :     0.015340
      dyz     :     0.003521
      dx2y2   :     0.009046
      dxy     :     0.017314
      f0      :     0.000466  f :     0.005186
      f+1     :     0.000856
      f-1     :     0.000297
      f+2     :     0.000728
      f-2     :     0.000278
      f+3     :     0.001306
      f-3     :     0.001254
  3 H s       :     0.831532  s :     0.831532
      pz      :     0.010479  p :     0.022364
      px      :     0.007123
      py      :     0.004761
  4 H s       :     0.827715  s :     0.827715
      pz      :     0.011513  p :     0.021812
      px      :     0.005736
      py      :     0.004564
  5 H s       :     0.843733  s :     0.843733
      pz      :     0.009652  p :     0.022030
      px      :     0.005892
      py      :     0.006487
  6 H s       :     0.849339  s :     0.849339
      pz      :     0.008731  p :     0.019965
      px      :     0.006003
      py      :     0.005231


                     *******************************
                     * LOEWDIN POPULATION ANALYSIS *
                     *******************************

----------------------
LOEWDIN ATOMIC CHARGES
----------------------
   0 O :    0.133293
   1 C :   -0.428134
   2 C :   -0.257460
   3 H :    0.134369
   4 H :    0.167131
   5 H :    0.120827
   6 H :    0.129973

-------------------------------
LOEWDIN REDUCED ORBITAL CHARGES
-------------------------------
  0 O s       :     3.521810  s :     3.521810
      pz      :     1.053635  p :     4.271963
      px      :     1.769766
      py      :     1.448563
      dz2     :     0.008249  d :     0.068537
      dxz     :     0.000670
      dyz     :     0.015312
      dx2y2   :     0.019252
      dxy     :     0.025054
      f0      :     0.000481  f :     0.004397
      f+1     :     0.000082
      f-1     :     0.000456
      f+2     :     0.000719
      f-2     :     0.000039
      f+3     :     0.001626
      f-3     :     0.000994
  1 C s       :     2.808501  s :     2.808501
      pz      :     1.001801  p :     2.957502
      px      :     1.086390
      py      :     0.869312
      dz2     :     0.067022  d :     0.572673
      dxz     :     0.095559
      dyz     :     0.078993
      dx2y2   :     0.160703
      dxy     :     0.170396
      f0      :     0.007687  f :     0.089458
      f+1     :     0.005462
      f-1     :     0.008491
      f+2     :     0.012158
      f-2     :     0.002023
      f+3     :     0.030341
      f-3     :     0.023297
  2 C s       :     2.948769  s :     2.948769
      pz      :     1.055370  p :     3.022880
      px      :     1.067038
      py      :     0.900471
      dz2     :     0.033370  d :     0.257984
      dxz     :     0.100261
      dyz     :     0.012265
      dx2y2   :     0.042335
      dxy     :     0.069752
      f0      :     0.003197  f :     0.027826
      f+1     :     0.003788
      f-1     :     0.002181
      f+2     :     0.003855
      f-2     :     0.001498
      f+3     :     0.006262
      f-3     :     0.007045
  3 H s       :     0.798951  s :     0.798951
      pz      :     0.032329  p :     0.066679
      px      :     0.020267
      py      :     0.014084
  4 H s       :     0.772077  s :     0.772077
      pz      :     0.032522  p :     0.060792
      px      :     0.015996
      py      :     0.012274
  5 H s       :     0.816946  s :     0.816946
      pz      :     0.028569  p :     0.062227
      px      :     0.015551
      py      :     0.018106
  6 H s       :     0.815744  s :     0.815744
      pz      :     0.025358  p :     0.054283
      px      :     0.015060
      py      :     0.013865


                      *****************************
                      * MAYER POPULATION ANALYSIS *
                      *****************************

  NA   - Mulliken gross atomic population
  ZA   - Total nuclear charge
  QA   - Mulliken gross atomic charge
  VA   - Mayer's total valence
  BVA  - Mayer's bonded valence
  FA   - Mayer's free valence

  ATOM       NA         ZA         QA         VA         BVA        FA
  0 O      8.1999     8.0000    -0.1999     1.9356     1.2132     0.7224
  1 C      6.0317     6.0000    -0.0317     4.0683     3.9892     0.0792
  2 C      6.3299     6.0000    -0.3299     3.8478     3.0637     0.7841
  3 H      0.8539     1.0000     0.1461     0.9533     0.9067     0.0466
  4 H      0.8495     1.0000     0.1505     0.9549     0.8727     0.0821
  5 H      0.8658     1.0000     0.1342     0.9719     0.9584     0.0135
  6 H      0.8693     1.0000     0.1307     0.9740     0.9608     0.0133

  Mayer bond orders larger than 0.100000
B(  0-O ,  1-C ) :   1.1152 B(  1-C ,  2-C ) :   1.0921 B(  1-C ,  3-H ) :   0.9053 
B(  1-C ,  4-H ) :   0.8698 B(  2-C ,  5-H ) :   0.9441 B(  2-C ,  6-H ) :   0.9464 



-------
TIMINGS
-------

Total TD-DFT gradient time         ...        5.153 sec

Fock matrix formation       ....       0.844 sec  ( 16.4%)
  Coulomb formation         ....       0.690 sec  ( 81.8% of F)
  RI-J                      ....       0.297 sec  ( 35.2% of F)
  Chain of spheres X        ....       0.393 sec  ( 46.5% of F)
  XC integration            ....       0.153 sec  ( 18.2% of F)
Z-vector equation           ....       1.583 sec  ( 30.7%)
One electron gradient       ....       0.032 sec  (  0.6%)
Prescreening matrices       ....       0.154 sec  (  3.0%)
RI-J Coulomb gradient       ....       0.248 sec  (  4.8%)
COSX gradient               ....       0.348 sec  (  6.8%)
XC gradient                 ....       1.627 sec  ( 31.6%)

Maximum memory used throughout the entire SCFGRAD-calculation: 130.2 MB

                            ***************************************
                            *     ORCA property calculations      *
                            ***************************************

                                    ---------------------
                                    Active property flags
                                    ---------------------
   (+) Dipole Moment


------------------------------------------------------------------------------
                       ORCA ELECTRIC PROPERTIES CALCULATION
------------------------------------------------------------------------------

Dipole Moment Calculation                       ... on
Quadrupole Moment Calculation                   ... off
Polarizability Calculation                      ... off
GBWName                                         ... ox_es1_D_orca0002.gbw
Electron density                                ... ox_es1_D_orca0002.scfp
The origin for moment calculation is the CENTER OF MASS  = (-0.483921,  0.101019  0.059948)

-------------
DIPOLE MOMENT
-------------
                                X             Y             Z
Electronic contribution:     -0.58437       1.73268       0.07936
Nuclear contribution   :      1.08346      -2.87599      -0.06225
                        -----------------------------------------
Total Dipole Moment    :      0.49910      -1.14331       0.01711
                        -----------------------------------------
Magnitude (a.u.)       :      1.24761
Magnitude (Debye)      :      3.17118



--------------------
Rotational spectrum 
--------------------
 
Rotational constants in cm-1:     1.073677     0.466879     0.376539 
Rotational constants in MHz : 32188.032017 13996.666047 11288.366034 

 Dipole components along the rotational axes: 
x,y,z [a.u.] :     1.125348     0.538517     0.011389 
x,y,z [Debye]:     2.860407     1.368801     0.028948 

 

                        *** CIS RELAXED DENSITY ***

------------------------------------------------------------------------------
                       ORCA ELECTRIC PROPERTIES CALCULATION
------------------------------------------------------------------------------

Dipole Moment Calculation                       ... on
Quadrupole Moment Calculation                   ... off
Polarizability Calculation                      ... off
GBWName                                         ... ox_es1_D_orca0002.gbw
Electron density                                ... ox_es1_D_orca0002.cisp
The origin for moment calculation is the CENTER OF MASS  = (-0.483921,  0.101019  0.059948)

-------------
DIPOLE MOMENT
-------------
                                X             Y             Z
Electronic contribution:     -1.31675       2.03000       0.05952
Nuclear contribution   :      1.08346      -2.87599      -0.06225
                        -----------------------------------------
Total Dipole Moment    :     -0.23329      -0.84599      -0.00273
                        -----------------------------------------
Magnitude (a.u.)       :      0.87757
Magnitude (Debye)      :      2.23060



--------------------
Rotational spectrum 
--------------------
 
Rotational constants in cm-1:     1.073677     0.466879     0.376539 
Rotational constants in MHz : 32188.032017 13996.666047 11288.366034 

 Dipole components along the rotational axes: 
x,y,z [a.u.] :     0.377203     0.792031    -0.023064 
x,y,z [Debye]:     0.958773     2.013183    -0.058625 

 

Timings for individual modules:

Sum of individual times         ...        7.559 sec (=   0.126 min)
GTO integral calculation        ...        0.254 sec (=   0.004 min)   3.4 %
SCF iterations                  ...        1.197 sec (=   0.020 min)  15.8 %
CIS module                      ...        0.788 sec (=   0.013 min)  10.4 %
SCF Gradient evaluation         ...        5.319 sec (=   0.089 min)  70.4 %
                             ****ORCA TERMINATED NORMALLY****
TOTAL RUN TIME: 0 days 0 hours 0 minutes 7 seconds 918 msec
