
                                 *****************
                                 * O   R   C   A *
                                 *****************

                                            #,                                       
                                            ###                                      
                                            ####                                     
                                            #####                                    
                                            ######                                   
                                           ########,                                 
                                     ,,################,,,,,                         
                               ,,#################################,,                 
                          ,,##########################################,,             
                       ,#########################################, ''#####,          
                    ,#############################################,,   '####,        
                  ,##################################################,,,,####,       
                ,###########''''           ''''###############################       
              ,#####''   ,,,,##########,,,,          '''####'''          '####       
            ,##' ,,,,###########################,,,                        '##       
           ' ,,###''''                  '''############,,,                           
         ,,##''                                '''############,,,,        ,,,,,,###''
      ,#''                                            '''#######################'''  
     '                                                          ''''####''''         
             ,#######,   #######,   ,#######,      ##                                
            ,#'     '#,  ##    ##  ,#'     '#,    #''#        ######   ,####,        
            ##       ##  ##   ,#'  ##            #'  '#       #        #'  '#        
            ##       ##  #######   ##           ,######,      #####,   #    #        
            '#,     ,#'  ##    ##  '#,     ,#' ,#      #,         ##   #,  ,#        
             '#######'   ##     ##  '#######'  #'      '#     #####' # '####'        



                  #######################################################
                  #                        -***-                        #
                  #          Department of theory and spectroscopy      #
                  #    Directorship and core code : Frank Neese         #
                  #        Max Planck Institute fuer Kohlenforschung    #
                  #                Kaiser Wilhelm Platz 1               #
                  #                 D-45470 Muelheim/Ruhr               #
                  #                      Germany                        #
                  #                                                     #
                  #                  All rights reserved                #
                  #                        -***-                        #
                  #######################################################


                         Program Version 5.0.2 -  RELEASE  -


 With contributions from (in alphabetic order):
   Daniel Aravena         : Magnetic Suceptibility
   Michael Atanasov       : Ab Initio Ligand Field Theory (pilot matlab implementation)
   Alexander A. Auer      : GIAO ZORA, VPT2 properties, NMR spectrum
   Ute Becker             : Parallelization
   Giovanni Bistoni       : ED, misc. LED, open-shell LED, HFLD
   Martin Brehm           : Molecular dynamics
   Dmytro Bykov           : SCF Hessian
   Vijay G. Chilkuri      : MRCI spin determinant printing, contributions to CSF-ICE
   Dipayan Datta          : RHF DLPNO-CCSD density
   Achintya Kumar Dutta   : EOM-CC, STEOM-CC
   Dmitry Ganyushin       : Spin-Orbit,Spin-Spin,Magnetic field MRCI
   Miquel Garcia          : C-PCM and meta-GGA Hessian, CC/C-PCM, Gaussian charge scheme
   Yang Guo               : DLPNO-NEVPT2, F12-NEVPT2, CIM, IAO-localization
   Andreas Hansen         : Spin unrestricted coupled pair/coupled cluster methods
   Benjamin Helmich-Paris : MC-RPA, TRAH-SCF, COSX integrals
   Lee Huntington         : MR-EOM, pCC
   Robert Izsak           : Overlap fitted RIJCOSX, COSX-SCS-MP3, EOM
   Marcus Kettner         : VPT2
   Christian Kollmar      : KDIIS, OOCD, Brueckner-CCSD(T), CCSD density, CASPT2, CASPT2-K
   Simone Kossmann        : Meta GGA functionals, TD-DFT gradient, OOMP2, MP2 Hessian
   Martin Krupicka        : Initial AUTO-CI
   Lucas Lang             : DCDCAS
   Marvin Lechner         : AUTO-CI (C++ implementation), FIC-MRCC
   Dagmar Lenk            : GEPOL surface, SMD
   Dimitrios Liakos       : Extrapolation schemes; Compound Job, initial MDCI parallelization
   Dimitrios Manganas     : Further ROCIS development; embedding schemes
   Dimitrios Pantazis     : SARC Basis sets
   Anastasios Papadopoulos: AUTO-CI, single reference methods and gradients
   Taras Petrenko         : DFT Hessian,TD-DFT gradient, ASA, ECA, R-Raman, ABS, FL, XAS/XES, NRVS
   Peter Pinski           : DLPNO-MP2, DLPNO-MP2 Gradient
   Christoph Reimann      : Effective Core Potentials
   Marius Retegan         : Local ZFS, SOC
   Christoph Riplinger    : Optimizer, TS searches, QM/MM, DLPNO-CCSD(T), (RO)-DLPNO pert. Triples
   Tobias Risthaus        : Range-separated hybrids, TD-DFT gradient, RPA, STAB
   Michael Roemelt        : Original ROCIS implementation
   Masaaki Saitow         : Open-shell DLPNO-CCSD energy and density
   Barbara Sandhoefer     : DKH picture change effects
   Avijit Sen             : IP-ROCIS
   Kantharuban Sivalingam : CASSCF convergence, NEVPT2, FIC-MRCI
   Bernardo de Souza      : ESD, SOC TD-DFT
   Georgi Stoychev        : AutoAux, RI-MP2 NMR, DLPNO-MP2 response
   Willem Van den Heuvel  : Paramagnetic NMR
   Boris Wezisla          : Elementary symmetry handling
   Frank Wennmohs         : Technical directorship


 We gratefully acknowledge several colleagues who have allowed us to
 interface, adapt or use parts of their codes:
   Stefan Grimme, W. Hujo, H. Kruse, P. Pracht,  : VdW corrections, initial TS optimization,
                  C. Bannwarth, S. Ehlert          DFT functionals, gCP, sTDA/sTD-DF
   Ed Valeev, F. Pavosevic, A. Kumar             : LibInt (2-el integral package), F12 methods
   Garnet Chan, S. Sharma, J. Yang, R. Olivares  : DMRG
   Ulf Ekstrom                                   : XCFun DFT Library
   Mihaly Kallay                                 : mrcc  (arbitrary order and MRCC methods)
   Jiri Pittner, Ondrej Demel                    : Mk-CCSD
   Frank Weinhold                                : gennbo (NPA and NBO analysis)
   Christopher J. Cramer and Donald G. Truhlar   : smd solvation model
   Lars Goerigk                                  : TD-DFT with DH, B97 family of functionals
   V. Asgeirsson, H. Jonsson                     : NEB implementation
   FAccTs GmbH                                   : IRC, NEB, NEB-TS, DLPNO-Multilevel, CI-OPT
                                                   MM, QMMM, 2- and 3-layer-ONIOM, Crystal-QMMM,
                                                   LR-CPCM, SF, NACMEs, symmetry and pop. for TD-DFT,
                                                   nearIR, NL-DFT gradient (VV10), updates on ESD,
                                                   ML-optimized integration grids
   S Lehtola, MJT Oliveira, MAL Marques          : LibXC Library
   Liviu Ungur et al                             : ANISO software


 Your calculation uses the libint2 library for the computation of 2-el integrals
 For citations please refer to: http://libint.valeyev.net

 Your ORCA version has been built with support for libXC version: 5.1.0
 For citations please refer to: https://tddft.org/programs/libxc/

 This ORCA versions uses:
   CBLAS   interface :  Fast vector & matrix operations
   LAPACKE interface :  Fast linear algebra routines
   SCALAPACK package :  Parallel linear algebra routines
   Shared memory     :  Shared parallel matrices
   BLAS/LAPACK       :  OpenBLAS 0.3.15  USE64BITINT DYNAMIC_ARCH NO_AFFINITY SkylakeX SINGLE_THREADED
        Core in use  :  SkylakeX
   Copyright (c) 2011-2014, The OpenBLAS Project


Your calculation utilizes the atom-pairwise dispersion correction
with the Becke-Johnson damping scheme (D3BJ)
Cite in your paper:
S.Grimme, S.Ehrlich, L.Goerigk, J Comput Chem, (2011), 32, 1456–1465 
S.Grimme, J.Antony, S.Ehrlich and H.Krieg, J.Chem.Phys., 132, (2010), 154104 
   

================================================================================

----- Orbital basis set information -----
Your calculation utilizes the basis: def2-TZVP
   F. Weigend and R. Ahlrichs, Phys. Chem. Chem. Phys. 7, 3297 (2005).

----- AuxJ basis set information -----
Your calculation utilizes the auxiliary basis: def2/J
   F. Weigend, Phys. Chem. Chem. Phys. 8, 1057 (2006).

================================================================================
                                        WARNINGS
                       Please study these warnings very carefully!
================================================================================

INFO   : Checking CIS options ...

WARNING: CIS/ROCIS methods need fully converged wavefunctions
  ===> : Setting SCFConvForced true
         You can overwrite this default with %scf ConvForced false 


INFO   : the flag for use of the SHARK integral package has been found!

================================================================================
                                       INPUT FILE
================================================================================
NAME = ox_es1_G_orca0003.inp
|  1> ! engrad PBE0 D3BJ def2-TZVP  
|  2> %pal nprocs 8 end
|  3> %maxcore 3000
|  4> 
|  5> %tddft
|  6>   nroots 1
|  7>   tda true
|  8>   Iroot 1
|  9>   end 
| 10> *xyz 0 1 
| 11> O   -1.4091582924346304 0.8518857517697526 0.03423286125722084
| 12> C   -0.7452902720923965 -0.3309849258931881 0.0690573917507456
| 13> C   0.7639462335483627 -0.44364212374770756 0.0016178479930416283
| 14> H   -1.23126123545359 -0.6743376932794655 0.9364313795724697
| 15> H   -1.2736749396722529 -0.7146553441786225 -0.8980403578399285
| 16> H   1.2501776632069859 -0.6572838602521291 -0.8815082985981798
| 17> H   1.277358856005567 -0.595578326247965 1.0017857102602246
| 18> *
| 19> 
| 20>                          ****END OF INPUT****
================================================================================

                     *******************************
                     * Energy+Gradient Calculation *
                     *******************************

---------------------------------
CARTESIAN COORDINATES (ANGSTROEM)
---------------------------------
  O     -1.409158    0.851886    0.034233
  C     -0.745290   -0.330985    0.069057
  C      0.763946   -0.443642    0.001618
  H     -1.231261   -0.674338    0.936431
  H     -1.273675   -0.714655   -0.898040
  H      1.250178   -0.657284   -0.881508
  H      1.277359   -0.595578    1.001786

----------------------------
CARTESIAN COORDINATES (A.U.)
----------------------------
  NO LB      ZA    FRAG     MASS         X           Y           Z
   0 O     8.0000    0    15.999   -2.662923    1.609831    0.064691
   1 C     6.0000    0    12.011   -1.408395   -0.625471    0.130500
   2 C     6.0000    0    12.011    1.443649   -0.838362    0.003057
   3 H     1.0000    0     1.008   -2.326747   -1.274314    1.769599
   4 H     1.0000    0     1.008   -2.406897   -1.350503   -1.697050
   5 H     1.0000    0     1.008    2.362493   -1.242086   -1.665809
   6 H     1.0000    0     1.008    2.413858   -1.125480    1.893101

--------------------------------
INTERNAL COORDINATES (ANGSTROEM)
--------------------------------
 O      0   0   0     0.000000000000     0.00000000     0.00000000
 C      1   0   0     1.356877494998     0.00000000     0.00000000
 C      2   1   0     1.514937149274   123.44290403     0.00000000
 H      2   1   3     1.051853856223    94.57037377   128.39684271
 H      2   1   3     1.166906767512    92.51127717   240.23067814
 H      3   2   1     1.030521996639   121.57543701   261.83118317
 H      3   2   1     1.134465902194   114.93367202    99.77533230

---------------------------
INTERNAL COORDINATES (A.U.)
---------------------------
 O      0   0   0     0.000000000000     0.00000000     0.00000000
 C      1   0   0     2.564126862827     0.00000000     0.00000000
 C      2   1   0     2.862816322231   123.44290403     0.00000000
 H      2   1   3     1.987715721171    94.57037377   128.39684271
 H      2   1   3     2.205134214416    92.51127717   240.23067814
 H      3   2   1     1.947404348630   121.57543701   261.83118317
 H      3   2   1     2.143829863418   114.93367202    99.77533230

---------------------
BASIS SET INFORMATION
---------------------
There are 3 groups of distinct atoms

 Group   1 Type O   : 11s6p2d1f contracted to 5s3p2d1f pattern {62111/411/11/1}
 Group   2 Type C   : 11s6p2d1f contracted to 5s3p2d1f pattern {62111/411/11/1}
 Group   3 Type H   : 5s1p contracted to 3s1p pattern {311/1}

Atom   0O    basis set group =>   1
Atom   1C    basis set group =>   2
Atom   2C    basis set group =>   2
Atom   3H    basis set group =>   3
Atom   4H    basis set group =>   3
Atom   5H    basis set group =>   3
Atom   6H    basis set group =>   3
---------------------------------
AUXILIARY/J BASIS SET INFORMATION
---------------------------------
There are 3 groups of distinct atoms

 Group   1 Type O   : 12s5p4d2f1g contracted to 6s4p3d1f1g pattern {711111/2111/211/2/1}
 Group   2 Type C   : 12s5p4d2f1g contracted to 6s4p3d1f1g pattern {711111/2111/211/2/1}
 Group   3 Type H   : 5s2p1d contracted to 3s1p1d pattern {311/2/1}

Atom   0O    basis set group =>   1
Atom   1C    basis set group =>   2
Atom   2C    basis set group =>   2
Atom   3H    basis set group =>   3
Atom   4H    basis set group =>   3
Atom   5H    basis set group =>   3
Atom   6H    basis set group =>   3

Checking for AutoStart:
The File: ox_es1_G_orca0003.gbw exists
Trying to determine its content:
     ... Fine, the file contains calculation information
     ... Fine, the calculation information was read
     ... Fine, the file contains a basis set
     ... Fine, the basis set was read
     ... Fine, the file contains a geometry
     ... Fine, the geometry was read
     ... Fine, the file contains a set of orbitals
     ... Fine, the orbitals can be read
     => possible old guess file was deleted
     => GBW file was renamed to GES file
     => GES file is set as startup file
     => Guess is set to MORead
     ... now leaving AutoStart



           ************************************************************
           *        Program running with 8 parallel MPI-processes     *
           *              working on a common directory               *
           ************************************************************
------------------------------------------------------------------------------
                           ORCA GTO INTEGRAL CALCULATION
                           -- RI-GTO INTEGRALS CHOSEN --
------------------------------------------------------------------------------
------------------------------------------------------------------------------
                   ___                                                        
                  /   \      - P O W E R E D   B Y -                         
                 /     \                                                     
                 |  |  |   _    _      __       _____    __    __             
                 |  |  |  | |  | |    /  \     |  _  \  |  |  /  |          
                  \  \/   | |  | |   /    \    | | | |  |  | /  /          
                 / \  \   | |__| |  /  /\  \   | |_| |  |  |/  /          
                |  |  |   |  __  | /  /__\  \  |    /   |      \           
                |  |  |   | |  | | |   __   |  |    \   |  |\   \          
                \     /   | |  | | |  |  |  |  | |\  \  |  | \   \       
                 \___/    |_|  |_| |__|  |__|  |_| \__\ |__|  \__/        
                                                                              
                      - O R C A' S   B I G   F R I E N D -                    
                                      &                                       
                       - I N T E G R A L  F E E D E R -                       
                                                                              
 v1 FN, 2020, v2 2021                                                         
------------------------------------------------------------------------------


Reading SHARK input file ox_es1_G_orca0003.SHARKINP.tmp ... ok
----------------------
SHARK INTEGRAL PACKAGE
----------------------

Number of atoms                             ...      7
Number of basis functions                   ...    117
Number of shells                            ...     49
Maximum angular momentum                    ...      3
Integral batch strategy                     ... SHARK/LIBINT Hybrid
RI-J (if used) integral strategy            ... SPLIT-RIJ (Revised 2003 algorithm where possible)
Printlevel                                  ...      1
Contraction scheme used                     ... SEGMENTED contraction
Coulomb Range Separation                    ... NOT USED
Exchange Range Separation                   ... NOT USED
Finite Nucleus Model                        ... NOT USED
Auxiliary Coulomb fitting basis             ... AVAILABLE
   # of basis functions in Aux-J            ...    191
   # of shells in Aux-J                     ...     65
   Maximum angular momentum in Aux-J        ...      4
Auxiliary J/K fitting basis                 ... NOT available
Auxiliary Correlation fitting basis         ... NOT available
Auxiliary 'external' fitting basis          ... NOT available
Integral threshold                          ...     2.500000e-11
Primitive cut-off                           ...     2.500000e-12
Primitive pair pre-selection threshold      ...     2.500000e-12

Calculating pre-screening integrals         ... done (  0.0 sec) Dimension = 49
Organizing shell pair data                  ... done (  0.0 sec)
Shell pair information
Total number of shell pairs                 ...      1225
Shell pairs after pre-screening             ...      1211
Total number of primitive shell pairs       ...      3648
Primitive shell pairs kept                  ...      3060
          la=0 lb=0:    368 shell pairs
          la=1 lb=0:    348 shell pairs
          la=1 lb=1:     91 shell pairs
          la=2 lb=0:    161 shell pairs
          la=2 lb=1:     78 shell pairs
          la=2 lb=2:     21 shell pairs
          la=3 lb=0:     81 shell pairs
          la=3 lb=1:     39 shell pairs
          la=3 lb=2:     18 shell pairs
          la=3 lb=3:      6 shell pairs

Calculating one electron integrals          ... done (  0.0 sec)
Calculating RI/J V-Matrix + Cholesky decomp.... done (  0.0 sec)
Calculating Nuclear repulsion               ... done (  0.0 sec) ENN=     67.306095413405 Eh

SHARK setup successfully completed in   0.1 seconds

Maximum memory used throughout the entire GTOINT-calculation: 14.9 MB


           ************************************************************
           *        Program running with 8 parallel MPI-processes     *
           *              working on a common directory               *
           ************************************************************
-------------------------------------------------------------------------------
                                 ORCA SCF
-------------------------------------------------------------------------------

------------
SCF SETTINGS
------------
Hamiltonian:
 Density Functional     Method          .... DFT(GTOs)
 Exchange Functional    Exchange        .... PBE
   PBE kappa parameter   XKappa         ....  0.804000
   PBE mue parameter    XMuePBE         ....  0.219520
 Correlation Functional Correlation     .... PBE
   PBE beta parameter  CBetaPBE         ....  0.066725
 LDA part of GGA corr.  LDAOpt          .... PW91-LDA
 Gradients option       PostSCFGGA      .... off
 Hybrid DFT is turned on
   Fraction HF Exchange ScalHFX         ....  0.250000
   Scaling of DF-GGA-X  ScalDFX         ....  0.750000
   Scaling of DF-GGA-C  ScalDFC         ....  1.000000
   Scaling of DF-LDA-C  ScalLDAC        ....  1.000000
   Perturbative correction              ....  0.000000
   Density functional embedding theory  .... OFF
   NL short-range parameter             ....  6.900000
 RI-approximation to the Coulomb term is turned on
   Number of AuxJ basis functions       .... 191
   RIJ-COSX (HFX calculated with COS-X)).... on


General Settings:
 Integral files         IntName         .... ox_es1_G_orca0003
 Hartree-Fock type      HFTyp           .... RHF
 Total Charge           Charge          ....    0
 Multiplicity           Mult            ....    1
 Number of Electrons    NEL             ....   24
 Basis Dimension        Dim             ....  117
 Nuclear Repulsion      ENuc            ....     67.3060954134 Eh

Convergence Acceleration:
 DIIS                   CNVDIIS         .... on
   Start iteration      DIISMaxIt       ....    12
   Startup error        DIISStart       ....  0.200000
   # of expansion vecs  DIISMaxEq       ....     5
   Bias factor          DIISBfac        ....   1.050
   Max. coefficient     DIISMaxC        ....  10.000
 Trust-Rad. Augm. Hess. CNVTRAH         .... auto
   Auto Start mean grad. ratio tolernc. ....  1.125000
   Auto Start start iteration           ....     1
   Auto Start num. interpolation iter.  ....    10
   Max. Number of Micro iterations      ....    16
   Max. Number of Macro iterations      .... Maxiter - #DIIS iter
   Number of Davidson start vectors     ....     2
   Converg. threshold I  (grad. norm)   ....   1.000e-05
   Converg. threshold II (energy diff.) ....   1.000e-08
   Grad. Scal. Fac. for Micro threshold ....   0.100
   Minimum threshold for Micro iter.    ....   0.010
   NR start threshold (gradient norm)   ....   0.001
   Initial trust radius                 ....   0.400
   Minimum AH scaling param. (alpha)    ....   1.000
   Maximum AH scaling param. (alpha)    .... 1000.000
   Orbital update algorithm             .... Taylor
   White noise on init. David. guess    .... on
   Maximum white noise                  ....   0.010
   Quad. conv. algorithm                .... NR
 SOSCF                  CNVSOSCF        .... on
   Start iteration      SOSCFMaxIt      ....   150
   Startup grad/error   SOSCFStart      ....  0.003300
 Level Shifting         CNVShift        .... on
   Level shift para.    LevelShift      ....    0.2500
   Turn off err/grad.   ShiftErr        ....    0.0010
 Zerner damping         CNVZerner       .... off
 Static damping         CNVDamp         .... on
   Fraction old density DampFac         ....    0.7000
   Max. Damping (<1)    DampMax         ....    0.9800
   Min. Damping (>=0)   DampMin         ....    0.0000
   Turn off err/grad.   DampErr         ....    0.1000
 Fernandez-Rico         CNVRico         .... off

SCF Procedure:
 Maximum # iterations   MaxIter         ....   125
 SCF integral mode      SCFMode         .... Direct
   Integral package                     .... SHARK and LIBINT hybrid scheme
 Reset frequency        DirectResetFreq ....    20
 Integral Threshold     Thresh          ....  2.500e-11 Eh
 Primitive CutOff       TCut            ....  2.500e-12 Eh

Convergence Tolerance:
 Convergence Check Mode ConvCheckMode   .... Total+1el-Energy
 Convergence forced     ConvForced      .... 1
 Energy Change          TolE            ....  1.000e-08 Eh
 1-El. energy change                    ....  1.000e-05 Eh
 Orbital Gradient       TolG            ....  1.000e-05
 Orbital Rotation angle TolX            ....  1.000e-05
 DIIS Error             TolErr          ....  5.000e-07


Diagonalization of the overlap matrix:
Smallest eigenvalue                        ... 6.782e-04
Time for diagonalization                   ...    0.001 sec
Threshold for overlap eigenvalues          ... 1.000e-08
Number of eigenvalues below threshold      ... 0
Time for construction of square roots      ...    0.001 sec
Total time needed                          ...    0.003 sec

---------------------
INITIAL GUESS: MOREAD
---------------------
Guess MOs are being read from file: ox_es1_G_orca0003.ges
Input Geometry matches current geometry (good)
Input basis set matches current basis set (good)
MOs were renormalized
MOs were reorthogonalized (Cholesky)
                      ------------------
                      INITIAL GUESS DONE (   0.0 sec)
                      ------------------
-------------------
DFT GRID GENERATION
-------------------

General Integration Accuracy     IntAcc      ... 4.388
Radial Grid Type                 RadialGrid  ... OptM3 with GC (2021)
Angular Grid (max. ang.)         AngularGrid ... 4 (Lebedev-302)
Angular grid pruning method      GridPruning ... 4 (adaptive)
Weight generation scheme         WeightScheme... Becke
Basis function cutoff            BFCut       ... 1.0000e-11
Integration weight cutoff        WCut        ... 1.0000e-14
Angular grids for H and He will be reduced by one unit
Partially contracted basis set               ... off
Rotationally invariant grid construction     ... off

Total number of grid points                  ...    31364
Total number of batches                      ...      495
Average number of points per batch           ...       63
Average number of grid points per atom       ...     4481
Time for grid setup =    0.119 sec

--------------------
COSX GRID GENERATION
--------------------

GRIDX 1
-------
General Integration Accuracy     IntAcc      ... 3.816
Radial Grid Type                 RadialGrid  ... OptM3 with GC (2021)
Angular Grid (max. ang.)         AngularGrid ... 1 (Lebedev-50)
Angular grid pruning method      GridPruning ... 4 (adaptive)
Weight generation scheme         WeightScheme... Becke
Basis function cutoff            BFCut       ... 1.0000e-11
Integration weight cutoff        WCut        ... 1.0000e-14
Angular grids for H and He will be reduced by one unit
Partially contracted basis set               ... on
Rotationally invariant grid construction     ... off

Total number of grid points                  ...     4045
Total number of batches                      ...       68
Average number of points per batch           ...       59
Average number of grid points per atom       ...      578
UseSFitting                                  ... on

GRIDX 2
-------
General Integration Accuracy     IntAcc      ... 4.020
Radial Grid Type                 RadialGrid  ... OptM3 with GC (2021)
Angular Grid (max. ang.)         AngularGrid ... 2 (Lebedev-110)
Angular grid pruning method      GridPruning ... 4 (adaptive)
Weight generation scheme         WeightScheme... Becke
Basis function cutoff            BFCut       ... 1.0000e-11
Integration weight cutoff        WCut        ... 1.0000e-14
Angular grids for H and He will be reduced by one unit
Partially contracted basis set               ... on
Rotationally invariant grid construction     ... off

Total number of grid points                  ...     8736
Total number of batches                      ...      140
Average number of points per batch           ...       62
Average number of grid points per atom       ...     1248
UseSFitting                                  ... on

GRIDX 3
-------
General Integration Accuracy     IntAcc      ... 4.338
Radial Grid Type                 RadialGrid  ... OptM3 with GC (2021)
Angular Grid (max. ang.)         AngularGrid ... 3 (Lebedev-194)
Angular grid pruning method      GridPruning ... 4 (adaptive)
Weight generation scheme         WeightScheme... Becke
Basis function cutoff            BFCut       ... 1.0000e-11
Integration weight cutoff        WCut        ... 1.0000e-14
Angular grids for H and He will be reduced by one unit
Partially contracted basis set               ... on
Rotationally invariant grid construction     ... off

Total number of grid points                  ...    19270
Total number of batches                      ...      304
Average number of points per batch           ...       63
Average number of grid points per atom       ...     2753
UseSFitting                                  ... on

Time for X-Grid setup             =    0.073 sec

--------------
SCF ITERATIONS
--------------
ITER       Energy         Delta-E        Max-DP      RMS-DP      [F,P]     Damp
               ***  Starting incremental Fock matrix formation  ***
                      *** Initiating the SOSCF procedure ***
                      *** Re-Reading the Fockian *** 
                      *** Removing any level shift *** 
ITER      Energy       Delta-E        Grad      Rot      Max-DP    RMS-DP
  0   -153.49237172 -153.4923717188  0.000002  0.000002  0.000004  0.000000
               *** Restarting incremental Fock matrix formation ***
                  ***Gradient check signals convergence***
              ***Rediagonalizing the Fockian in SOSCF/NRSCF***

               *****************************************************
               *                     SUCCESS                       *
               *           SCF CONVERGED AFTER   1 CYCLES          *
               *****************************************************

Old exchange energy                            =     -4.949079617 Eh
New exchange energy                            =     -4.949075728 Eh
Exchange energy change after final integration =      0.000003889 Eh
Total energy after final integration           =   -153.492367830 Eh
Final COS-X integration done in                =     0.255 sec

----------------
TOTAL SCF ENERGY
----------------

Total Energy       :         -153.49236783 Eh           -4176.73967 eV

Components:
Nuclear Repulsion  :           67.30609541 Eh            1831.49197 eV
Electronic Energy  :         -220.79846324 Eh           -6008.23164 eV
One Electron Energy:         -341.45765145 Eh           -9291.53507 eV
Two Electron Energy:          120.65918821 Eh            3283.30343 eV
Max COSX asymmetry :            0.00000210 Eh               0.00006 eV

Virial components:
Potential Energy   :         -306.37517467 Eh           -8336.89234 eV
Kinetic Energy     :          152.88280684 Eh            4160.15267 eV
Virial Ratio       :            2.00398711


DFT components:
N(Alpha)           :       12.000000384295 electrons
N(Beta)            :       12.000000384295 electrons
N(Total)           :       24.000000768590 electrons
E(X)               :      -14.884853109846 Eh       
E(C)               :       -0.771454226356 Eh       
E(XC)              :      -15.656307336202 Eh       
DFET-embed. en.    :        0.000000000000 Eh       

---------------
SCF CONVERGENCE
---------------

  Last Energy change         ...   -2.4073e-11  Tolerance :   1.0000e-08
  Last MAX-Density change    ...    9.9920e-16  Tolerance :   1.0000e-07
  Last RMS-Density change    ...    2.6868e-17  Tolerance :   5.0000e-09
  Last Orbital Gradient      ...    1.5282e-06  Tolerance :   1.0000e-05
  Last Orbital Rotation      ...    2.6641e-05  Tolerance :   1.0000e-05

             **** THE GBW FILE WAS UPDATED (ox_es1_G_orca0003.gbw) ****
             **** DENSITY ox_es1_G_orca0003.scfp WAS UPDATED ****
             **** ENERGY FILE WAS UPDATED (ox_es1_G_orca0003.en.tmp) ****
             **** THE GBW FILE WAS UPDATED (ox_es1_G_orca0003.gbw) ****
             **** DENSITY ox_es1_G_orca0003.scfp WAS UPDATED ****
----------------
ORBITAL ENERGIES
----------------

  NO   OCC          E(Eh)            E(eV) 
   0   2.0000     -19.173443      -521.7359 
   1   2.0000     -10.304766      -280.4069 
   2   2.0000     -10.286059      -279.8979 
   3   2.0000      -1.002243       -27.2724 
   4   2.0000      -0.773399       -21.0453 
   5   2.0000      -0.619795       -16.8655 
   6   2.0000      -0.522833       -14.2270 
   7   2.0000      -0.476048       -12.9539 
   8   2.0000      -0.438510       -11.9325 
   9   2.0000      -0.403677       -10.9846 
  10   2.0000      -0.252226        -6.8634 
  11   2.0000      -0.225767        -6.1434 
  12   0.0000      -0.168402        -4.5825 
  13   0.0000       0.046158         1.2560 
  14   0.0000       0.071199         1.9374 
  15   0.0000       0.091592         2.4923 
  16   0.0000       0.143320         3.8999 
  17   0.0000       0.152720         4.1557 
  18   0.0000       0.175633         4.7792 
  19   0.0000       0.218968         5.9584 
  20   0.0000       0.235413         6.4059 
  21   0.0000       0.240352         6.5403 
  22   0.0000       0.243999         6.6396 
  23   0.0000       0.340658         9.2698 
  24   0.0000       0.370976        10.0948 
  25   0.0000       0.394349        10.7308 
  26   0.0000       0.406503        11.0615 
  27   0.0000       0.414796        11.2872 
  28   0.0000       0.437677        11.9098 
  29   0.0000       0.456174        12.4131 
  30   0.0000       0.517207        14.0739 
  31   0.0000       0.530991        14.4490 
  32   0.0000       0.541168        14.7259 
  33   0.0000       0.605685        16.4815 
  34   0.0000       0.627716        17.0810 
  35   0.0000       0.727411        19.7939 
  36   0.0000       0.795780        21.6543 
  37   0.0000       0.866847        23.5881 
  38   0.0000       0.897326        24.4175 
  39   0.0000       0.916881        24.9496 
  40   0.0000       0.921295        25.0697 
  41   0.0000       0.999723        27.2039 
  42   0.0000       1.045219        28.4419 
  43   0.0000       1.116177        30.3727 
  44   0.0000       1.208778        32.8925 
  45   0.0000       1.343671        36.5632 
  46   0.0000       1.428184        38.8629 
  47   0.0000       1.436720        39.0951 
  48   0.0000       1.501426        40.8559 
  49   0.0000       1.526215        41.5304 
  50   0.0000       1.565746        42.6061 
  51   0.0000       1.590551        43.2811 
  52   0.0000       1.614646        43.9367 
  53   0.0000       1.639119        44.6027 
  54   0.0000       1.732627        47.1472 
  55   0.0000       1.760933        47.9174 
  56   0.0000       1.799127        48.9567 
  57   0.0000       1.850631        50.3582 
  58   0.0000       1.886466        51.3333 
  59   0.0000       1.965907        53.4950 
  60   0.0000       2.005409        54.5700 
  61   0.0000       2.031701        55.2854 
  62   0.0000       2.070123        56.3309 
  63   0.0000       2.226275        60.5800 
  64   0.0000       2.303860        62.6912 
  65   0.0000       2.328494        63.3615 
  66   0.0000       2.415145        65.7194 
  67   0.0000       2.469453        67.1972 
  68   0.0000       2.502694        68.1018 
  69   0.0000       2.540012        69.1172 
  70   0.0000       2.561920        69.7134 
  71   0.0000       2.599369        70.7324 
  72   0.0000       2.626159        71.4614 
  73   0.0000       2.665857        72.5417 
  74   0.0000       2.717966        73.9596 
  75   0.0000       2.824879        76.8689 
  76   0.0000       2.859222        77.8034 
  77   0.0000       2.993400        81.4546 
  78   0.0000       3.006067        81.7993 
  79   0.0000       3.021270        82.2129 
  80   0.0000       3.054334        83.1127 
  81   0.0000       3.073273        83.6280 
  82   0.0000       3.094888        84.2162 
  83   0.0000       3.149260        85.6957 
  84   0.0000       3.181163        86.5639 
  85   0.0000       3.265804        88.8670 
  86   0.0000       3.288164        89.4755 
  87   0.0000       3.386155        92.1420 
  88   0.0000       3.409899        92.7881 
  89   0.0000       3.453772        93.9819 
  90   0.0000       3.492040        95.0233 
  91   0.0000       3.663494        99.6887 
  92   0.0000       3.714145       101.0670 
  93   0.0000       3.814377       103.7945 
  94   0.0000       3.980884       108.3253 
  95   0.0000       4.018069       109.3372 
  96   0.0000       4.067312       110.6772 
  97   0.0000       4.256473       115.8245 
  98   0.0000       4.336456       118.0010 
  99   0.0000       4.509176       122.7009 
 100   0.0000       4.565742       124.2401 
 101   0.0000       4.716965       128.3551 
 102   0.0000       5.208072       141.7189 
 103   0.0000       5.220747       142.0637 
 104   0.0000       5.437056       147.9498 
 105   0.0000       5.481781       149.1668 
 106   0.0000       5.892792       160.3510 
 107   0.0000       5.972901       162.5309 
 108   0.0000       6.043828       164.4609 
 109   0.0000       6.404201       174.2672 
 110   0.0000       6.416842       174.6112 
 111   0.0000       6.865883       186.8302 
 112   0.0000       6.875749       187.0986 
 113   0.0000       6.974535       189.7867 
 114   0.0000      22.047058       599.9309 
 115   0.0000      22.536817       613.2580 
 116   0.0000      43.823053      1192.4859 

                    ********************************
                    * MULLIKEN POPULATION ANALYSIS *
                    ********************************

-----------------------
MULLIKEN ATOMIC CHARGES
-----------------------
   0 O :   -0.399919
   1 C :   -0.103664
   2 C :   -0.134020
   3 H :    0.107798
   4 H :    0.200818
   5 H :    0.171177
   6 H :    0.157810
Sum of atomic charges:   -0.0000000

--------------------------------
MULLIKEN REDUCED ORBITAL CHARGES
--------------------------------
  0 O s       :     3.884087  s :     3.884087
      pz      :     1.396682  p :     4.487632
      px      :     1.690798
      py      :     1.400152
      dz2     :     0.003260  d :     0.026763
      dxz     :     0.001218
      dyz     :     0.006419
      dx2y2   :     0.006725
      dxy     :     0.009141
      f0      :     0.000122  f :     0.001437
      f+1     :     0.000065
      f-1     :     0.000141
      f+2     :     0.000117
      f-2     :     0.000161
      f+3     :     0.000481
      f-3     :     0.000349
  1 C s       :     3.215713  s :     3.215713
      pz      :     1.008199  p :     2.714971
      px      :     0.879395
      py      :     0.827378
      dz2     :     0.013706  d :     0.161283
      dxz     :     0.024859
      dyz     :     0.038926
      dx2y2   :     0.044759
      dxy     :     0.039032
      f0      :     0.001260  f :     0.011697
      f+1     :     0.001260
      f-1     :     0.000572
      f+2     :     0.000985
      f-2     :     0.001215
      f+3     :     0.001962
      f-3     :     0.004443
  2 C s       :     3.309098  s :     3.309098
      pz      :     1.058053  p :     2.781093
      px      :     0.976379
      py      :     0.746662
      dz2     :     0.005891  d :     0.040295
      dxz     :     0.020255
      dyz     :     0.001988
      dx2y2   :     0.005128
      dxy     :     0.007034
      f0      :     0.000478  f :     0.003533
      f+1     :     0.001011
      f-1     :     0.000152
      f+2     :     0.000519
      f-2     :     0.000052
      f+3     :     0.000596
      f-3     :     0.000725
  3 H s       :     0.868320  s :     0.868320
      pz      :     0.010454  p :     0.023881
      px      :     0.006860
      py      :     0.006568
  4 H s       :     0.777601  s :     0.777601
      pz      :     0.009274  p :     0.021582
      px      :     0.006352
      py      :     0.005956
  5 H s       :     0.804377  s :     0.804377
      pz      :     0.011862  p :     0.024446
      px      :     0.007050
      py      :     0.005534
  6 H s       :     0.821079  s :     0.821079
      pz      :     0.011513  p :     0.021111
      px      :     0.005594
      py      :     0.004004


                     *******************************
                     * LOEWDIN POPULATION ANALYSIS *
                     *******************************

----------------------
LOEWDIN ATOMIC CHARGES
----------------------
   0 O :   -0.073456
   1 C :   -0.484195
   2 C :   -0.015390
   3 H :    0.109887
   4 H :    0.220036
   5 H :    0.104886
   6 H :    0.138231

-------------------------------
LOEWDIN REDUCED ORBITAL CHARGES
-------------------------------
  0 O s       :     3.524888  s :     3.524888
      pz      :     1.346370  p :     4.480066
      px      :     1.646162
      py      :     1.487534
      dz2     :     0.007112  d :     0.063993
      dxz     :     0.003092
      dyz     :     0.016481
      dx2y2   :     0.018425
      dxy     :     0.018883
      f0      :     0.000578  f :     0.004509
      f+1     :     0.000205
      f-1     :     0.000465
      f+2     :     0.000372
      f-2     :     0.000579
      f+3     :     0.001164
      f-3     :     0.001146
  1 C s       :     2.822826  s :     2.822826
      pz      :     1.009393  p :     2.960296
      px      :     1.015821
      py      :     0.935082
      dz2     :     0.076712  d :     0.621073
      dxz     :     0.089642
      dyz     :     0.108776
      dx2y2   :     0.189517
      dxy     :     0.156426
      f0      :     0.008687  f :     0.080001
      f+1     :     0.007783
      f-1     :     0.006219
      f+2     :     0.005846
      f-2     :     0.010342
      f+3     :     0.015971
      f-3     :     0.025152
  2 C s       :     2.950743  s :     2.950743
      pz      :     1.079426  p :     2.858409
      px      :     1.085726
      py      :     0.693257
      dz2     :     0.030138  d :     0.187509
      dxz     :     0.091824
      dyz     :     0.005167
      dx2y2   :     0.033177
      dxy     :     0.027204
      f0      :     0.003335  f :     0.018729
      f+1     :     0.003334
      f-1     :     0.000703
      f+2     :     0.003242
      f-2     :     0.000741
      f+3     :     0.003749
      f-3     :     0.003624
  3 H s       :     0.821162  s :     0.821162
      pz      :     0.031558  p :     0.068952
      px      :     0.018577
      py      :     0.018817
  4 H s       :     0.726974  s :     0.726974
      pz      :     0.024922  p :     0.052989
      px      :     0.014299
      py      :     0.013769
  5 H s       :     0.816366  s :     0.816366
      pz      :     0.038756  p :     0.078748
      px      :     0.022313
      py      :     0.017679
  6 H s       :     0.801800  s :     0.801800
      pz      :     0.033370  p :     0.059969
      px      :     0.015725
      py      :     0.010874


                      *****************************
                      * MAYER POPULATION ANALYSIS *
                      *****************************

  NA   - Mulliken gross atomic population
  ZA   - Total nuclear charge
  QA   - Mulliken gross atomic charge
  VA   - Mayer's total valence
  BVA  - Mayer's bonded valence
  FA   - Mayer's free valence

  ATOM       NA         ZA         QA         VA         BVA        FA
  0 O      8.3999     8.0000    -0.3999     1.8556     1.8556    -0.0000
  1 C      6.1037     6.0000    -0.1037     4.2083     4.2083    -0.0000
  2 C      6.1340     6.0000    -0.1340     3.6570     3.6570    -0.0000
  3 H      0.8922     1.0000     0.1078     0.9535     0.9535    -0.0000
  4 H      0.7992     1.0000     0.2008     0.9433     0.9433     0.0000
  5 H      0.8288     1.0000     0.1712     0.9595     0.9595     0.0000
  6 H      0.8422     1.0000     0.1578     0.9641     0.9641    -0.0000

  Mayer bond orders larger than 0.100000
B(  0-O ,  1-C ) :   1.2899 B(  0-O ,  2-C ) :   0.5620 B(  1-C ,  2-C ) :   1.1012 
B(  1-C ,  3-H ) :   0.9824 B(  1-C ,  4-H ) :   0.8254 B(  2-C ,  4-H ) :   0.1105 
B(  2-C ,  5-H ) :   0.9399 B(  2-C ,  6-H ) :   0.9454 

-------
TIMINGS
-------

Total SCF time: 0 days 0 hours 0 min 0 sec 

Total time                  ....       0.956 sec
Sum of individual times     ....       0.890 sec  ( 93.1%)

Fock matrix formation       ....       0.687 sec  ( 71.8%)
  Split-RI-J                ....       0.111 sec  ( 16.2% of F)
  Chain of spheres X        ....       0.511 sec  ( 74.5% of F)
  XC integration            ....       0.062 sec  (  9.0% of F)
    Basis function eval.    ....       0.017 sec  ( 28.0% of XC)
    Density eval.           ....       0.013 sec  ( 21.3% of XC)
    XC-Functional eval.     ....       0.004 sec  (  6.1% of XC)
    XC-Potential eval.      ....       0.020 sec  ( 33.0% of XC)
Diagonalization             ....       0.002 sec  (  0.3%)
Density matrix formation    ....       0.000 sec  (  0.0%)
Population analysis         ....       0.002 sec  (  0.2%)
Initial guess               ....       0.004 sec  (  0.4%)
Orbital Transformation      ....       0.000 sec  (  0.0%)
Orbital Orthonormalization  ....       0.002 sec  (  0.2%)
DIIS solution               ....       0.001 sec  (  0.1%)
SOSCF solution              ....       0.002 sec  (  0.2%)
Grid generation             ....       0.191 sec  ( 20.0%)

Maximum memory used throughout the entire SCF-calculation: 61.1 MB


           ************************************************************
           *        Program running with 8 parallel MPI-processes     *
           *              working on a common directory               *
           ************************************************************
------------------------------------------------------------------------------
                        ORCA TD-DFT/TDA CALCULATION
------------------------------------------------------------------------------

Input orbitals are from        ... ox_es1_G_orca0003.gbw
CI-vector output               ... ox_es1_G_orca0003.cis
Tamm-Dancoff approximation     ... operative
CIS-Integral strategy          ... AO-integrals
Integral handling              ... AO integral Direct
Max. core memory used          ... 3000 MB
Reference state                ... RHF
Generation of triplets         ... off
Follow IRoot                   ... off
Number of operators            ... 1
Orbital ranges used for CIS calculation:
 Operator 0:  Orbitals   3... 11  to  12...116
XAS localization array:
 Operator 0:  Orbitals  -1... -1

-------------------
XC-INTEGRATION GRID
-------------------

General Integration Accuracy     IntAcc      ... 3.467
Radial Grid Type                 RadialGrid  ... OptM3 with GC (2021)
Angular Grid (max. ang.)         AngularGrid ... 1 (Lebedev-50)
Angular grid pruning method      GridPruning ... 4 (adaptive)
Weight generation scheme         WeightScheme... Becke
Basis function cutoff            BFCut       ... 1.0000e-11
Integration weight cutoff        WCut        ... 1.0000e-14
Angular grids for H and He will be reduced by one unit
Partially contracted basis set               ... off
Rotationally invariant grid construction     ... off

Total number of grid points                  ...     4556
Total number of batches                      ...       74
Average number of points per batch           ...       61
Average number of grid points per atom       ...      651

---------------------
COSX-INTEGRATION GRID
---------------------

General Integration Accuracy     IntAcc      ... 3.067
Radial Grid Type                 RadialGrid  ... OptM3 with GC (2021)
Angular Grid (max. ang.)         AngularGrid ... 1 (Lebedev-50)
Angular grid pruning method      GridPruning ... 4 (adaptive)
Weight generation scheme         WeightScheme... Becke
Basis function cutoff            BFCut       ... 1.0000e-11
Integration weight cutoff        WCut        ... 1.0000e-14
Angular grids for H and He will be reduced by one unit
Partially contracted basis set               ... on
Rotationally invariant grid construction     ... off

Total number of grid points                  ...     2091
Total number of batches                      ...       36
Average number of points per batch           ...       58
Average number of grid points per atom       ...      299

---------------
TD-DFT XC SETUP
---------------

DFT calculation                         ... on
Name of the grid file                   ... ox_es1_G_orca0003.grid_cis.tmp
Exchange functional (TD-DFT)            ... PBE
   PBE kappa parameter  XKappa (TD-DFT) ...  0.804000
   PBE mue parameter   XMuePBE (TD-DFT) ...  0.219520
Correlation functional (TD-DFT)         ... PBE
   PBE beta parameter CBetaPBE (TD-DFT) ...  0.066725
 LDA part of GGA corr.  LDAOpt (TD-DFT) ... PW91-LDA
Hybrid DFT                              ... on
   Exchange mixing (TD-DFT)             ...  0.250
   GGA exch. scaling (TD-DFT)           ...  0.750
   GGA corr. scaling (TD-DFT)           ...  1.000

Building densities             ... done
Calculating rho(r) on the grid ... done
Building xc-kernel on the grid ... done
                    *** TD-DFT CALCULATION INITIALIZED ***

------------------------
DAVIDSON-DIAGONALIZATION
------------------------

Dimension of the eigenvalue problem            ...    945
Number of roots to be determined               ...      1
Maximum size of the expansion space            ...     10
Maximum number of iterations                   ...    100
Convergence tolerance for the residual         ...    2.500e-07
Convergence tolerance for the energies         ...    2.500e-07
Orthogonality tolerance                        ...    1.000e-14
Level Shift                                    ...    0.000e+00
Constructing the preconditioner                ... o.k.
Building the initial guess                     ... o.k.
Number of trial vectors determined             ...     10


                       ****Iteration    0****

   Memory handling for direct AO based CIS:
   Memory per vector needed      ...     1 MB
   Memory needed                 ...     1 MB
   Memory available              ...  3000 MB
   Number of vectors per batch   ...  3000
   Number of batches             ...     1
   Time for densities:            0.001
   Time for RI-J (Direct):        0.016
   Time for K (COSX):             0.055
   Time for XC-Integration:       0.015
   Time for Sigma-Completion:     0.000
   Size of expansion space: 3
   Lowest Energy          :     0.012430139049
   Maximum Energy change  :     0.012430139049 (vector 0)
   Maximum residual norm  :     0.004057848944

                       ****Iteration    1****
   Time for densities:            0.000
   Time for RI-J (Direct):        0.012
   Time for K (COSX):             0.049
   Time for XC-Integration:       0.006
   Time for Sigma-Completion:     0.000
   Size of expansion space: 4
   Lowest Energy          :     0.009499340787
   Maximum Energy change  :     0.002930798262 (vector 0)
   Maximum residual norm  :     0.000292429909

                       ****Iteration    2****
   Time for densities:            0.000
   Time for RI-J (Direct):        0.012
   Time for K (COSX):             0.049
   Time for XC-Integration:       0.006
   Time for Sigma-Completion:     0.000
   Size of expansion space: 5
   Lowest Energy          :     0.009291353463
   Maximum Energy change  :     0.000207987324 (vector 0)
   Maximum residual norm  :     0.000008198182

                       ****Iteration    3****
   Time for densities:            0.000
   Time for RI-J (Direct):        0.012
   Time for K (COSX):             0.049
   Time for XC-Integration:       0.006
   Time for Sigma-Completion:     0.000
   Size of expansion space: 6
   Lowest Energy          :     0.009285305723
   Maximum Energy change  :     0.000006047740 (vector 0)
   Maximum residual norm  :     0.000000274179

                       ****Iteration    4****
   Time for densities:            0.000
   Time for RI-J (Direct):        0.012
   Time for K (COSX):             0.050
   Time for XC-Integration:       0.006
   Time for Sigma-Completion:     0.000
   Size of expansion space: 7
   Lowest Energy          :     0.009285156104
   Maximum Energy change  :     0.000000149619 (vector 0)

         *** CONVERGENCE OF ENERGIES REACHED ***

Storing the converged CI vectors               ... ox_es1_G_orca0003.cis1

                 *** DAVIDSON DONE ***

Total time for solving the CIS problem:     0.360sec

------------------------------------
TD-DFT/TDA EXCITED STATES (SINGLETS)
------------------------------------

the weight of the individual excitations are printed if larger than 1.0e-02

STATE  1:  E=   0.009285 au      0.253 eV     2037.9 cm**-1 <S**2> =   0.000000
    10a ->  12a  :     0.992264 (c= -0.99612463)


-----------------------------
TD-DFT/TDA-EXCITATION SPECTRA
-----------------------------

Center of mass = ( -0.9565,  0.0713,  0.0668)
Calculating the Dipole integrals                  ... done
Transforming integrals                            ... done
Calculating the Linear Momentum integrals         ... done
Transforming integrals                            ... done
Calculating angular momentum integrals            ... done
Transforming integrals                            ... done

-----------------------------------------------------------------------------
         ABSORPTION SPECTRUM VIA TRANSITION ELECTRIC DIPOLE MOMENTS
-----------------------------------------------------------------------------
State   Energy    Wavelength  fosc         T2        TX        TY        TZ  
        (cm-1)      (nm)                 (au**2)    (au)      (au)      (au) 
-----------------------------------------------------------------------------
   1    2037.9   4907.1   0.000038595   0.00624   0.00346  -0.03193  -0.07213

-----------------------------------------------------------------------------
         ABSORPTION SPECTRUM VIA TRANSITION VELOCITY DIPOLE MOMENTS
-----------------------------------------------------------------------------
State   Energy    Wavelength   fosc        P2         PX        PY        PZ  
        (cm-1)      (nm)                 (au**2)     (au)      (au)      (au) 
-----------------------------------------------------------------------------
   1    2037.9   4907.1   0.187776989   0.00262  -0.00949  -0.04718  -0.01729

-------------------------------------------------------------------
                             CD SPECTRUM
-------------------------------------------------------------------
State  Energy     Wavelength     R         MX        MY        MZ   
       (cm-1)       (nm)     (1e40*cgs)   (au)      (au)      (au)  
-------------------------------------------------------------------
   1    2037.9   4907.1      1.16967   0.21064  -0.28769   0.10308

-------------------------------------------------------------------
         CD SPECTRUM VIA TRANSITION VELOCITY DIPOLE MOMENTS        
-------------------------------------------------------------------
State  Energy     Wavelength     R         MX        MY        MZ   
       (cm-1)       (nm)     (1e40*cgs)   (au)      (au)      (au)  
-------------------------------------------------------------------
   1    2037.9   4907.1    497.26881   0.21064  -0.28769   0.10308

Total run time:        0.591 sec

           *** ORCA-CIS/TD-DFT FINISHED WITHOUT ERROR ***

Maximum memory used throughout the entire CIS-calculation: 49.4 MB

-----------------------
CIS/TD-DFT TOTAL ENERGY
-----------------------

    E(SCF)  =   -153.492367830 Eh
    DE(CIS) =      0.009285156 Eh (Root  1)
    ----------------------------- ---------
    E(tot)  =   -153.483082674 Eh



-------------------------------------------------------------------------------
                          DFT DISPERSION CORRECTION                            
                                                                               
                              DFTD3 V3.1  Rev 1                                
                          USING Becke-Johnson damping                          
-------------------------------------------------------------------------------
The PBE0 functional is recognized
Active option DFTDOPT                   ...         4   

molecular C6(AA) [au] = 395.300718 


            DFT-D V3
 parameters
 s6 scaling factor         :     1.0000 
 a1 scaling factor         :     0.4145 
 s8 scaling factor         :     1.2177 
 a2 scaling factor         :     4.8593 
 ad hoc parameters k1-k3   :    16.0000     1.3333    -4.0000 

 Edisp/kcal,au: -1.623517463294  -0.002587239488 
 E6   /kcal   :  -1.058946793 
 E8   /kcal   :  -0.564570671 
 % E8         :  34.774536366 

-------------------------   ----------------
Dispersion correction           -0.002587239
-------------------------   ----------------


-------------------------   --------------------
FINAL SINGLE POINT ENERGY      -153.485669913238
-------------------------   --------------------



           ************************************************************
           *        Program running with 8 parallel MPI-processes     *
           *              working on a common directory               *
           ************************************************************
------------------------------------------------------------------------------
                         ORCA SCF GRADIENT CALCULATION
------------------------------------------------------------------------------


------------------------
TD-DFT GRADIENT XC SETUP
------------------------

Building densities                     ... done
Calculating rho(r) on the grid         ... done
Building xc-kernel on the grid         ... done
Building xc 3rd derivative on the grid      ... done
                *** TD-DFT GRADIENT CALCULATION INITIALIZED ***

-------------------
TD-DFT/TDA GRADIENT
-------------------

Reference wavefunction             ... RHF
State of interest                  ... 1
Basis dimension                    ... 117
DFT-XC contribution needed         ... YES
RI-approximation                   ... ON
CIS-vectors being read from        ... ox_es1_G_orca0003.cis

 => Number of Vectors found: 1
 => Orbital Window: 3...11 -> 12...116

Reading the CIS file                     ... done
Norm of the CI vector                    ... 1.000000000
Making the CIS (pseudo)densities         ... done
Making operators G(D) and Q(T)           ... done
Transforming the Fock operators          ... done
Making the frozen-core relaxed density   ... done
Constructing the G(H) operator           ... done
Transforming the G(H) operator           ... done
Calculating the CIS Lagrangian           ... done
Solving the Z-vector equations           ... done
Finalizing the relaxed density           ... done
Storing the relaxed density              ... done
Constructing the G(Z) operator           ... done
Transforming the G(Z) operator           ... done
Making the W-matrix                      ... done
Finalizing the W-matrix                  ... done
Transforming the W-matrix                ... done
Nuclear repulsion gradient               ... done
One-Electron gradient                    ... done
Dispersion correction                    ... done
Prescreening matrices                    ... done
COSX-gradient                            ... done
Coulomb gradient (RI)                    ... done
Exchange-Correlation gradient            ... done

                 ---------------------------
                 EXCITED STATE GRADIENT DONE
                 ---------------------------

------------------
CARTESIAN GRADIENT
------------------

   1   O   :    0.010820984   -0.056956085    0.011407823
   2   C   :    0.002333053   -0.004868760    0.042799668
   3   C   :    0.041985218    0.005208849   -0.068182113
   4   H   :   -0.012871910    0.040002599   -0.033297500
   5   H   :   -0.033634749    0.011992447   -0.018005575
   6   H   :   -0.019185975    0.004688622    0.035951473
   7   H   :    0.010634990   -0.000187704    0.029367000

Difference to translation invariance:
           :    0.0000816109   -0.0001200323    0.0000407770

Difference to rotation invariance:
           :   -0.0001698495   -0.0000194090    0.0002800992

Norm of the cartesian gradient     ...    0.1375607643
RMS gradient                       ...    0.0300182198
MAX gradient                       ...    0.0681821127

------------------------------------------------------------------------------
                  RELAXED CIS/TDA DENSITY POPULATION ANALYSIS
                                   IROOT 1
------------------------------------------------------------------------------
------------------------------------------------------------------------------
                           ORCA POPULATION ANALYSIS
------------------------------------------------------------------------------
Input electron density              ... ox_es1_G_orca0003.cisp
BaseName (.gbw .S,...)              ... ox_es1_G_orca0003

                    ********************************
                    * MULLIKEN POPULATION ANALYSIS *
                    ********************************

-----------------------
MULLIKEN ATOMIC CHARGES
-----------------------
   0 O :   -0.348664
   1 C :   -0.045992
   2 C :   -0.206087
   3 H :    0.122052
   4 H :    0.140399
   5 H :    0.172536
   6 H :    0.165755
Sum of atomic charges:   -0.0000000

--------------------------------
MULLIKEN REDUCED ORBITAL CHARGES
--------------------------------
  0 O s       :     3.888270  s :     3.888270
      pz      :     2.130312  p :     4.432454
      px      :     1.247469
      py      :     1.054673
      dz2     :     0.003118  d :     0.026582
      dxz     :     0.001086
      dyz     :     0.005836
      dx2y2   :     0.007242
      dxy     :     0.009300
      f0      :     0.000206  f :     0.001357
      f+1     :     0.000103
      f-1     :     0.000301
      f+2     :     0.000098
      f-2     :     0.000092
      f+3     :     0.000285
      f-3     :     0.000273
  1 C s       :     3.184115  s :     3.184115
      pz      :     1.022067  p :     2.705334
      px      :     0.877849
      py      :     0.805417
      dz2     :     0.008401  d :     0.143906
      dxz     :     0.024914
      dyz     :     0.056764
      dx2y2   :     0.035337
      dxy     :     0.018490
      f0      :     0.002049  f :     0.012637
      f+1     :     0.001029
      f-1     :     0.000697
      f+2     :     0.001372
      f-2     :     0.002303
      f+3     :     0.001725
      f-3     :     0.003463
  2 C s       :     3.336008  s :     3.336008
      pz      :     1.067061  p :     2.823688
      px      :     0.894667
      py      :     0.861960
      dz2     :     0.006220  d :     0.042665
      dxz     :     0.021944
      dyz     :     0.002163
      dx2y2   :     0.005143
      dxy     :     0.007194
      f0      :     0.000473  f :     0.003726
      f+1     :     0.001026
      f-1     :     0.000172
      f+2     :     0.000581
      f-2     :     0.000064
      f+3     :     0.000676
      f-3     :     0.000735
  3 H s       :     0.853539  s :     0.853539
      pz      :     0.010633  p :     0.024409
      px      :     0.007361
      py      :     0.006415
  4 H s       :     0.839033  s :     0.839033
      pz      :     0.009465  p :     0.020568
      px      :     0.006077
      py      :     0.005026
  5 H s       :     0.802668  s :     0.802668
      pz      :     0.011892  p :     0.024796
      px      :     0.006593
      py      :     0.006312
  6 H s       :     0.812943  s :     0.812943
      pz      :     0.011401  p :     0.021302
      px      :     0.005248
      py      :     0.004653


                     *******************************
                     * LOEWDIN POPULATION ANALYSIS *
                     *******************************

----------------------
LOEWDIN ATOMIC CHARGES
----------------------
   0 O :   -0.031627
   1 C :   -0.461370
   2 C :   -0.056065
   3 H :    0.124495
   4 H :    0.178243
   5 H :    0.105478
   6 H :    0.140847

-------------------------------
LOEWDIN REDUCED ORBITAL CHARGES
-------------------------------
  0 O s       :     3.527130  s :     3.527130
      pz      :     2.036132  p :     4.434353
      px      :     1.232758
      py      :     1.165463
      dz2     :     0.006861  d :     0.065584
      dxz     :     0.003397
      dyz     :     0.018950
      dx2y2   :     0.018027
      dxy     :     0.018350
      f0      :     0.000696  f :     0.004561
      f+1     :     0.000182
      f-1     :     0.000596
      f+2     :     0.000420
      f-2     :     0.000631
      f+3     :     0.000932
      f-3     :     0.001103
  1 C s       :     2.818097  s :     2.818097
      pz      :     1.051686  p :     2.975640
      px      :     1.009247
      py      :     0.914707
      dz2     :     0.063802  d :     0.579062
      dxz     :     0.089778
      dyz     :     0.171010
      dx2y2   :     0.143537
      dxy     :     0.110935
      f0      :     0.013843  f :     0.088571
      f+1     :     0.006699
      f-1     :     0.006079
      f+2     :     0.007895
      f-2     :     0.019052
      f+3     :     0.015004
      f-3     :     0.019999
  2 C s       :     2.942246  s :     2.942246
      pz      :     1.080380  p :     2.900431
      px      :     1.016341
      py      :     0.803709
      dz2     :     0.030726  d :     0.194107
      dxz     :     0.097637
      dyz     :     0.005202
      dx2y2   :     0.032901
      dxy     :     0.027640
      f0      :     0.003580  f :     0.019281
      f+1     :     0.003348
      f-1     :     0.000695
      f+2     :     0.003486
      f-2     :     0.000744
      f+3     :     0.003876
      f-3     :     0.003552
  3 H s       :     0.805765  s :     0.805765
      pz      :     0.032306  p :     0.069740
      px      :     0.019869
      py      :     0.017565
  4 H s       :     0.770290  s :     0.770290
      pz      :     0.025666  p :     0.051467
      px      :     0.013947
      py      :     0.011854
  5 H s       :     0.815700  s :     0.815700
      pz      :     0.038660  p :     0.078823
      px      :     0.020253
      py      :     0.019910
  6 H s       :     0.798489  s :     0.798489
      pz      :     0.033117  p :     0.060665
      px      :     0.014415
      py      :     0.013133


                      *****************************
                      * MAYER POPULATION ANALYSIS *
                      *****************************

  NA   - Mulliken gross atomic population
  ZA   - Total nuclear charge
  QA   - Mulliken gross atomic charge
  VA   - Mayer's total valence
  BVA  - Mayer's bonded valence
  FA   - Mayer's free valence

  ATOM       NA         ZA         QA         VA         BVA        FA
  0 O      8.3487     8.0000    -0.3487     1.4656     1.3524     0.1132
  1 C      6.0460     6.0000    -0.0460     4.1244     4.1006     0.0238
  2 C      6.2061     6.0000    -0.2061     3.8002     3.1628     0.6374
  3 H      0.8779     1.0000     0.1221     0.9409     0.9686    -0.0276
  4 H      0.8596     1.0000     0.1404     0.9469     0.9548    -0.0078
  5 H      0.8275     1.0000     0.1725     0.9517     0.9463     0.0054
  6 H      0.8342     1.0000     0.1658     0.9562     0.9498     0.0063

  Mayer bond orders larger than 0.100000
B(  0-O ,  1-C ) :   1.1740 B(  0-O ,  2-C ) :   0.1451 B(  1-C ,  2-C ) :   1.0853 
B(  1-C ,  3-H ) :   0.9515 B(  1-C ,  4-H ) :   0.8900 B(  2-C ,  5-H ) :   0.9397 
B(  2-C ,  6-H ) :   0.9429 


-------
TIMINGS
-------

Total TD-DFT gradient time         ...        5.857 sec

Fock matrix formation       ....       0.824 sec  ( 14.1%)
  Coulomb formation         ....       0.671 sec  ( 81.4% of F)
  RI-J                      ....       0.287 sec  ( 34.8% of F)
  Chain of spheres X        ....       0.383 sec  ( 46.5% of F)
  XC integration            ....       0.153 sec  ( 18.6% of F)
Z-vector equation           ....       2.394 sec  ( 40.9%)
One electron gradient       ....       0.031 sec  (  0.5%)
Prescreening matrices       ....       0.145 sec  (  2.5%)
RI-J Coulomb gradient       ....       0.244 sec  (  4.2%)
COSX gradient               ....       0.343 sec  (  5.9%)
XC gradient                 ....       1.580 sec  ( 27.0%)

Maximum memory used throughout the entire SCFGRAD-calculation: 130.2 MB

                            ***************************************
                            *     ORCA property calculations      *
                            ***************************************

                                    ---------------------
                                    Active property flags
                                    ---------------------
   (+) Dipole Moment


------------------------------------------------------------------------------
                       ORCA ELECTRIC PROPERTIES CALCULATION
------------------------------------------------------------------------------

Dipole Moment Calculation                       ... on
Quadrupole Moment Calculation                   ... off
Polarizability Calculation                      ... off
GBWName                                         ... ox_es1_G_orca0003.gbw
Electron density                                ... ox_es1_G_orca0003.scfp
The origin for moment calculation is the CENTER OF MASS  = (-0.956521,  0.071306  0.066769)

-------------
DIPOLE MOMENT
-------------
                                X             Y             Z
Electronic contribution:     -0.88328       1.49591      -0.04421
Nuclear contribution   :      1.90735      -2.60809       0.01625
                        -----------------------------------------
Total Dipole Moment    :      1.02408      -1.11218      -0.02796
                        -----------------------------------------
Magnitude (a.u.)       :      1.51210
Magnitude (Debye)      :      3.84346



--------------------
Rotational spectrum 
--------------------
 
Rotational constants in cm-1:     1.745211     0.307059     0.292925 
Rotational constants in MHz : 52320.122014  9205.397488  8781.664688 

 Dipole components along the rotational axes: 
x,y,z [a.u.] :     1.437630    -0.467505     0.033293 
x,y,z [Debye]:     3.654166    -1.188302     0.084623 

 

                        *** CIS RELAXED DENSITY ***

------------------------------------------------------------------------------
                       ORCA ELECTRIC PROPERTIES CALCULATION
------------------------------------------------------------------------------

Dipole Moment Calculation                       ... on
Quadrupole Moment Calculation                   ... off
Polarizability Calculation                      ... off
GBWName                                         ... ox_es1_G_orca0003.gbw
Electron density                                ... ox_es1_G_orca0003.cisp
The origin for moment calculation is the CENTER OF MASS  = (-0.956521,  0.071306  0.066769)

-------------
DIPOLE MOMENT
-------------
                                X             Y             Z
Electronic contribution:     -0.95457       1.68294      -0.01893
Nuclear contribution   :      1.90735      -2.60809       0.01625
                        -----------------------------------------
Total Dipole Moment    :      0.95278      -0.92515      -0.00268
                        -----------------------------------------
Magnitude (a.u.)       :      1.32804
Magnitude (Debye)      :      3.37562



--------------------
Rotational spectrum 
--------------------
 
Rotational constants in cm-1:     1.745211     0.307059     0.292925 
Rotational constants in MHz : 52320.122014  9205.397488  8781.664688 

 Dipole components along the rotational axes: 
x,y,z [a.u.] :     1.283686    -0.340343     0.004463 
x,y,z [Debye]:     3.262871    -0.865083     0.011345 

 

Timings for individual modules:

Sum of individual times         ...        8.132 sec (=   0.136 min)
GTO integral calculation        ...        0.248 sec (=   0.004 min)   3.1 %
SCF iterations                  ...        1.112 sec (=   0.019 min)  13.7 %
CIS module                      ...        0.756 sec (=   0.013 min)   9.3 %
SCF Gradient evaluation         ...        6.016 sec (=   0.100 min)  74.0 %
                             ****ORCA TERMINATED NORMALLY****
TOTAL RUN TIME: 0 days 0 hours 0 minutes 8 seconds 415 msec
