
                                 *****************
                                 * O   R   C   A *
                                 *****************

                                            #,                                       
                                            ###                                      
                                            ####                                     
                                            #####                                    
                                            ######                                   
                                           ########,                                 
                                     ,,################,,,,,                         
                               ,,#################################,,                 
                          ,,##########################################,,             
                       ,#########################################, ''#####,          
                    ,#############################################,,   '####,        
                  ,##################################################,,,,####,       
                ,###########''''           ''''###############################       
              ,#####''   ,,,,##########,,,,          '''####'''          '####       
            ,##' ,,,,###########################,,,                        '##       
           ' ,,###''''                  '''############,,,                           
         ,,##''                                '''############,,,,        ,,,,,,###''
      ,#''                                            '''#######################'''  
     '                                                          ''''####''''         
             ,#######,   #######,   ,#######,      ##                                
            ,#'     '#,  ##    ##  ,#'     '#,    #''#        ######   ,####,        
            ##       ##  ##   ,#'  ##            #'  '#       #        #'  '#        
            ##       ##  #######   ##           ,######,      #####,   #    #        
            '#,     ,#'  ##    ##  '#,     ,#' ,#      #,         ##   #,  ,#        
             '#######'   ##     ##  '#######'  #'      '#     #####' # '####'        



                  #######################################################
                  #                        -***-                        #
                  #          Department of theory and spectroscopy      #
                  #    Directorship and core code : Frank Neese         #
                  #        Max Planck Institute fuer Kohlenforschung    #
                  #                Kaiser Wilhelm Platz 1               #
                  #                 D-45470 Muelheim/Ruhr               #
                  #                      Germany                        #
                  #                                                     #
                  #                  All rights reserved                #
                  #                        -***-                        #
                  #######################################################


                         Program Version 5.0.2 -  RELEASE  -


 With contributions from (in alphabetic order):
   Daniel Aravena         : Magnetic Suceptibility
   Michael Atanasov       : Ab Initio Ligand Field Theory (pilot matlab implementation)
   Alexander A. Auer      : GIAO ZORA, VPT2 properties, NMR spectrum
   Ute Becker             : Parallelization
   Giovanni Bistoni       : ED, misc. LED, open-shell LED, HFLD
   Martin Brehm           : Molecular dynamics
   Dmytro Bykov           : SCF Hessian
   Vijay G. Chilkuri      : MRCI spin determinant printing, contributions to CSF-ICE
   Dipayan Datta          : RHF DLPNO-CCSD density
   Achintya Kumar Dutta   : EOM-CC, STEOM-CC
   Dmitry Ganyushin       : Spin-Orbit,Spin-Spin,Magnetic field MRCI
   Miquel Garcia          : C-PCM and meta-GGA Hessian, CC/C-PCM, Gaussian charge scheme
   Yang Guo               : DLPNO-NEVPT2, F12-NEVPT2, CIM, IAO-localization
   Andreas Hansen         : Spin unrestricted coupled pair/coupled cluster methods
   Benjamin Helmich-Paris : MC-RPA, TRAH-SCF, COSX integrals
   Lee Huntington         : MR-EOM, pCC
   Robert Izsak           : Overlap fitted RIJCOSX, COSX-SCS-MP3, EOM
   Marcus Kettner         : VPT2
   Christian Kollmar      : KDIIS, OOCD, Brueckner-CCSD(T), CCSD density, CASPT2, CASPT2-K
   Simone Kossmann        : Meta GGA functionals, TD-DFT gradient, OOMP2, MP2 Hessian
   Martin Krupicka        : Initial AUTO-CI
   Lucas Lang             : DCDCAS
   Marvin Lechner         : AUTO-CI (C++ implementation), FIC-MRCC
   Dagmar Lenk            : GEPOL surface, SMD
   Dimitrios Liakos       : Extrapolation schemes; Compound Job, initial MDCI parallelization
   Dimitrios Manganas     : Further ROCIS development; embedding schemes
   Dimitrios Pantazis     : SARC Basis sets
   Anastasios Papadopoulos: AUTO-CI, single reference methods and gradients
   Taras Petrenko         : DFT Hessian,TD-DFT gradient, ASA, ECA, R-Raman, ABS, FL, XAS/XES, NRVS
   Peter Pinski           : DLPNO-MP2, DLPNO-MP2 Gradient
   Christoph Reimann      : Effective Core Potentials
   Marius Retegan         : Local ZFS, SOC
   Christoph Riplinger    : Optimizer, TS searches, QM/MM, DLPNO-CCSD(T), (RO)-DLPNO pert. Triples
   Tobias Risthaus        : Range-separated hybrids, TD-DFT gradient, RPA, STAB
   Michael Roemelt        : Original ROCIS implementation
   Masaaki Saitow         : Open-shell DLPNO-CCSD energy and density
   Barbara Sandhoefer     : DKH picture change effects
   Avijit Sen             : IP-ROCIS
   Kantharuban Sivalingam : CASSCF convergence, NEVPT2, FIC-MRCI
   Bernardo de Souza      : ESD, SOC TD-DFT
   Georgi Stoychev        : AutoAux, RI-MP2 NMR, DLPNO-MP2 response
   Willem Van den Heuvel  : Paramagnetic NMR
   Boris Wezisla          : Elementary symmetry handling
   Frank Wennmohs         : Technical directorship


 We gratefully acknowledge several colleagues who have allowed us to
 interface, adapt or use parts of their codes:
   Stefan Grimme, W. Hujo, H. Kruse, P. Pracht,  : VdW corrections, initial TS optimization,
                  C. Bannwarth, S. Ehlert          DFT functionals, gCP, sTDA/sTD-DF
   Ed Valeev, F. Pavosevic, A. Kumar             : LibInt (2-el integral package), F12 methods
   Garnet Chan, S. Sharma, J. Yang, R. Olivares  : DMRG
   Ulf Ekstrom                                   : XCFun DFT Library
   Mihaly Kallay                                 : mrcc  (arbitrary order and MRCC methods)
   Jiri Pittner, Ondrej Demel                    : Mk-CCSD
   Frank Weinhold                                : gennbo (NPA and NBO analysis)
   Christopher J. Cramer and Donald G. Truhlar   : smd solvation model
   Lars Goerigk                                  : TD-DFT with DH, B97 family of functionals
   V. Asgeirsson, H. Jonsson                     : NEB implementation
   FAccTs GmbH                                   : IRC, NEB, NEB-TS, DLPNO-Multilevel, CI-OPT
                                                   MM, QMMM, 2- and 3-layer-ONIOM, Crystal-QMMM,
                                                   LR-CPCM, SF, NACMEs, symmetry and pop. for TD-DFT,
                                                   nearIR, NL-DFT gradient (VV10), updates on ESD,
                                                   ML-optimized integration grids
   S Lehtola, MJT Oliveira, MAL Marques          : LibXC Library
   Liviu Ungur et al                             : ANISO software


 Your calculation uses the libint2 library for the computation of 2-el integrals
 For citations please refer to: http://libint.valeyev.net

 Your ORCA version has been built with support for libXC version: 5.1.0
 For citations please refer to: https://tddft.org/programs/libxc/

 This ORCA versions uses:
   CBLAS   interface :  Fast vector & matrix operations
   LAPACKE interface :  Fast linear algebra routines
   SCALAPACK package :  Parallel linear algebra routines
   Shared memory     :  Shared parallel matrices
   BLAS/LAPACK       :  OpenBLAS 0.3.15  USE64BITINT DYNAMIC_ARCH NO_AFFINITY SkylakeX SINGLE_THREADED
        Core in use  :  SkylakeX
   Copyright (c) 2011-2014, The OpenBLAS Project


Your calculation utilizes the atom-pairwise dispersion correction
with the Becke-Johnson damping scheme (D3BJ)
Cite in your paper:
S.Grimme, S.Ehrlich, L.Goerigk, J Comput Chem, (2011), 32, 1456–1465 
S.Grimme, J.Antony, S.Ehrlich and H.Krieg, J.Chem.Phys., 132, (2010), 154104 
   

================================================================================

----- Orbital basis set information -----
Your calculation utilizes the basis: def2-TZVP
   F. Weigend and R. Ahlrichs, Phys. Chem. Chem. Phys. 7, 3297 (2005).

----- AuxJ basis set information -----
Your calculation utilizes the auxiliary basis: def2/J
   F. Weigend, Phys. Chem. Chem. Phys. 8, 1057 (2006).

================================================================================
                                        WARNINGS
                       Please study these warnings very carefully!
================================================================================

INFO   : Checking CIS options ...

WARNING: CIS/ROCIS methods need fully converged wavefunctions
  ===> : Setting SCFConvForced true
         You can overwrite this default with %scf ConvForced false 


INFO   : the flag for use of the SHARK integral package has been found!

================================================================================
                                       INPUT FILE
================================================================================
NAME = ox_es1_A_orca0047.inp
|  1> ! engrad PBE0 D3BJ def2-TZVP  
|  2> %pal nprocs 8 end
|  3> %maxcore 3000
|  4> 
|  5> %tddft
|  6>   nroots 1
|  7>   tda true
|  8>   Iroot 1
|  9>   end 
| 10> *xyz 0 1 
| 11> O   0.043868164528783574 0.7558761013085169 0.001344401949726539
| 12> C   -0.7184704496026224 -0.5491072334212146 -0.012358869126029848
| 13> C   0.6947903276001101 -0.4971014904947458 -0.014055014644297745
| 14> H   -1.1739386036575237 -0.6362286669366495 0.8914172705108602
| 15> H   -1.235193630932192 -0.5983031381706999 -0.8737445358543616
| 16> H   1.2668043384960086 -0.7006176988852787 -0.8850650543193205
| 17> H   1.2834971392710874 -0.6235111489986134 0.9517347600840984
| 18> *
| 19> 
| 20>                          ****END OF INPUT****
================================================================================

                     *******************************
                     * Energy+Gradient Calculation *
                     *******************************

---------------------------------
CARTESIAN COORDINATES (ANGSTROEM)
---------------------------------
  O      0.043868    0.755876    0.001344
  C     -0.718470   -0.549107   -0.012359
  C      0.694790   -0.497101   -0.014055
  H     -1.173939   -0.636229    0.891417
  H     -1.235194   -0.598303   -0.873745
  H      1.266804   -0.700618   -0.885065
  H      1.283497   -0.623511    0.951735

----------------------------
CARTESIAN COORDINATES (A.U.)
----------------------------
  NO LB      ZA    FRAG     MASS         X           Y           Z
   0 O     8.0000    0    15.999    0.082899    1.428399    0.002541
   1 C     6.0000    0    12.011   -1.357712   -1.037662   -0.023355
   2 C     6.0000    0    12.011    1.312963   -0.939386   -0.026560
   3 H     1.0000    0     1.008   -2.218422   -1.202298    1.684535
   4 H     1.0000    0     1.008   -2.334178   -1.130629   -1.651138
   5 H     1.0000    0     1.008    2.393913   -1.323976   -1.672531
   6 H     1.0000    0     1.008    2.425458   -1.178265    1.798518

--------------------------------
INTERNAL COORDINATES (ANGSTROEM)
--------------------------------
 O      0   0   0     0.000000000000     0.00000000     0.00000000
 C      1   0   0     1.511399830011     0.00000000     0.00000000
 C      1   2   0     1.412051574826    57.74122868     0.00000000
 H      2   1   3     1.015801503303   106.98654524   111.48593616
 H      2   1   3     1.005687998344   108.00859570   244.27170807
 H      3   1   2     1.061733189155   115.30196871   115.31605775
 H      3   1   2     1.138114669460   109.13222198   244.20715463

---------------------------
INTERNAL COORDINATES (A.U.)
---------------------------
 O      0   0   0     0.000000000000     0.00000000     0.00000000
 C      1   0   0     2.856131757575     0.00000000     0.00000000
 C      1   2   0     2.668390763394    57.74122868     0.00000000
 H      2   1   3     1.919586647668   106.98654524   111.48593616
 H      2   1   3     1.900474893041   108.00859570   244.27170807
 H      3   1   2     2.006384954798   115.30196871   115.31605775
 H      3   1   2     2.150725034278   109.13222198   244.20715463

---------------------
BASIS SET INFORMATION
---------------------
There are 3 groups of distinct atoms

 Group   1 Type O   : 11s6p2d1f contracted to 5s3p2d1f pattern {62111/411/11/1}
 Group   2 Type C   : 11s6p2d1f contracted to 5s3p2d1f pattern {62111/411/11/1}
 Group   3 Type H   : 5s1p contracted to 3s1p pattern {311/1}

Atom   0O    basis set group =>   1
Atom   1C    basis set group =>   2
Atom   2C    basis set group =>   2
Atom   3H    basis set group =>   3
Atom   4H    basis set group =>   3
Atom   5H    basis set group =>   3
Atom   6H    basis set group =>   3
---------------------------------
AUXILIARY/J BASIS SET INFORMATION
---------------------------------
There are 3 groups of distinct atoms

 Group   1 Type O   : 12s5p4d2f1g contracted to 6s4p3d1f1g pattern {711111/2111/211/2/1}
 Group   2 Type C   : 12s5p4d2f1g contracted to 6s4p3d1f1g pattern {711111/2111/211/2/1}
 Group   3 Type H   : 5s2p1d contracted to 3s1p1d pattern {311/2/1}

Atom   0O    basis set group =>   1
Atom   1C    basis set group =>   2
Atom   2C    basis set group =>   2
Atom   3H    basis set group =>   3
Atom   4H    basis set group =>   3
Atom   5H    basis set group =>   3
Atom   6H    basis set group =>   3

Checking for AutoStart:
The File: ox_es1_A_orca0047.gbw exists
Trying to determine its content:
     ... Fine, the file contains calculation information
     ... Fine, the calculation information was read
     ... Fine, the file contains a basis set
     ... Fine, the basis set was read
     ... Fine, the file contains a geometry
     ... Fine, the geometry was read
     ... Fine, the file contains a set of orbitals
     ... Fine, the orbitals can be read
     => possible old guess file was deleted
     => GBW file was renamed to GES file
     => GES file is set as startup file
     => Guess is set to MORead
     ... now leaving AutoStart



           ************************************************************
           *        Program running with 8 parallel MPI-processes     *
           *              working on a common directory               *
           ************************************************************
------------------------------------------------------------------------------
                           ORCA GTO INTEGRAL CALCULATION
                           -- RI-GTO INTEGRALS CHOSEN --
------------------------------------------------------------------------------
------------------------------------------------------------------------------
                   ___                                                        
                  /   \      - P O W E R E D   B Y -                         
                 /     \                                                     
                 |  |  |   _    _      __       _____    __    __             
                 |  |  |  | |  | |    /  \     |  _  \  |  |  /  |          
                  \  \/   | |  | |   /    \    | | | |  |  | /  /          
                 / \  \   | |__| |  /  /\  \   | |_| |  |  |/  /          
                |  |  |   |  __  | /  /__\  \  |    /   |      \           
                |  |  |   | |  | | |   __   |  |    \   |  |\   \          
                \     /   | |  | | |  |  |  |  | |\  \  |  | \   \       
                 \___/    |_|  |_| |__|  |__|  |_| \__\ |__|  \__/        
                                                                              
                      - O R C A' S   B I G   F R I E N D -                    
                                      &                                       
                       - I N T E G R A L  F E E D E R -                       
                                                                              
 v1 FN, 2020, v2 2021                                                         
------------------------------------------------------------------------------


Reading SHARK input file ox_es1_A_orca0047.SHARKINP.tmp ... ok
----------------------
SHARK INTEGRAL PACKAGE
----------------------

Number of atoms                             ...      7
Number of basis functions                   ...    117
Number of shells                            ...     49
Maximum angular momentum                    ...      3
Integral batch strategy                     ... SHARK/LIBINT Hybrid
RI-J (if used) integral strategy            ... SPLIT-RIJ (Revised 2003 algorithm where possible)
Printlevel                                  ...      1
Contraction scheme used                     ... SEGMENTED contraction
Coulomb Range Separation                    ... NOT USED
Exchange Range Separation                   ... NOT USED
Finite Nucleus Model                        ... NOT USED
Auxiliary Coulomb fitting basis             ... AVAILABLE
   # of basis functions in Aux-J            ...    191
   # of shells in Aux-J                     ...     65
   Maximum angular momentum in Aux-J        ...      4
Auxiliary J/K fitting basis                 ... NOT available
Auxiliary Correlation fitting basis         ... NOT available
Auxiliary 'external' fitting basis          ... NOT available
Integral threshold                          ...     2.500000e-11
Primitive cut-off                           ...     2.500000e-12
Primitive pair pre-selection threshold      ...     2.500000e-12

Calculating pre-screening integrals         ... done (  0.0 sec) Dimension = 49
Organizing shell pair data                  ... done (  0.0 sec)
Shell pair information
Total number of shell pairs                 ...      1225
Shell pairs after pre-screening             ...      1220
Total number of primitive shell pairs       ...      3648
Primitive shell pairs kept                  ...      3151
          la=0 lb=0:    373 shell pairs
          la=1 lb=0:    351 shell pairs
          la=1 lb=1:     91 shell pairs
          la=2 lb=0:    162 shell pairs
          la=2 lb=1:     78 shell pairs
          la=2 lb=2:     21 shell pairs
          la=3 lb=0:     81 shell pairs
          la=3 lb=1:     39 shell pairs
          la=3 lb=2:     18 shell pairs
          la=3 lb=3:      6 shell pairs

Calculating one electron integrals          ... done (  0.0 sec)
Calculating RI/J V-Matrix + Cholesky decomp.... done (  0.0 sec)
Calculating Nuclear repulsion               ... done (  0.0 sec) ENN=     75.771068192441 Eh

SHARK setup successfully completed in   0.1 seconds

Maximum memory used throughout the entire GTOINT-calculation: 14.9 MB


           ************************************************************
           *        Program running with 8 parallel MPI-processes     *
           *              working on a common directory               *
           ************************************************************
-------------------------------------------------------------------------------
                                 ORCA SCF
-------------------------------------------------------------------------------

------------
SCF SETTINGS
------------
Hamiltonian:
 Density Functional     Method          .... DFT(GTOs)
 Exchange Functional    Exchange        .... PBE
   PBE kappa parameter   XKappa         ....  0.804000
   PBE mue parameter    XMuePBE         ....  0.219520
 Correlation Functional Correlation     .... PBE
   PBE beta parameter  CBetaPBE         ....  0.066725
 LDA part of GGA corr.  LDAOpt          .... PW91-LDA
 Gradients option       PostSCFGGA      .... off
 Hybrid DFT is turned on
   Fraction HF Exchange ScalHFX         ....  0.250000
   Scaling of DF-GGA-X  ScalDFX         ....  0.750000
   Scaling of DF-GGA-C  ScalDFC         ....  1.000000
   Scaling of DF-LDA-C  ScalLDAC        ....  1.000000
   Perturbative correction              ....  0.000000
   Density functional embedding theory  .... OFF
   NL short-range parameter             ....  6.900000
 RI-approximation to the Coulomb term is turned on
   Number of AuxJ basis functions       .... 191
   RIJ-COSX (HFX calculated with COS-X)).... on


General Settings:
 Integral files         IntName         .... ox_es1_A_orca0047
 Hartree-Fock type      HFTyp           .... RHF
 Total Charge           Charge          ....    0
 Multiplicity           Mult            ....    1
 Number of Electrons    NEL             ....   24
 Basis Dimension        Dim             ....  117
 Nuclear Repulsion      ENuc            ....     75.7710681924 Eh

Convergence Acceleration:
 DIIS                   CNVDIIS         .... on
   Start iteration      DIISMaxIt       ....    12
   Startup error        DIISStart       ....  0.200000
   # of expansion vecs  DIISMaxEq       ....     5
   Bias factor          DIISBfac        ....   1.050
   Max. coefficient     DIISMaxC        ....  10.000
 Trust-Rad. Augm. Hess. CNVTRAH         .... auto
   Auto Start mean grad. ratio tolernc. ....  1.125000
   Auto Start start iteration           ....     1
   Auto Start num. interpolation iter.  ....    10
   Max. Number of Micro iterations      ....    16
   Max. Number of Macro iterations      .... Maxiter - #DIIS iter
   Number of Davidson start vectors     ....     2
   Converg. threshold I  (grad. norm)   ....   1.000e-05
   Converg. threshold II (energy diff.) ....   1.000e-08
   Grad. Scal. Fac. for Micro threshold ....   0.100
   Minimum threshold for Micro iter.    ....   0.010
   NR start threshold (gradient norm)   ....   0.001
   Initial trust radius                 ....   0.400
   Minimum AH scaling param. (alpha)    ....   1.000
   Maximum AH scaling param. (alpha)    .... 1000.000
   Orbital update algorithm             .... Taylor
   White noise on init. David. guess    .... on
   Maximum white noise                  ....   0.010
   Quad. conv. algorithm                .... NR
 SOSCF                  CNVSOSCF        .... on
   Start iteration      SOSCFMaxIt      ....   150
   Startup grad/error   SOSCFStart      ....  0.003300
 Level Shifting         CNVShift        .... on
   Level shift para.    LevelShift      ....    0.2500
   Turn off err/grad.   ShiftErr        ....    0.0010
 Zerner damping         CNVZerner       .... off
 Static damping         CNVDamp         .... on
   Fraction old density DampFac         ....    0.7000
   Max. Damping (<1)    DampMax         ....    0.9800
   Min. Damping (>=0)   DampMin         ....    0.0000
   Turn off err/grad.   DampErr         ....    0.1000
 Fernandez-Rico         CNVRico         .... off

SCF Procedure:
 Maximum # iterations   MaxIter         ....   125
 SCF integral mode      SCFMode         .... Direct
   Integral package                     .... SHARK and LIBINT hybrid scheme
 Reset frequency        DirectResetFreq ....    20
 Integral Threshold     Thresh          ....  2.500e-11 Eh
 Primitive CutOff       TCut            ....  2.500e-12 Eh

Convergence Tolerance:
 Convergence Check Mode ConvCheckMode   .... Total+1el-Energy
 Convergence forced     ConvForced      .... 1
 Energy Change          TolE            ....  1.000e-08 Eh
 1-El. energy change                    ....  1.000e-05 Eh
 Orbital Gradient       TolG            ....  1.000e-05
 Orbital Rotation angle TolX            ....  1.000e-05
 DIIS Error             TolErr          ....  5.000e-07


Diagonalization of the overlap matrix:
Smallest eigenvalue                        ... 2.876e-04
Time for diagonalization                   ...    0.001 sec
Threshold for overlap eigenvalues          ... 1.000e-08
Number of eigenvalues below threshold      ... 0
Time for construction of square roots      ...    0.001 sec
Total time needed                          ...    0.003 sec

---------------------
INITIAL GUESS: MOREAD
---------------------
Guess MOs are being read from file: ox_es1_A_orca0047.ges
Input Geometry matches current geometry (good)
Input basis set matches current basis set (good)
MOs were renormalized
MOs were reorthogonalized (Cholesky)
                      ------------------
                      INITIAL GUESS DONE (   0.0 sec)
                      ------------------
-------------------
DFT GRID GENERATION
-------------------

General Integration Accuracy     IntAcc      ... 4.388
Radial Grid Type                 RadialGrid  ... OptM3 with GC (2021)
Angular Grid (max. ang.)         AngularGrid ... 4 (Lebedev-302)
Angular grid pruning method      GridPruning ... 4 (adaptive)
Weight generation scheme         WeightScheme... Becke
Basis function cutoff            BFCut       ... 1.0000e-11
Integration weight cutoff        WCut        ... 1.0000e-14
Angular grids for H and He will be reduced by one unit
Partially contracted basis set               ... off
Rotationally invariant grid construction     ... off

Total number of grid points                  ...    31283
Total number of batches                      ...      492
Average number of points per batch           ...       63
Average number of grid points per atom       ...     4469
Time for grid setup =    0.118 sec

--------------------
COSX GRID GENERATION
--------------------

GRIDX 1
-------
General Integration Accuracy     IntAcc      ... 3.816
Radial Grid Type                 RadialGrid  ... OptM3 with GC (2021)
Angular Grid (max. ang.)         AngularGrid ... 1 (Lebedev-50)
Angular grid pruning method      GridPruning ... 4 (adaptive)
Weight generation scheme         WeightScheme... Becke
Basis function cutoff            BFCut       ... 1.0000e-11
Integration weight cutoff        WCut        ... 1.0000e-14
Angular grids for H and He will be reduced by one unit
Partially contracted basis set               ... on
Rotationally invariant grid construction     ... off

Total number of grid points                  ...     4032
Total number of batches                      ...       68
Average number of points per batch           ...       59
Average number of grid points per atom       ...      576
UseSFitting                                  ... on

GRIDX 2
-------
General Integration Accuracy     IntAcc      ... 4.020
Radial Grid Type                 RadialGrid  ... OptM3 with GC (2021)
Angular Grid (max. ang.)         AngularGrid ... 2 (Lebedev-110)
Angular grid pruning method      GridPruning ... 4 (adaptive)
Weight generation scheme         WeightScheme... Becke
Basis function cutoff            BFCut       ... 1.0000e-11
Integration weight cutoff        WCut        ... 1.0000e-14
Angular grids for H and He will be reduced by one unit
Partially contracted basis set               ... on
Rotationally invariant grid construction     ... off

Total number of grid points                  ...     8696
Total number of batches                      ...      140
Average number of points per batch           ...       62
Average number of grid points per atom       ...     1242
UseSFitting                                  ... on

GRIDX 3
-------
General Integration Accuracy     IntAcc      ... 4.338
Radial Grid Type                 RadialGrid  ... OptM3 with GC (2021)
Angular Grid (max. ang.)         AngularGrid ... 3 (Lebedev-194)
Angular grid pruning method      GridPruning ... 4 (adaptive)
Weight generation scheme         WeightScheme... Becke
Basis function cutoff            BFCut       ... 1.0000e-11
Integration weight cutoff        WCut        ... 1.0000e-14
Angular grids for H and He will be reduced by one unit
Partially contracted basis set               ... on
Rotationally invariant grid construction     ... off

Total number of grid points                  ...    19215
Total number of batches                      ...      305
Average number of points per batch           ...       63
Average number of grid points per atom       ...     2745
UseSFitting                                  ... on

Time for X-Grid setup             =    0.072 sec

--------------
SCF ITERATIONS
--------------
ITER       Energy         Delta-E        Max-DP      RMS-DP      [F,P]     Damp
               ***  Starting incremental Fock matrix formation  ***
                      *** Initiating the SOSCF procedure ***
                      *** Re-Reading the Fockian *** 
                      *** Removing any level shift *** 
ITER      Energy       Delta-E        Grad      Rot      Max-DP    RMS-DP
  0   -153.65570558 -153.6557055847  0.000001  0.000001  0.000001  0.000000
               *** Restarting incremental Fock matrix formation ***
                  ***Gradient check signals convergence***
              ***Rediagonalizing the Fockian in SOSCF/NRSCF***

               *****************************************************
               *                     SUCCESS                       *
               *           SCF CONVERGED AFTER   1 CYCLES          *
               *****************************************************

Old exchange energy                            =     -5.010854322 Eh
New exchange energy                            =     -5.010836866 Eh
Exchange energy change after final integration =      0.000017457 Eh
Total energy after final integration           =   -153.655688128 Eh
Final COS-X integration done in                =     0.259 sec

----------------
TOTAL SCF ENERGY
----------------

Total Energy       :         -153.65568813 Eh           -4181.18384 eV

Components:
Nuclear Repulsion  :           75.77106819 Eh            2061.83559 eV
Electronic Energy  :         -229.42675632 Eh           -6243.01943 eV
One Electron Energy:         -358.21813360 Eh           -9747.61097 eV
Two Electron Energy:          128.79137728 Eh            3504.59155 eV
Max COSX asymmetry :            0.00000294 Eh               0.00008 eV

Virial components:
Potential Energy   :         -306.87806330 Eh           -8350.57664 eV
Kinetic Energy     :          153.22237518 Eh            4169.39280 eV
Virial Ratio       :            2.00282800


DFT components:
N(Alpha)           :       12.000000896639 electrons
N(Beta)            :       12.000000896639 electrons
N(Total)           :       24.000001793279 electrons
E(X)               :      -15.000115207134 Eh       
E(C)               :       -0.791871248786 Eh       
E(XC)              :      -15.791986455920 Eh       
DFET-embed. en.    :        0.000000000000 Eh       

---------------
SCF CONVERGENCE
---------------

  Last Energy change         ...   -2.0378e-11  Tolerance :   1.0000e-08
  Last MAX-Density change    ...    1.4433e-15  Tolerance :   1.0000e-07
  Last RMS-Density change    ...    2.5113e-17  Tolerance :   5.0000e-09
  Last Orbital Gradient      ...    3.1311e-07  Tolerance :   1.0000e-05
  Last Orbital Rotation      ...    5.3863e-07  Tolerance :   1.0000e-05

             **** THE GBW FILE WAS UPDATED (ox_es1_A_orca0047.gbw) ****
             **** DENSITY ox_es1_A_orca0047.scfp WAS UPDATED ****
             **** ENERGY FILE WAS UPDATED (ox_es1_A_orca0047.en.tmp) ****
             **** THE GBW FILE WAS UPDATED (ox_es1_A_orca0047.gbw) ****
             **** DENSITY ox_es1_A_orca0047.scfp WAS UPDATED ****
----------------
ORBITAL ENERGIES
----------------

  NO   OCC          E(Eh)            E(eV) 
   0   2.0000     -19.212186      -522.7902 
   1   2.0000     -10.273425      -279.5541 
   2   2.0000     -10.261313      -279.2245 
   3   2.0000      -1.088672       -29.6243 
   4   2.0000      -0.718053       -19.5392 
   5   2.0000      -0.655996       -17.8506 
   6   2.0000      -0.544391       -14.8136 
   7   2.0000      -0.500164       -13.6101 
   8   2.0000      -0.408354       -11.1119 
   9   2.0000      -0.388134       -10.5617 
  10   2.0000      -0.347921        -9.4674 
  11   2.0000      -0.282303        -7.6819 
  12   0.0000       0.057986         1.5779 
  13   0.0000       0.067855         1.8464 
  14   0.0000       0.088730         2.4145 
  15   0.0000       0.100354         2.7308 
  16   0.0000       0.109629         2.9831 
  17   0.0000       0.155497         4.2313 
  18   0.0000       0.187831         5.1111 
  19   0.0000       0.216784         5.8990 
  20   0.0000       0.268539         7.3073 
  21   0.0000       0.275604         7.4996 
  22   0.0000       0.287690         7.8284 
  23   0.0000       0.319292         8.6884 
  24   0.0000       0.401058        10.9133 
  25   0.0000       0.407130        11.0786 
  26   0.0000       0.440281        11.9807 
  27   0.0000       0.450503        12.2588 
  28   0.0000       0.468731        12.7548 
  29   0.0000       0.481159        13.0930 
  30   0.0000       0.515254        14.0208 
  31   0.0000       0.521898        14.2016 
  32   0.0000       0.571469        15.5504 
  33   0.0000       0.691303        18.8113 
  34   0.0000       0.709841        19.3158 
  35   0.0000       0.737970        20.0812 
  36   0.0000       0.809735        22.0340 
  37   0.0000       0.829486        22.5715 
  38   0.0000       0.866900        23.5896 
  39   0.0000       0.947050        25.7705 
  40   0.0000       1.018691        27.7200 
  41   0.0000       1.047626        28.5073 
  42   0.0000       1.071529        29.1578 
  43   0.0000       1.087447        29.5909 
  44   0.0000       1.200599        32.6700 
  45   0.0000       1.348393        36.6916 
  46   0.0000       1.469694        39.9924 
  47   0.0000       1.488277        40.4981 
  48   0.0000       1.513177        41.1757 
  49   0.0000       1.537641        41.8413 
  50   0.0000       1.601603        43.5818 
  51   0.0000       1.650951        44.9247 
  52   0.0000       1.685932        45.8765 
  53   0.0000       1.696391        46.1611 
  54   0.0000       1.770432        48.1759 
  55   0.0000       1.794060        48.8189 
  56   0.0000       1.847687        50.2781 
  57   0.0000       1.865852        50.7724 
  58   0.0000       1.928274        52.4710 
  59   0.0000       2.031069        55.2682 
  60   0.0000       2.136842        58.1464 
  61   0.0000       2.173790        59.1518 
  62   0.0000       2.246802        61.1386 
  63   0.0000       2.263780        61.6006 
  64   0.0000       2.275613        61.9226 
  65   0.0000       2.423061        65.9348 
  66   0.0000       2.485143        67.6242 
  67   0.0000       2.511179        68.3327 
  68   0.0000       2.574358        70.0518 
  69   0.0000       2.641789        71.8867 
  70   0.0000       2.655848        72.2693 
  71   0.0000       2.681677        72.9721 
  72   0.0000       2.708391        73.6991 
  73   0.0000       2.723215        74.1025 
  74   0.0000       2.746233        74.7288 
  75   0.0000       2.862156        77.8832 
  76   0.0000       2.940388        80.0120 
  77   0.0000       2.948873        80.2429 
  78   0.0000       2.978352        81.0451 
  79   0.0000       3.015071        82.0442 
  80   0.0000       3.024679        82.3057 
  81   0.0000       3.158540        85.9482 
  82   0.0000       3.170468        86.2728 
  83   0.0000       3.281675        89.2989 
  84   0.0000       3.326055        90.5065 
  85   0.0000       3.363737        91.5319 
  86   0.0000       3.378333        91.9291 
  87   0.0000       3.412188        92.8504 
  88   0.0000       3.594233        97.8040 
  89   0.0000       3.616888        98.4205 
  90   0.0000       3.646668        99.2309 
  91   0.0000       3.710376       100.9645 
  92   0.0000       3.987974       108.5183 
  93   0.0000       4.092860       111.3724 
  94   0.0000       4.168506       113.4308 
  95   0.0000       4.184161       113.8568 
  96   0.0000       4.196509       114.1928 
  97   0.0000       4.378685       119.1501 
  98   0.0000       4.514761       122.8529 
  99   0.0000       4.571033       124.3841 
 100   0.0000       4.781451       130.1099 
 101   0.0000       4.931531       134.1938 
 102   0.0000       5.295493       144.0977 
 103   0.0000       5.415461       147.3622 
 104   0.0000       5.627134       153.1221 
 105   0.0000       5.722085       155.7059 
 106   0.0000       5.782279       157.3438 
 107   0.0000       5.842914       158.9938 
 108   0.0000       6.023377       163.9044 
 109   0.0000       6.565650       178.6604 
 110   0.0000       6.634801       180.5421 
 111   0.0000       6.799418       185.0216 
 112   0.0000       6.975954       189.8254 
 113   0.0000       7.178885       195.3474 
 114   0.0000      22.371681       608.7644 
 115   0.0000      22.616641       615.4301 
 116   0.0000      43.842311      1193.0099 

                    ********************************
                    * MULLIKEN POPULATION ANALYSIS *
                    ********************************

-----------------------
MULLIKEN ATOMIC CHARGES
-----------------------
   0 O :   -0.340243
   1 C :   -0.099279
   2 C :   -0.038229
   3 H :    0.129248
   4 H :    0.134095
   5 H :    0.109557
   6 H :    0.104852
Sum of atomic charges:    0.0000000

--------------------------------
MULLIKEN REDUCED ORBITAL CHARGES
--------------------------------
  0 O s       :     3.869819  s :     3.869819
      pz      :     1.867081  p :     4.429083
      px      :     1.348934
      py      :     1.213068
      dz2     :     0.005526  d :     0.039274
      dxz     :     0.002473
      dyz     :     0.006156
      dx2y2   :     0.011536
      dxy     :     0.013582
      f0      :     0.000229  f :     0.002067
      f+1     :     0.000165
      f-1     :     0.000464
      f+2     :     0.000093
      f-2     :     0.000187
      f+3     :     0.000393
      f-3     :     0.000536
  1 C s       :     3.222578  s :     3.222578
      pz      :     1.069928  p :     2.763905
      px      :     0.915631
      py      :     0.778347
      dz2     :     0.007475  d :     0.102315
      dxz     :     0.024216
      dyz     :     0.024707
      dx2y2   :     0.026851
      dxy     :     0.019066
      f0      :     0.001559  f :     0.010481
      f+1     :     0.001367
      f-1     :     0.000374
      f+2     :     0.001370
      f-2     :     0.001234
      f+3     :     0.001847
      f-3     :     0.002729
  2 C s       :     3.208962  s :     3.208962
      pz      :     1.037302  p :     2.695968
      px      :     0.900713
      py      :     0.757952
      dz2     :     0.004905  d :     0.121068
      dxz     :     0.027682
      dyz     :     0.032838
      dx2y2   :     0.032343
      dxy     :     0.023300
      f0      :     0.001629  f :     0.012231
      f+1     :     0.001377
      f-1     :     0.000622
      f+2     :     0.001962
      f-2     :     0.001500
      f+3     :     0.001767
      f-3     :     0.003374
  3 H s       :     0.847200  s :     0.847200
      pz      :     0.012098  p :     0.023552
      px      :     0.006452
      py      :     0.005002
  4 H s       :     0.842177  s :     0.842177
      pz      :     0.011512  p :     0.023729
      px      :     0.007194
      py      :     0.005022
  5 H s       :     0.868620  s :     0.868620
      pz      :     0.010542  p :     0.021823
      px      :     0.007197
      py      :     0.004085
  6 H s       :     0.875763  s :     0.875763
      pz      :     0.010277  p :     0.019384
      px      :     0.005922
      py      :     0.003186


                     *******************************
                     * LOEWDIN POPULATION ANALYSIS *
                     *******************************

----------------------
LOEWDIN ATOMIC CHARGES
----------------------
   0 O :    0.081850
   1 C :   -0.210832
   2 C :   -0.328337
   3 H :    0.110668
   4 H :    0.106007
   5 H :    0.111038
   6 H :    0.129606

-------------------------------
LOEWDIN REDUCED ORBITAL CHARGES
-------------------------------
  0 O s       :     3.418942  s :     3.418942
      pz      :     1.756845  p :     4.410488
      px      :     1.331124
      py      :     1.322519
      dz2     :     0.011253  d :     0.082839
      dxz     :     0.006757
      dyz     :     0.014046
      dx2y2   :     0.028696
      dxy     :     0.022088
      f0      :     0.000571  f :     0.005879
      f+1     :     0.000199
      f-1     :     0.000897
      f+2     :     0.000211
      f-2     :     0.000806
      f+3     :     0.001053
      f-3     :     0.002142
  1 C s       :     2.807322  s :     2.807322
      pz      :     1.061496  p :     2.905775
      px      :     1.051634
      py      :     0.792645
      dz2     :     0.056211  d :     0.431723
      dxz     :     0.130961
      dyz     :     0.058607
      dx2y2   :     0.096724
      dxy     :     0.089219
      f0      :     0.009401  f :     0.066013
      f+1     :     0.006241
      f-1     :     0.005126
      f+2     :     0.008596
      f-2     :     0.004554
      f+3     :     0.013260
      f-3     :     0.018834
  2 C s       :     2.813028  s :     2.813028
      pz      :     1.039849  p :     2.902861
      px      :     1.040112
      py      :     0.822900
      dz2     :     0.054676  d :     0.530558
      dxz     :     0.147359
      dyz     :     0.091308
      dx2y2   :     0.121926
      dxy     :     0.115289
      f0      :     0.010643  f :     0.081890
      f+1     :     0.006066
      f-1     :     0.006303
      f+2     :     0.012004
      f-2     :     0.006725
      f+3     :     0.015127
      f-3     :     0.025022
  3 H s       :     0.816327  s :     0.816327
      pz      :     0.037879  p :     0.073005
      px      :     0.019421
      py      :     0.015705
  4 H s       :     0.818915  s :     0.818915
      pz      :     0.037225  p :     0.075077
      px      :     0.021720
      py      :     0.016132
  5 H s       :     0.824408  s :     0.824408
      pz      :     0.032697  p :     0.064554
      px      :     0.019448
      py      :     0.012409
  6 H s       :     0.817646  s :     0.817646
      pz      :     0.029129  p :     0.052748
      px      :     0.014733
      py      :     0.008887


                      *****************************
                      * MAYER POPULATION ANALYSIS *
                      *****************************

  NA   - Mulliken gross atomic population
  ZA   - Total nuclear charge
  QA   - Mulliken gross atomic charge
  VA   - Mayer's total valence
  BVA  - Mayer's bonded valence
  FA   - Mayer's free valence

  ATOM       NA         ZA         QA         VA         BVA        FA
  0 O      8.3402     8.0000    -0.3402     1.9534     1.9534    -0.0000
  1 C      6.0993     6.0000    -0.0993     3.9872     3.9872     0.0000
  2 C      6.0382     6.0000    -0.0382     4.0041     4.0041     0.0000
  3 H      0.8708     1.0000     0.1292     0.9684     0.9684     0.0000
  4 H      0.8659     1.0000     0.1341     0.9699     0.9699     0.0000
  5 H      0.8904     1.0000     0.1096     0.9553     0.9553     0.0000
  6 H      0.8951     1.0000     0.1049     0.9624     0.9624    -0.0000

  Mayer bond orders larger than 0.100000
B(  0-O ,  1-C ) :   0.9397 B(  0-O ,  2-C ) :   1.0100 B(  1-C ,  2-C ) :   1.0897 
B(  1-C ,  3-H ) :   0.9658 B(  1-C ,  4-H ) :   0.9646 B(  2-C ,  5-H ) :   0.9493 
B(  2-C ,  6-H ) :   0.9483 

-------
TIMINGS
-------

Total SCF time: 0 days 0 hours 0 min 1 sec 

Total time                  ....       1.019 sec
Sum of individual times     ....       0.913 sec  ( 89.6%)

Fock matrix formation       ....       0.705 sec  ( 69.2%)
  Split-RI-J                ....       0.114 sec  ( 16.2% of F)
  Chain of spheres X        ....       0.518 sec  ( 73.5% of F)
  XC integration            ....       0.064 sec  (  9.1% of F)
    Basis function eval.    ....       0.018 sec  ( 28.3% of XC)
    Density eval.           ....       0.014 sec  ( 21.9% of XC)
    XC-Functional eval.     ....       0.004 sec  (  6.0% of XC)
    XC-Potential eval.      ....       0.021 sec  ( 32.8% of XC)
Diagonalization             ....       0.002 sec  (  0.2%)
Density matrix formation    ....       0.000 sec  (  0.0%)
Population analysis         ....       0.003 sec  (  0.2%)
Initial guess               ....       0.009 sec  (  0.9%)
Orbital Transformation      ....       0.000 sec  (  0.0%)
Orbital Orthonormalization  ....       0.001 sec  (  0.1%)
DIIS solution               ....       0.001 sec  (  0.1%)
SOSCF solution              ....       0.002 sec  (  0.2%)
Grid generation             ....       0.190 sec  ( 18.7%)

Maximum memory used throughout the entire SCF-calculation: 61.1 MB


           ************************************************************
           *        Program running with 8 parallel MPI-processes     *
           *              working on a common directory               *
           ************************************************************
------------------------------------------------------------------------------
                        ORCA TD-DFT/TDA CALCULATION
------------------------------------------------------------------------------

Input orbitals are from        ... ox_es1_A_orca0047.gbw
CI-vector output               ... ox_es1_A_orca0047.cis
Tamm-Dancoff approximation     ... operative
CIS-Integral strategy          ... AO-integrals
Integral handling              ... AO integral Direct
Max. core memory used          ... 3000 MB
Reference state                ... RHF
Generation of triplets         ... off
Follow IRoot                   ... off
Number of operators            ... 1
Orbital ranges used for CIS calculation:
 Operator 0:  Orbitals   3... 11  to  12...116
XAS localization array:
 Operator 0:  Orbitals  -1... -1

-------------------
XC-INTEGRATION GRID
-------------------

General Integration Accuracy     IntAcc      ... 3.467
Radial Grid Type                 RadialGrid  ... OptM3 with GC (2021)
Angular Grid (max. ang.)         AngularGrid ... 1 (Lebedev-50)
Angular grid pruning method      GridPruning ... 4 (adaptive)
Weight generation scheme         WeightScheme... Becke
Basis function cutoff            BFCut       ... 1.0000e-11
Integration weight cutoff        WCut        ... 1.0000e-14
Angular grids for H and He will be reduced by one unit
Partially contracted basis set               ... off
Rotationally invariant grid construction     ... off

Total number of grid points                  ...     4539
Total number of batches                      ...       75
Average number of points per batch           ...       60
Average number of grid points per atom       ...      648

---------------------
COSX-INTEGRATION GRID
---------------------

General Integration Accuracy     IntAcc      ... 3.067
Radial Grid Type                 RadialGrid  ... OptM3 with GC (2021)
Angular Grid (max. ang.)         AngularGrid ... 1 (Lebedev-50)
Angular grid pruning method      GridPruning ... 4 (adaptive)
Weight generation scheme         WeightScheme... Becke
Basis function cutoff            BFCut       ... 1.0000e-11
Integration weight cutoff        WCut        ... 1.0000e-14
Angular grids for H and He will be reduced by one unit
Partially contracted basis set               ... on
Rotationally invariant grid construction     ... off

Total number of grid points                  ...     2085
Total number of batches                      ...       38
Average number of points per batch           ...       54
Average number of grid points per atom       ...      298

---------------
TD-DFT XC SETUP
---------------

DFT calculation                         ... on
Name of the grid file                   ... ox_es1_A_orca0047.grid_cis.tmp
Exchange functional (TD-DFT)            ... PBE
   PBE kappa parameter  XKappa (TD-DFT) ...  0.804000
   PBE mue parameter   XMuePBE (TD-DFT) ...  0.219520
Correlation functional (TD-DFT)         ... PBE
   PBE beta parameter CBetaPBE (TD-DFT) ...  0.066725
 LDA part of GGA corr.  LDAOpt (TD-DFT) ... PW91-LDA
Hybrid DFT                              ... on
   Exchange mixing (TD-DFT)             ...  0.250
   GGA exch. scaling (TD-DFT)           ...  0.750
   GGA corr. scaling (TD-DFT)           ...  1.000

Building densities             ... done
Calculating rho(r) on the grid ... done
Building xc-kernel on the grid ... done
                    *** TD-DFT CALCULATION INITIALIZED ***

------------------------
DAVIDSON-DIAGONALIZATION
------------------------

Dimension of the eigenvalue problem            ...    945
Number of roots to be determined               ...      1
Maximum size of the expansion space            ...     10
Maximum number of iterations                   ...    100
Convergence tolerance for the residual         ...    2.500e-07
Convergence tolerance for the energies         ...    2.500e-07
Orthogonality tolerance                        ...    1.000e-14
Level Shift                                    ...    0.000e+00
Constructing the preconditioner                ... o.k.
Building the initial guess                     ... o.k.
Number of trial vectors determined             ...     10


                       ****Iteration    0****

   Memory handling for direct AO based CIS:
   Memory per vector needed      ...     1 MB
   Memory needed                 ...     1 MB
   Memory available              ...  3000 MB
   Number of vectors per batch   ...  3000
   Number of batches             ...     1
   Time for densities:            0.000
   Time for RI-J (Direct):        0.015
   Time for K (COSX):             0.055
   Time for XC-Integration:       0.016
   Time for Sigma-Completion:     0.000
   Size of expansion space: 3
   Lowest Energy          :     0.268991309308
   Maximum Energy change  :     0.268991309308 (vector 0)
   Maximum residual norm  :     0.003958766784

                       ****Iteration    1****
   Time for densities:            0.000
   Time for RI-J (Direct):        0.012
   Time for K (COSX):             0.049
   Time for XC-Integration:       0.007
   Time for Sigma-Completion:     0.000
   Size of expansion space: 4
   Lowest Energy          :     0.265339420105
   Maximum Energy change  :     0.003651889202 (vector 0)
   Maximum residual norm  :     0.000364822706

                       ****Iteration    2****
   Time for densities:            0.000
   Time for RI-J (Direct):        0.012
   Time for K (COSX):             0.049
   Time for XC-Integration:       0.007
   Time for Sigma-Completion:     0.000
   Size of expansion space: 5
   Lowest Energy          :     0.264976866370
   Maximum Energy change  :     0.000362553736 (vector 0)
   Maximum residual norm  :     0.000119256533

                       ****Iteration    3****
   Time for densities:            0.000
   Time for RI-J (Direct):        0.012
   Time for K (COSX):             0.049
   Time for XC-Integration:       0.007
   Time for Sigma-Completion:     0.000
   Size of expansion space: 6
   Lowest Energy          :     0.264862981496
   Maximum Energy change  :     0.000113884874 (vector 0)
   Maximum residual norm  :     0.000009828476

                       ****Iteration    4****
   Time for densities:            0.000
   Time for RI-J (Direct):        0.012
   Time for K (COSX):             0.049
   Time for XC-Integration:       0.007
   Time for Sigma-Completion:     0.000
   Size of expansion space: 7
   Lowest Energy          :     0.264836561309
   Maximum Energy change  :     0.000026420187 (vector 0)
   Maximum residual norm  :     0.000003146522

                       ****Iteration    5****
   Time for densities:            0.000
   Time for RI-J (Direct):        0.012
   Time for K (COSX):             0.049
   Time for XC-Integration:       0.007
   Time for Sigma-Completion:     0.000
   Size of expansion space: 8
   Lowest Energy          :     0.264833478664
   Maximum Energy change  :     0.000003082644 (vector 0)
   Maximum residual norm  :     0.000000347504

                       ****Iteration    6****
   Time for densities:            0.000
   Time for RI-J (Direct):        0.012
   Time for K (COSX):             0.049
   Time for XC-Integration:       0.007
   Time for Sigma-Completion:     0.000
   Size of expansion space: 9
   Lowest Energy          :     0.264833058209
   Maximum Energy change  :     0.000000420455 (vector 0)
   Maximum residual norm  :     0.000000028216

      *** CONVERGENCE OF RESIDUAL NORM REACHED ***

Storing the converged CI vectors               ... ox_es1_A_orca0047.cis1

                 *** DAVIDSON DONE ***

Total time for solving the CIS problem:     0.503sec

------------------------------------
TD-DFT/TDA EXCITED STATES (SINGLETS)
------------------------------------

the weight of the individual excitations are printed if larger than 1.0e-02

STATE  1:  E=   0.264833 au      7.206 eV    58124.1 cm**-1 <S**2> =   0.000000
    11a ->  12a  :     0.970127 (c=  0.98495005)
    11a ->  16a  :     0.011824 (c= -0.10873785)


-----------------------------
TD-DFT/TDA-EXCITATION SPECTRA
-----------------------------

Center of mass = (  0.0240, -0.1309, -0.0090)
Calculating the Dipole integrals                  ... done
Transforming integrals                            ... done
Calculating the Linear Momentum integrals         ... done
Transforming integrals                            ... done
Calculating angular momentum integrals            ... done
Transforming integrals                            ... done

-----------------------------------------------------------------------------
         ABSORPTION SPECTRUM VIA TRANSITION ELECTRIC DIPOLE MOMENTS
-----------------------------------------------------------------------------
State   Energy    Wavelength  fosc         T2        TX        TY        TZ  
        (cm-1)      (nm)                 (au**2)    (au)      (au)      (au) 
-----------------------------------------------------------------------------
   1   58124.1    172.0   0.002343125   0.01327  -0.00342   0.00013  -0.11515

-----------------------------------------------------------------------------
         ABSORPTION SPECTRUM VIA TRANSITION VELOCITY DIPOLE MOMENTS
-----------------------------------------------------------------------------
State   Energy    Wavelength   fosc        P2         PX        PY        PZ  
        (cm-1)      (nm)                 (au**2)     (au)      (au)      (au) 
-----------------------------------------------------------------------------
   1   58124.1    172.0   0.017540574   0.00697   0.00043  -0.00250   0.08344

-------------------------------------------------------------------
                             CD SPECTRUM
-------------------------------------------------------------------
State  Energy     Wavelength     R         MX        MY        MZ   
       (cm-1)       (nm)     (1e40*cgs)   (au)      (au)      (au)  
-------------------------------------------------------------------
   1   58124.1    172.0     -0.04317  -0.21529  -0.15507   0.00701

-------------------------------------------------------------------
         CD SPECTRUM VIA TRANSITION VELOCITY DIPOLE MOMENTS        
-------------------------------------------------------------------
State  Energy     Wavelength     R         MX        MY        MZ   
       (cm-1)       (nm)     (1e40*cgs)   (au)      (au)      (au)  
-------------------------------------------------------------------
   1   58124.1    172.0      1.56721  -0.21529  -0.15507   0.00701

Total run time:        0.768 sec

           *** ORCA-CIS/TD-DFT FINISHED WITHOUT ERROR ***

Maximum memory used throughout the entire CIS-calculation: 49.4 MB

-----------------------
CIS/TD-DFT TOTAL ENERGY
-----------------------

    E(SCF)  =   -153.655688128 Eh
    DE(CIS) =      0.264833058 Eh (Root  1)
    ----------------------------- ---------
    E(tot)  =   -153.390855070 Eh



-------------------------------------------------------------------------------
                          DFT DISPERSION CORRECTION                            
                                                                               
                              DFTD3 V3.1  Rev 1                                
                          USING Becke-Johnson damping                          
-------------------------------------------------------------------------------
The PBE0 functional is recognized
Active option DFTDOPT                   ...         4   

molecular C6(AA) [au] = 350.816376 


            DFT-D V3
 parameters
 s6 scaling factor         :     1.0000 
 a1 scaling factor         :     0.4145 
 s8 scaling factor         :     1.2177 
 a2 scaling factor         :     4.8593 
 ad hoc parameters k1-k3   :    16.0000     1.3333    -4.0000 

 Edisp/kcal,au: -1.518055356981  -0.002419174941 
 E6   /kcal   :  -0.996143282 
 E8   /kcal   :  -0.521912075 
 % E8         :  34.380305841 

-------------------------   ----------------
Dispersion correction           -0.002419175
-------------------------   ----------------


-------------------------   --------------------
FINAL SINGLE POINT ENERGY      -153.393274244759
-------------------------   --------------------



           ************************************************************
           *        Program running with 8 parallel MPI-processes     *
           *              working on a common directory               *
           ************************************************************
------------------------------------------------------------------------------
                         ORCA SCF GRADIENT CALCULATION
------------------------------------------------------------------------------


------------------------
TD-DFT GRADIENT XC SETUP
------------------------

Building densities                     ... done
Calculating rho(r) on the grid         ... done
Building xc-kernel on the grid         ... done
Building xc 3rd derivative on the grid      ... done
                *** TD-DFT GRADIENT CALCULATION INITIALIZED ***

-------------------
TD-DFT/TDA GRADIENT
-------------------

Reference wavefunction             ... RHF
State of interest                  ... 1
Basis dimension                    ... 117
DFT-XC contribution needed         ... YES
RI-approximation                   ... ON
CIS-vectors being read from        ... ox_es1_A_orca0047.cis

 => Number of Vectors found: 1
 => Orbital Window: 3...11 -> 12...116

Reading the CIS file                     ... done
Norm of the CI vector                    ... 1.000000000
Making the CIS (pseudo)densities         ... done
Making operators G(D) and Q(T)           ... done
Transforming the Fock operators          ... done
Making the frozen-core relaxed density   ... done
Constructing the G(H) operator           ... done
Transforming the G(H) operator           ... done
Calculating the CIS Lagrangian           ... done
Solving the Z-vector equations           ... done
Finalizing the relaxed density           ... done
Storing the relaxed density              ... done
Constructing the G(Z) operator           ... done
Transforming the G(Z) operator           ... done
Making the W-matrix                      ... done
Finalizing the W-matrix                  ... done
Transforming the W-matrix                ... done
Nuclear repulsion gradient               ... done
One-Electron gradient                    ... done
Dispersion correction                    ... done
Prescreening matrices                    ... done
COSX-gradient                            ... done
Coulomb gradient (RI)                    ... done
Exchange-Correlation gradient            ... done

                 ---------------------------
                 EXCITED STATE GRADIENT DONE
                 ---------------------------

------------------
CARTESIAN GRADIENT
------------------

   1   O   :   -0.094581002   -0.141601205    0.001563474
   2   C   :    0.033827766    0.152131864   -0.013744917
   3   C   :   -0.006939122   -0.008220240   -0.034801435
   4   H   :    0.032425574    0.000408449   -0.046755525
   5   H   :    0.035800579    0.000883666    0.055538763
   6   H   :   -0.013143990   -0.001773434    0.016458059
   7   H   :    0.012577214   -0.001868421    0.021719979

Difference to translation invariance:
           :   -0.0000329805   -0.0000393218   -0.0000216020

Difference to rotation invariance:
           :    0.0000858901    0.0000038751   -0.0002667033

Norm of the cartesian gradient     ...    0.2519682761
RMS gradient                       ...    0.0549839856
MAX gradient                       ...    0.1521318639

------------------------------------------------------------------------------
                  RELAXED CIS/TDA DENSITY POPULATION ANALYSIS
                                   IROOT 1
------------------------------------------------------------------------------
------------------------------------------------------------------------------
                           ORCA POPULATION ANALYSIS
------------------------------------------------------------------------------
Input electron density              ... ox_es1_A_orca0047.cisp
BaseName (.gbw .S,...)              ... ox_es1_A_orca0047

                    ********************************
                    * MULLIKEN POPULATION ANALYSIS *
                    ********************************

-----------------------
MULLIKEN ATOMIC CHARGES
-----------------------
   0 O :    0.136125
   1 C :   -0.681105
   2 C :   -0.122468
   3 H :    0.168018
   4 H :    0.170564
   5 H :    0.163240
   6 H :    0.165625
Sum of atomic charges:    0.0000000

--------------------------------
MULLIKEN REDUCED ORBITAL CHARGES
--------------------------------
  0 O s       :     3.729485  s :     3.729485
      pz      :     1.086211  p :     4.097878
      px      :     1.564271
      py      :     1.447396
      dz2     :     0.003407  d :     0.035106
      dxz     :     0.002888
      dyz     :     0.006409
      dx2y2   :     0.010351
      dxy     :     0.012051
      f0      :     0.000088  f :     0.001406
      f+1     :    -0.000034
      f-1     :     0.000141
      f+2     :     0.000097
      f-2     :     0.000206
      f+3     :     0.000360
      f-3     :     0.000548
  1 C s       :     3.285756  s :     3.285756
      pz      :     1.091046  p :     3.300472
      px      :     0.877521
      py      :     1.331905
      dz2     :     0.009554  d :     0.085205
      dxz     :     0.014668
      dyz     :     0.004584
      dx2y2   :     0.036573
      dxy     :     0.019827
      f0      :     0.001080  f :     0.009672
      f+1     :     0.001248
      f-1     :     0.000699
      f+2     :     0.001014
      f-2     :     0.000643
      f+3     :     0.002681
      f-3     :     0.002307
  2 C s       :     3.217300  s :     3.217300
      pz      :     1.038773  p :     2.798126
      px      :     0.980204
      py      :     0.779149
      dz2     :     0.007476  d :     0.096227
      dxz     :     0.025556
      dyz     :     0.012169
      dx2y2   :     0.030706
      dxy     :     0.020321
      f0      :     0.001027  f :     0.010816
      f+1     :     0.001502
      f-1     :     0.000518
      f+2     :     0.001146
      f-2     :     0.000962
      f+3     :     0.002513
      f-3     :     0.003148
  3 H s       :     0.804341  s :     0.804341
      pz      :     0.011508  p :     0.027641
      px      :     0.006468
      py      :     0.009665
  4 H s       :     0.801487  s :     0.801487
      pz      :     0.010880  p :     0.027948
      px      :     0.007196
      py      :     0.009872
  5 H s       :     0.814012  s :     0.814012
      pz      :     0.011054  p :     0.022747
      px      :     0.007770
      py      :     0.003923
  6 H s       :     0.814089  s :     0.814089
      pz      :     0.010971  p :     0.020286
      px      :     0.006392
      py      :     0.002922


                     *******************************
                     * LOEWDIN POPULATION ANALYSIS *
                     *******************************

----------------------
LOEWDIN ATOMIC CHARGES
----------------------
   0 O :    0.369253
   1 C :   -0.571075
   2 C :   -0.330208
   3 H :    0.114653
   4 H :    0.109648
   5 H :    0.140983
   6 H :    0.166745

-------------------------------
LOEWDIN REDUCED ORBITAL CHARGES
-------------------------------
  0 O s       :     3.478632  s :     3.478632
      pz      :     1.035175  p :     4.049481
      px      :     1.519989
      py      :     1.494318
      dz2     :     0.012481  d :     0.096800
      dxz     :     0.007797
      dyz     :     0.014059
      dx2y2   :     0.032902
      dxy     :     0.029560
      f0      :     0.000598  f :     0.005834
      f+1     :     0.000102
      f-1     :     0.000734
      f+2     :     0.000204
      f-2     :     0.000863
      f+3     :     0.001104
      f-3     :     0.002229
  1 C s       :     2.805943  s :     2.805943
      pz      :     1.053683  p :     3.171741
      px      :     1.033298
      py      :     1.084760
      dz2     :     0.092755  d :     0.520470
      dxz     :     0.113487
      dyz     :     0.021821
      dx2y2   :     0.152583
      dxy     :     0.139824
      f0      :     0.007615  f :     0.072921
      f+1     :     0.006166
      f-1     :     0.008403
      f+2     :     0.005948
      f-2     :     0.002545
      f+3     :     0.024128
      f-3     :     0.018117
  2 C s       :     2.817150  s :     2.817150
      pz      :     1.012553  p :     2.956179
      px      :     1.094108
      py      :     0.849518
      dz2     :     0.067876  d :     0.475875
      dxz     :     0.135606
      dyz     :     0.039416
      dx2y2   :     0.125052
      dxy     :     0.107925
      f0      :     0.007664  f :     0.081004
      f+1     :     0.006384
      f-1     :     0.006794
      f+2     :     0.008131
      f-2     :     0.004373
      f+3     :     0.023250
      f-3     :     0.024409
  3 H s       :     0.801872  s :     0.801872
      pz      :     0.037055  p :     0.083475
      px      :     0.019384
      py      :     0.027036
  4 H s       :     0.804541  s :     0.804541
      pz      :     0.036171  p :     0.085812
      px      :     0.021681
      py      :     0.027960
  5 H s       :     0.791934  s :     0.791934
      pz      :     0.034096  p :     0.067083
      px      :     0.021314
      py      :     0.011673
  6 H s       :     0.778220  s :     0.778220
      pz      :     0.030763  p :     0.055035
      px      :     0.016125
      py      :     0.008147


                      *****************************
                      * MAYER POPULATION ANALYSIS *
                      *****************************

  NA   - Mulliken gross atomic population
  ZA   - Total nuclear charge
  QA   - Mulliken gross atomic charge
  VA   - Mayer's total valence
  BVA  - Mayer's bonded valence
  FA   - Mayer's free valence

  ATOM       NA         ZA         QA         VA         BVA        FA
  0 O      7.8639     8.0000     0.1361     1.7285     1.0169     0.7116
  1 C      6.6811     6.0000    -0.6811     4.1130     3.2090     0.9040
  2 C      6.1225     6.0000    -0.1225     3.9667     3.8059     0.1607
  3 H      0.8320     1.0000     0.1680     0.9726     0.9557     0.0169
  4 H      0.8294     1.0000     0.1706     0.9735     0.9568     0.0167
  5 H      0.8368     1.0000     0.1632     0.9655     0.9359     0.0296
  6 H      0.8344     1.0000     0.1656     0.9638     0.9208     0.0430

  Mayer bond orders larger than 0.100000
B(  0-O ,  1-C ) :   0.1616 B(  0-O ,  2-C ) :   0.8770 B(  1-C ,  2-C ) :   1.1123 
B(  1-C ,  3-H ) :   0.9577 B(  1-C ,  4-H ) :   0.9572 B(  2-C ,  5-H ) :   0.9180 
B(  2-C ,  6-H ) :   0.8973 


-------
TIMINGS
-------

Total TD-DFT gradient time         ...        5.346 sec

Fock matrix formation       ....       0.851 sec  ( 15.9%)
  Coulomb formation         ....       0.690 sec  ( 81.1% of F)
  RI-J                      ....       0.297 sec  ( 34.9% of F)
  Chain of spheres X        ....       0.393 sec  ( 46.1% of F)
  XC integration            ....       0.161 sec  ( 18.9% of F)
Z-vector equation           ....       1.252 sec  ( 23.4%)
One electron gradient       ....       0.033 sec  (  0.6%)
Prescreening matrices       ....       0.159 sec  (  3.0%)
RI-J Coulomb gradient       ....       0.288 sec  (  5.4%)
COSX gradient               ....       0.348 sec  (  6.5%)
XC gradient                 ....       2.114 sec  ( 39.5%)

Maximum memory used throughout the entire SCFGRAD-calculation: 130.3 MB

                            ***************************************
                            *     ORCA property calculations      *
                            ***************************************

                                    ---------------------
                                    Active property flags
                                    ---------------------
   (+) Dipole Moment


------------------------------------------------------------------------------
                       ORCA ELECTRIC PROPERTIES CALCULATION
------------------------------------------------------------------------------

Dipole Moment Calculation                       ... on
Quadrupole Moment Calculation                   ... off
Polarizability Calculation                      ... off
GBWName                                         ... ox_es1_A_orca0047.gbw
Electron density                                ... ox_es1_A_orca0047.scfp
The origin for moment calculation is the CENTER OF MASS  = ( 0.024010, -0.130915 -0.009040)

-------------
DIPOLE MOMENT
-------------
                                X             Y             Z
Electronic contribution:     -0.15791       1.33963      -0.11905
Nuclear contribution   :      0.08522      -2.12829       0.09717
                        -----------------------------------------
Total Dipole Moment    :     -0.07269      -0.78866      -0.02188
                        -----------------------------------------
Magnitude (a.u.)       :      0.79231
Magnitude (Debye)      :      2.01389



--------------------
Rotational spectrum 
--------------------
 
Rotational constants in cm-1:     0.847805     0.763889     0.476147 
Rotational constants in MHz : 25416.541041 22900.814809 14274.518174 

 Dipole components along the rotational axes: 
x,y,z [a.u.] :    -0.464306     0.641869    -0.013268 
x,y,z [Debye]:    -1.180171     1.631502    -0.033723 

 

                        *** CIS RELAXED DENSITY ***

------------------------------------------------------------------------------
                       ORCA ELECTRIC PROPERTIES CALCULATION
------------------------------------------------------------------------------

Dipole Moment Calculation                       ... on
Quadrupole Moment Calculation                   ... off
Polarizability Calculation                      ... off
GBWName                                         ... ox_es1_A_orca0047.gbw
Electron density                                ... ox_es1_A_orca0047.cisp
The origin for moment calculation is the CENTER OF MASS  = ( 0.024010, -0.130915 -0.009040)

-------------
DIPOLE MOMENT
-------------
                                X             Y             Z
Electronic contribution:      0.65095       2.15806      -0.09351
Nuclear contribution   :      0.08522      -2.12829       0.09717
                        -----------------------------------------
Total Dipole Moment    :      0.73618       0.02977       0.00366
                        -----------------------------------------
Magnitude (a.u.)       :      0.73679
Magnitude (Debye)      :      1.87276



--------------------
Rotational spectrum 
--------------------
 
Rotational constants in cm-1:     0.847805     0.763889     0.476147 
Rotational constants in MHz : 25416.541041 22900.814809 14274.518174 

 Dipole components along the rotational axes: 
x,y,z [a.u.] :     0.648784     0.349183    -0.002420 
x,y,z [Debye]:     1.649078     0.887553    -0.006151 

 

Timings for individual modules:

Sum of individual times         ...        8.215 sec (=   0.137 min)
GTO integral calculation        ...        0.434 sec (=   0.007 min)   5.3 %
SCF iterations                  ...        1.215 sec (=   0.020 min)  14.8 %
CIS module                      ...        1.015 sec (=   0.017 min)  12.4 %
SCF Gradient evaluation         ...        5.551 sec (=   0.093 min)  67.6 %
                             ****ORCA TERMINATED NORMALLY****
TOTAL RUN TIME: 0 days 0 hours 0 minutes 8 seconds 596 msec
