
                                 *****************
                                 * O   R   C   A *
                                 *****************

                                            #,                                       
                                            ###                                      
                                            ####                                     
                                            #####                                    
                                            ######                                   
                                           ########,                                 
                                     ,,################,,,,,                         
                               ,,#################################,,                 
                          ,,##########################################,,             
                       ,#########################################, ''#####,          
                    ,#############################################,,   '####,        
                  ,##################################################,,,,####,       
                ,###########''''           ''''###############################       
              ,#####''   ,,,,##########,,,,          '''####'''          '####       
            ,##' ,,,,###########################,,,                        '##       
           ' ,,###''''                  '''############,,,                           
         ,,##''                                '''############,,,,        ,,,,,,###''
      ,#''                                            '''#######################'''  
     '                                                          ''''####''''         
             ,#######,   #######,   ,#######,      ##                                
            ,#'     '#,  ##    ##  ,#'     '#,    #''#        ######   ,####,        
            ##       ##  ##   ,#'  ##            #'  '#       #        #'  '#        
            ##       ##  #######   ##           ,######,      #####,   #    #        
            '#,     ,#'  ##    ##  '#,     ,#' ,#      #,         ##   #,  ,#        
             '#######'   ##     ##  '#######'  #'      '#     #####' # '####'        



                  #######################################################
                  #                        -***-                        #
                  #          Department of theory and spectroscopy      #
                  #    Directorship and core code : Frank Neese         #
                  #        Max Planck Institute fuer Kohlenforschung    #
                  #                Kaiser Wilhelm Platz 1               #
                  #                 D-45470 Muelheim/Ruhr               #
                  #                      Germany                        #
                  #                                                     #
                  #                  All rights reserved                #
                  #                        -***-                        #
                  #######################################################


                         Program Version 5.0.2 -  RELEASE  -


 With contributions from (in alphabetic order):
   Daniel Aravena         : Magnetic Suceptibility
   Michael Atanasov       : Ab Initio Ligand Field Theory (pilot matlab implementation)
   Alexander A. Auer      : GIAO ZORA, VPT2 properties, NMR spectrum
   Ute Becker             : Parallelization
   Giovanni Bistoni       : ED, misc. LED, open-shell LED, HFLD
   Martin Brehm           : Molecular dynamics
   Dmytro Bykov           : SCF Hessian
   Vijay G. Chilkuri      : MRCI spin determinant printing, contributions to CSF-ICE
   Dipayan Datta          : RHF DLPNO-CCSD density
   Achintya Kumar Dutta   : EOM-CC, STEOM-CC
   Dmitry Ganyushin       : Spin-Orbit,Spin-Spin,Magnetic field MRCI
   Miquel Garcia          : C-PCM and meta-GGA Hessian, CC/C-PCM, Gaussian charge scheme
   Yang Guo               : DLPNO-NEVPT2, F12-NEVPT2, CIM, IAO-localization
   Andreas Hansen         : Spin unrestricted coupled pair/coupled cluster methods
   Benjamin Helmich-Paris : MC-RPA, TRAH-SCF, COSX integrals
   Lee Huntington         : MR-EOM, pCC
   Robert Izsak           : Overlap fitted RIJCOSX, COSX-SCS-MP3, EOM
   Marcus Kettner         : VPT2
   Christian Kollmar      : KDIIS, OOCD, Brueckner-CCSD(T), CCSD density, CASPT2, CASPT2-K
   Simone Kossmann        : Meta GGA functionals, TD-DFT gradient, OOMP2, MP2 Hessian
   Martin Krupicka        : Initial AUTO-CI
   Lucas Lang             : DCDCAS
   Marvin Lechner         : AUTO-CI (C++ implementation), FIC-MRCC
   Dagmar Lenk            : GEPOL surface, SMD
   Dimitrios Liakos       : Extrapolation schemes; Compound Job, initial MDCI parallelization
   Dimitrios Manganas     : Further ROCIS development; embedding schemes
   Dimitrios Pantazis     : SARC Basis sets
   Anastasios Papadopoulos: AUTO-CI, single reference methods and gradients
   Taras Petrenko         : DFT Hessian,TD-DFT gradient, ASA, ECA, R-Raman, ABS, FL, XAS/XES, NRVS
   Peter Pinski           : DLPNO-MP2, DLPNO-MP2 Gradient
   Christoph Reimann      : Effective Core Potentials
   Marius Retegan         : Local ZFS, SOC
   Christoph Riplinger    : Optimizer, TS searches, QM/MM, DLPNO-CCSD(T), (RO)-DLPNO pert. Triples
   Tobias Risthaus        : Range-separated hybrids, TD-DFT gradient, RPA, STAB
   Michael Roemelt        : Original ROCIS implementation
   Masaaki Saitow         : Open-shell DLPNO-CCSD energy and density
   Barbara Sandhoefer     : DKH picture change effects
   Avijit Sen             : IP-ROCIS
   Kantharuban Sivalingam : CASSCF convergence, NEVPT2, FIC-MRCI
   Bernardo de Souza      : ESD, SOC TD-DFT
   Georgi Stoychev        : AutoAux, RI-MP2 NMR, DLPNO-MP2 response
   Willem Van den Heuvel  : Paramagnetic NMR
   Boris Wezisla          : Elementary symmetry handling
   Frank Wennmohs         : Technical directorship


 We gratefully acknowledge several colleagues who have allowed us to
 interface, adapt or use parts of their codes:
   Stefan Grimme, W. Hujo, H. Kruse, P. Pracht,  : VdW corrections, initial TS optimization,
                  C. Bannwarth, S. Ehlert          DFT functionals, gCP, sTDA/sTD-DF
   Ed Valeev, F. Pavosevic, A. Kumar             : LibInt (2-el integral package), F12 methods
   Garnet Chan, S. Sharma, J. Yang, R. Olivares  : DMRG
   Ulf Ekstrom                                   : XCFun DFT Library
   Mihaly Kallay                                 : mrcc  (arbitrary order and MRCC methods)
   Jiri Pittner, Ondrej Demel                    : Mk-CCSD
   Frank Weinhold                                : gennbo (NPA and NBO analysis)
   Christopher J. Cramer and Donald G. Truhlar   : smd solvation model
   Lars Goerigk                                  : TD-DFT with DH, B97 family of functionals
   V. Asgeirsson, H. Jonsson                     : NEB implementation
   FAccTs GmbH                                   : IRC, NEB, NEB-TS, DLPNO-Multilevel, CI-OPT
                                                   MM, QMMM, 2- and 3-layer-ONIOM, Crystal-QMMM,
                                                   LR-CPCM, SF, NACMEs, symmetry and pop. for TD-DFT,
                                                   nearIR, NL-DFT gradient (VV10), updates on ESD,
                                                   ML-optimized integration grids
   S Lehtola, MJT Oliveira, MAL Marques          : LibXC Library
   Liviu Ungur et al                             : ANISO software


 Your calculation uses the libint2 library for the computation of 2-el integrals
 For citations please refer to: http://libint.valeyev.net

 Your ORCA version has been built with support for libXC version: 5.1.0
 For citations please refer to: https://tddft.org/programs/libxc/

 This ORCA versions uses:
   CBLAS   interface :  Fast vector & matrix operations
   LAPACKE interface :  Fast linear algebra routines
   SCALAPACK package :  Parallel linear algebra routines
   Shared memory     :  Shared parallel matrices
   BLAS/LAPACK       :  OpenBLAS 0.3.15  USE64BITINT DYNAMIC_ARCH NO_AFFINITY SkylakeX SINGLE_THREADED
        Core in use  :  SkylakeX
   Copyright (c) 2011-2014, The OpenBLAS Project


Your calculation utilizes the atom-pairwise dispersion correction
with the Becke-Johnson damping scheme (D3BJ)
Cite in your paper:
S.Grimme, S.Ehrlich, L.Goerigk, J Comput Chem, (2011), 32, 1456–1465 
S.Grimme, J.Antony, S.Ehrlich and H.Krieg, J.Chem.Phys., 132, (2010), 154104 
   

================================================================================

----- Orbital basis set information -----
Your calculation utilizes the basis: def2-TZVP
   F. Weigend and R. Ahlrichs, Phys. Chem. Chem. Phys. 7, 3297 (2005).

----- AuxJ basis set information -----
Your calculation utilizes the auxiliary basis: def2/J
   F. Weigend, Phys. Chem. Chem. Phys. 8, 1057 (2006).

================================================================================
                                        WARNINGS
                       Please study these warnings very carefully!
================================================================================

INFO   : Checking CIS options ...

WARNING: CIS/ROCIS methods need fully converged wavefunctions
  ===> : Setting SCFConvForced true
         You can overwrite this default with %scf ConvForced false 


INFO   : the flag for use of the SHARK integral package has been found!

================================================================================
                                       INPUT FILE
================================================================================
NAME = ox_es1_A_orca0008.inp
|  1> ! engrad PBE0 D3BJ def2-TZVP  
|  2> %pal nprocs 8 end
|  3> %maxcore 3000
|  4> 
|  5> %tddft
|  6>   nroots 1
|  7>   tda true
|  8>   Iroot 1
|  9>   end 
| 10> *xyz 0 1 
| 11> O   -0.012269355800143525 0.7292375017821255 -0.04447561148127617
| 12> C   -0.7696801042482719 -0.4508755754707052 0.017057598740832194
| 13> C   0.7427240799665009 -0.4056613275481988 0.000650094593895351
| 14> H   -1.1911462261421342 -0.6815036516618977 1.055984678329481
| 15> H   -1.2325394026117498 -0.7111287878208141 -0.9735208449030557
| 16> H   1.2879464407621593 -0.6794439992662926 -0.8842761952953954
| 17> H   1.2874847512286773 -0.6719122556328436 0.8776364840965797
| 18> *
| 19> 
| 20>                          ****END OF INPUT****
================================================================================

                     *******************************
                     * Energy+Gradient Calculation *
                     *******************************

---------------------------------
CARTESIAN COORDINATES (ANGSTROEM)
---------------------------------
  O     -0.012269    0.729238   -0.044476
  C     -0.769680   -0.450876    0.017058
  C      0.742724   -0.405661    0.000650
  H     -1.191146   -0.681504    1.055985
  H     -1.232539   -0.711129   -0.973521
  H      1.287946   -0.679444   -0.884276
  H      1.287485   -0.671912    0.877636

----------------------------
CARTESIAN COORDINATES (A.U.)
----------------------------
  NO LB      ZA    FRAG     MASS         X           Y           Z
   0 O     8.0000    0    15.999   -0.023186    1.378059   -0.084047
   1 C     6.0000    0    12.011   -1.454485   -0.852031    0.032234
   2 C     6.0000    0    12.011    1.403545   -0.766589    0.001229
   3 H     1.0000    0     1.008   -2.250940   -1.287855    1.995522
   4 H     1.0000    0     1.008   -2.329162   -1.343839   -1.839688
   5 H     1.0000    0     1.008    2.433866   -1.283963   -1.671040
   6 H     1.0000    0     1.008    2.432994   -1.269730    1.658493

--------------------------------
INTERNAL COORDINATES (ANGSTROEM)
--------------------------------
 O      0   0   0     0.000000000000     0.00000000     0.00000000
 C      1   0   0     1.403611147337     0.00000000     0.00000000
 C      1   2   0     1.363835316383    66.27387580     0.00000000
 H      2   1   3     1.144636395601   114.07207032   101.75283812
 H      2   1   3     1.123928875700   112.22680192   255.18757389
 H      3   1   2     1.074857624331   117.74400634   110.44088984
 H      3   1   2     1.066188948092   121.18926606   252.30307143

---------------------------
INTERNAL COORDINATES (A.U.)
---------------------------
 O      0   0   0     0.000000000000     0.00000000     0.00000000
 C      1   0   0     2.652440666986     0.00000000     0.00000000
 C      1   2   0     2.577275239735    66.27387580     0.00000000
 H      2   1   3     2.163049310605   114.07207032   101.75283812
 H      2   1   3     2.123917769079   112.22680192   255.18757389
 H      3   1   2     2.031186542942   117.74400634   110.44088984
 H      3   1   2     2.014805118907   121.18926606   252.30307143

---------------------
BASIS SET INFORMATION
---------------------
There are 3 groups of distinct atoms

 Group   1 Type O   : 11s6p2d1f contracted to 5s3p2d1f pattern {62111/411/11/1}
 Group   2 Type C   : 11s6p2d1f contracted to 5s3p2d1f pattern {62111/411/11/1}
 Group   3 Type H   : 5s1p contracted to 3s1p pattern {311/1}

Atom   0O    basis set group =>   1
Atom   1C    basis set group =>   2
Atom   2C    basis set group =>   2
Atom   3H    basis set group =>   3
Atom   4H    basis set group =>   3
Atom   5H    basis set group =>   3
Atom   6H    basis set group =>   3
---------------------------------
AUXILIARY/J BASIS SET INFORMATION
---------------------------------
There are 3 groups of distinct atoms

 Group   1 Type O   : 12s5p4d2f1g contracted to 6s4p3d1f1g pattern {711111/2111/211/2/1}
 Group   2 Type C   : 12s5p4d2f1g contracted to 6s4p3d1f1g pattern {711111/2111/211/2/1}
 Group   3 Type H   : 5s2p1d contracted to 3s1p1d pattern {311/2/1}

Atom   0O    basis set group =>   1
Atom   1C    basis set group =>   2
Atom   2C    basis set group =>   2
Atom   3H    basis set group =>   3
Atom   4H    basis set group =>   3
Atom   5H    basis set group =>   3
Atom   6H    basis set group =>   3

Checking for AutoStart:
The File: ox_es1_A_orca0008.gbw exists
Trying to determine its content:
     ... Fine, the file contains calculation information
     ... Fine, the calculation information was read
     ... Fine, the file contains a basis set
     ... Fine, the basis set was read
     ... Fine, the file contains a geometry
     ... Fine, the geometry was read
     ... Fine, the file contains a set of orbitals
     ... Fine, the orbitals can be read
     => possible old guess file was deleted
     => GBW file was renamed to GES file
     => GES file is set as startup file
     => Guess is set to MORead
     ... now leaving AutoStart



           ************************************************************
           *        Program running with 8 parallel MPI-processes     *
           *              working on a common directory               *
           ************************************************************
------------------------------------------------------------------------------
                           ORCA GTO INTEGRAL CALCULATION
                           -- RI-GTO INTEGRALS CHOSEN --
------------------------------------------------------------------------------
------------------------------------------------------------------------------
                   ___                                                        
                  /   \      - P O W E R E D   B Y -                         
                 /     \                                                     
                 |  |  |   _    _      __       _____    __    __             
                 |  |  |  | |  | |    /  \     |  _  \  |  |  /  |          
                  \  \/   | |  | |   /    \    | | | |  |  | /  /          
                 / \  \   | |__| |  /  /\  \   | |_| |  |  |/  /          
                |  |  |   |  __  | /  /__\  \  |    /   |      \           
                |  |  |   | |  | | |   __   |  |    \   |  |\   \          
                \     /   | |  | | |  |  |  |  | |\  \  |  | \   \       
                 \___/    |_|  |_| |__|  |__|  |_| \__\ |__|  \__/        
                                                                              
                      - O R C A' S   B I G   F R I E N D -                    
                                      &                                       
                       - I N T E G R A L  F E E D E R -                       
                                                                              
 v1 FN, 2020, v2 2021                                                         
------------------------------------------------------------------------------


Reading SHARK input file ox_es1_A_orca0008.SHARKINP.tmp ... ok
----------------------
SHARK INTEGRAL PACKAGE
----------------------

Number of atoms                             ...      7
Number of basis functions                   ...    117
Number of shells                            ...     49
Maximum angular momentum                    ...      3
Integral batch strategy                     ... SHARK/LIBINT Hybrid
RI-J (if used) integral strategy            ... SPLIT-RIJ (Revised 2003 algorithm where possible)
Printlevel                                  ...      1
Contraction scheme used                     ... SEGMENTED contraction
Coulomb Range Separation                    ... NOT USED
Exchange Range Separation                   ... NOT USED
Finite Nucleus Model                        ... NOT USED
Auxiliary Coulomb fitting basis             ... AVAILABLE
   # of basis functions in Aux-J            ...    191
   # of shells in Aux-J                     ...     65
   Maximum angular momentum in Aux-J        ...      4
Auxiliary J/K fitting basis                 ... NOT available
Auxiliary Correlation fitting basis         ... NOT available
Auxiliary 'external' fitting basis          ... NOT available
Integral threshold                          ...     2.500000e-11
Primitive cut-off                           ...     2.500000e-12
Primitive pair pre-selection threshold      ...     2.500000e-12

Calculating pre-screening integrals         ... done (  0.0 sec) Dimension = 49
Organizing shell pair data                  ... done (  0.0 sec)
Shell pair information
Total number of shell pairs                 ...      1225
Shell pairs after pre-screening             ...      1221
Total number of primitive shell pairs       ...      3648
Primitive shell pairs kept                  ...      3157
          la=0 lb=0:    374 shell pairs
          la=1 lb=0:    351 shell pairs
          la=1 lb=1:     91 shell pairs
          la=2 lb=0:    162 shell pairs
          la=2 lb=1:     78 shell pairs
          la=2 lb=2:     21 shell pairs
          la=3 lb=0:     81 shell pairs
          la=3 lb=1:     39 shell pairs
          la=3 lb=2:     18 shell pairs
          la=3 lb=3:      6 shell pairs

Calculating one electron integrals          ... done (  0.0 sec)
Calculating RI/J V-Matrix + Cholesky decomp.... done (  0.0 sec)
Calculating Nuclear repulsion               ... done (  0.0 sec) ENN=     75.849038600600 Eh

SHARK setup successfully completed in   0.1 seconds

Maximum memory used throughout the entire GTOINT-calculation: 14.9 MB


           ************************************************************
           *        Program running with 8 parallel MPI-processes     *
           *              working on a common directory               *
           ************************************************************
-------------------------------------------------------------------------------
                                 ORCA SCF
-------------------------------------------------------------------------------

------------
SCF SETTINGS
------------
Hamiltonian:
 Density Functional     Method          .... DFT(GTOs)
 Exchange Functional    Exchange        .... PBE
   PBE kappa parameter   XKappa         ....  0.804000
   PBE mue parameter    XMuePBE         ....  0.219520
 Correlation Functional Correlation     .... PBE
   PBE beta parameter  CBetaPBE         ....  0.066725
 LDA part of GGA corr.  LDAOpt          .... PW91-LDA
 Gradients option       PostSCFGGA      .... off
 Hybrid DFT is turned on
   Fraction HF Exchange ScalHFX         ....  0.250000
   Scaling of DF-GGA-X  ScalDFX         ....  0.750000
   Scaling of DF-GGA-C  ScalDFC         ....  1.000000
   Scaling of DF-LDA-C  ScalLDAC        ....  1.000000
   Perturbative correction              ....  0.000000
   Density functional embedding theory  .... OFF
   NL short-range parameter             ....  6.900000
 RI-approximation to the Coulomb term is turned on
   Number of AuxJ basis functions       .... 191
   RIJ-COSX (HFX calculated with COS-X)).... on


General Settings:
 Integral files         IntName         .... ox_es1_A_orca0008
 Hartree-Fock type      HFTyp           .... RHF
 Total Charge           Charge          ....    0
 Multiplicity           Mult            ....    1
 Number of Electrons    NEL             ....   24
 Basis Dimension        Dim             ....  117
 Nuclear Repulsion      ENuc            ....     75.8490386006 Eh

Convergence Acceleration:
 DIIS                   CNVDIIS         .... on
   Start iteration      DIISMaxIt       ....    12
   Startup error        DIISStart       ....  0.200000
   # of expansion vecs  DIISMaxEq       ....     5
   Bias factor          DIISBfac        ....   1.050
   Max. coefficient     DIISMaxC        ....  10.000
 Trust-Rad. Augm. Hess. CNVTRAH         .... auto
   Auto Start mean grad. ratio tolernc. ....  1.125000
   Auto Start start iteration           ....     1
   Auto Start num. interpolation iter.  ....    10
   Max. Number of Micro iterations      ....    16
   Max. Number of Macro iterations      .... Maxiter - #DIIS iter
   Number of Davidson start vectors     ....     2
   Converg. threshold I  (grad. norm)   ....   1.000e-05
   Converg. threshold II (energy diff.) ....   1.000e-08
   Grad. Scal. Fac. for Micro threshold ....   0.100
   Minimum threshold for Micro iter.    ....   0.010
   NR start threshold (gradient norm)   ....   0.001
   Initial trust radius                 ....   0.400
   Minimum AH scaling param. (alpha)    ....   1.000
   Maximum AH scaling param. (alpha)    .... 1000.000
   Orbital update algorithm             .... Taylor
   White noise on init. David. guess    .... on
   Maximum white noise                  ....   0.010
   Quad. conv. algorithm                .... NR
 SOSCF                  CNVSOSCF        .... on
   Start iteration      SOSCFMaxIt      ....   150
   Startup grad/error   SOSCFStart      ....  0.003300
 Level Shifting         CNVShift        .... on
   Level shift para.    LevelShift      ....    0.2500
   Turn off err/grad.   ShiftErr        ....    0.0010
 Zerner damping         CNVZerner       .... off
 Static damping         CNVDamp         .... on
   Fraction old density DampFac         ....    0.7000
   Max. Damping (<1)    DampMax         ....    0.9800
   Min. Damping (>=0)   DampMin         ....    0.0000
   Turn off err/grad.   DampErr         ....    0.1000
 Fernandez-Rico         CNVRico         .... off

SCF Procedure:
 Maximum # iterations   MaxIter         ....   125
 SCF integral mode      SCFMode         .... Direct
   Integral package                     .... SHARK and LIBINT hybrid scheme
 Reset frequency        DirectResetFreq ....    20
 Integral Threshold     Thresh          ....  2.500e-11 Eh
 Primitive CutOff       TCut            ....  2.500e-12 Eh

Convergence Tolerance:
 Convergence Check Mode ConvCheckMode   .... Total+1el-Energy
 Convergence forced     ConvForced      .... 1
 Energy Change          TolE            ....  1.000e-08 Eh
 1-El. energy change                    ....  1.000e-05 Eh
 Orbital Gradient       TolG            ....  1.000e-05
 Orbital Rotation angle TolX            ....  1.000e-05
 DIIS Error             TolErr          ....  5.000e-07


Diagonalization of the overlap matrix:
Smallest eigenvalue                        ... 4.916e-04
Time for diagonalization                   ...    0.008 sec
Threshold for overlap eigenvalues          ... 1.000e-08
Number of eigenvalues below threshold      ... 0
Time for construction of square roots      ...    0.001 sec
Total time needed                          ...    0.010 sec

---------------------
INITIAL GUESS: MOREAD
---------------------
Guess MOs are being read from file: ox_es1_A_orca0008.ges
Input Geometry matches current geometry (good)
Input basis set matches current basis set (good)
MOs were renormalized
MOs were reorthogonalized (Cholesky)
                      ------------------
                      INITIAL GUESS DONE (   0.0 sec)
                      ------------------
-------------------
DFT GRID GENERATION
-------------------

General Integration Accuracy     IntAcc      ... 4.388
Radial Grid Type                 RadialGrid  ... OptM3 with GC (2021)
Angular Grid (max. ang.)         AngularGrid ... 4 (Lebedev-302)
Angular grid pruning method      GridPruning ... 4 (adaptive)
Weight generation scheme         WeightScheme... Becke
Basis function cutoff            BFCut       ... 1.0000e-11
Integration weight cutoff        WCut        ... 1.0000e-14
Angular grids for H and He will be reduced by one unit
Partially contracted basis set               ... off
Rotationally invariant grid construction     ... off

Total number of grid points                  ...    31312
Total number of batches                      ...      493
Average number of points per batch           ...       63
Average number of grid points per atom       ...     4473
Time for grid setup =    0.118 sec

--------------------
COSX GRID GENERATION
--------------------

GRIDX 1
-------
General Integration Accuracy     IntAcc      ... 3.816
Radial Grid Type                 RadialGrid  ... OptM3 with GC (2021)
Angular Grid (max. ang.)         AngularGrid ... 1 (Lebedev-50)
Angular grid pruning method      GridPruning ... 4 (adaptive)
Weight generation scheme         WeightScheme... Becke
Basis function cutoff            BFCut       ... 1.0000e-11
Integration weight cutoff        WCut        ... 1.0000e-14
Angular grids for H and He will be reduced by one unit
Partially contracted basis set               ... on
Rotationally invariant grid construction     ... off

Total number of grid points                  ...     4035
Total number of batches                      ...       68
Average number of points per batch           ...       59
Average number of grid points per atom       ...      576
UseSFitting                                  ... on

GRIDX 2
-------
General Integration Accuracy     IntAcc      ... 4.020
Radial Grid Type                 RadialGrid  ... OptM3 with GC (2021)
Angular Grid (max. ang.)         AngularGrid ... 2 (Lebedev-110)
Angular grid pruning method      GridPruning ... 4 (adaptive)
Weight generation scheme         WeightScheme... Becke
Basis function cutoff            BFCut       ... 1.0000e-11
Integration weight cutoff        WCut        ... 1.0000e-14
Angular grids for H and He will be reduced by one unit
Partially contracted basis set               ... on
Rotationally invariant grid construction     ... off

Total number of grid points                  ...     8709
Total number of batches                      ...      140
Average number of points per batch           ...       62
Average number of grid points per atom       ...     1244
UseSFitting                                  ... on

GRIDX 3
-------
General Integration Accuracy     IntAcc      ... 4.338
Radial Grid Type                 RadialGrid  ... OptM3 with GC (2021)
Angular Grid (max. ang.)         AngularGrid ... 3 (Lebedev-194)
Angular grid pruning method      GridPruning ... 4 (adaptive)
Weight generation scheme         WeightScheme... Becke
Basis function cutoff            BFCut       ... 1.0000e-11
Integration weight cutoff        WCut        ... 1.0000e-14
Angular grids for H and He will be reduced by one unit
Partially contracted basis set               ... on
Rotationally invariant grid construction     ... off

Total number of grid points                  ...    19257
Total number of batches                      ...      304
Average number of points per batch           ...       63
Average number of grid points per atom       ...     2751
UseSFitting                                  ... on

Time for X-Grid setup             =    0.073 sec

--------------
SCF ITERATIONS
--------------
ITER       Energy         Delta-E        Max-DP      RMS-DP      [F,P]     Damp
               ***  Starting incremental Fock matrix formation  ***
                      *** Initiating the SOSCF procedure ***
                      *** Re-Reading the Fockian *** 
                      *** Removing any level shift *** 
ITER      Energy       Delta-E        Grad      Rot      Max-DP    RMS-DP
  0   -153.66371018 -153.6637101806  0.000001  0.000001  0.000001  0.000000
               *** Restarting incremental Fock matrix formation ***
                  ***Gradient check signals convergence***
              ***Rediagonalizing the Fockian in SOSCF/NRSCF***

               *****************************************************
               *                     SUCCESS                       *
               *           SCF CONVERGED AFTER   1 CYCLES          *
               *****************************************************

Old exchange energy                            =     -4.995936533 Eh
New exchange energy                            =     -4.995934300 Eh
Exchange energy change after final integration =      0.000002234 Eh
Total energy after final integration           =   -153.663707947 Eh
Final COS-X integration done in                =     0.248 sec

----------------
TOTAL SCF ENERGY
----------------

Total Energy       :         -153.66370795 Eh           -4181.40207 eV

Components:
Nuclear Repulsion  :           75.84903860 Eh            2063.95727 eV
Electronic Energy  :         -229.51274655 Eh           -6245.35934 eV
One Electron Energy:         -358.30591137 Eh           -9749.99953 eV
Two Electron Energy:          128.79316482 Eh            3504.64019 eV
Max COSX asymmetry :            0.00000285 Eh               0.00008 eV

Virial components:
Potential Energy   :         -306.60946067 Eh           -8343.26759 eV
Kinetic Energy     :          152.94575273 Eh            4161.86552 eV
Virial Ratio       :            2.00469418


DFT components:
N(Alpha)           :       12.000002702199 electrons
N(Beta)            :       12.000002702199 electrons
N(Total)           :       24.000005404399 electrons
E(X)               :      -14.956526896387 Eh       
E(C)               :       -0.791763976807 Eh       
E(XC)              :      -15.748290873194 Eh       
DFET-embed. en.    :        0.000000000000 Eh       

---------------
SCF CONVERGENCE
---------------

  Last Energy change         ...   -1.4779e-11  Tolerance :   1.0000e-08
  Last MAX-Density change    ...    6.5573e-16  Tolerance :   1.0000e-07
  Last RMS-Density change    ...    2.0944e-17  Tolerance :   5.0000e-09
  Last Orbital Gradient      ...    5.4045e-07  Tolerance :   1.0000e-05
  Last Orbital Rotation      ...    6.9340e-07  Tolerance :   1.0000e-05

             **** THE GBW FILE WAS UPDATED (ox_es1_A_orca0008.gbw) ****
             **** DENSITY ox_es1_A_orca0008.scfp WAS UPDATED ****
             **** ENERGY FILE WAS UPDATED (ox_es1_A_orca0008.en.tmp) ****
             **** THE GBW FILE WAS UPDATED (ox_es1_A_orca0008.gbw) ****
             **** DENSITY ox_es1_A_orca0008.scfp WAS UPDATED ****
----------------
ORBITAL ENERGIES
----------------

  NO   OCC          E(Eh)            E(eV) 
   0   2.0000     -19.227559      -523.2085 
   1   2.0000     -10.286169      -279.9009 
   2   2.0000     -10.269540      -279.4484 
   3   2.0000      -1.132513       -30.8172 
   4   2.0000      -0.687666       -18.7123 
   5   2.0000      -0.658643       -17.9226 
   6   2.0000      -0.536266       -14.5925 
   7   2.0000      -0.500292       -13.6136 
   8   2.0000      -0.435069       -11.8388 
   9   2.0000      -0.399356       -10.8670 
  10   2.0000      -0.312419        -8.5013 
  11   2.0000      -0.293109        -7.9759 
  12   0.0000       0.056554         1.5389 
  13   0.0000       0.077046         2.0965 
  14   0.0000       0.089636         2.4391 
  15   0.0000       0.100353         2.7307 
  16   0.0000       0.110129         2.9968 
  17   0.0000       0.154556         4.2057 
  18   0.0000       0.188210         5.1214 
  19   0.0000       0.210824         5.7368 
  20   0.0000       0.269927         7.3451 
  21   0.0000       0.275747         7.5035 
  22   0.0000       0.303204         8.2506 
  23   0.0000       0.357181         9.7194 
  24   0.0000       0.383443        10.4340 
  25   0.0000       0.391889        10.6638 
  26   0.0000       0.401089        10.9142 
  27   0.0000       0.422706        11.5024 
  28   0.0000       0.433372        11.7926 
  29   0.0000       0.457705        12.4548 
  30   0.0000       0.496983        13.5236 
  31   0.0000       0.508410        13.8346 
  32   0.0000       0.531443        14.4613 
  33   0.0000       0.705926        19.2092 
  34   0.0000       0.710742        19.3403 
  35   0.0000       0.718410        19.5489 
  36   0.0000       0.833161        22.6715 
  37   0.0000       0.891468        24.2581 
  38   0.0000       0.908096        24.7106 
  39   0.0000       0.918076        24.9821 
  40   0.0000       1.025703        27.9108 
  41   0.0000       1.032417        28.0935 
  42   0.0000       1.040488        28.3131 
  43   0.0000       1.081857        29.4388 
  44   0.0000       1.146874        31.2080 
  45   0.0000       1.367300        37.2061 
  46   0.0000       1.443904        39.2906 
  47   0.0000       1.503585        40.9146 
  48   0.0000       1.511814        41.1385 
  49   0.0000       1.521305        41.3968 
  50   0.0000       1.586394        43.1680 
  51   0.0000       1.626597        44.2619 
  52   0.0000       1.655881        45.0588 
  53   0.0000       1.707805        46.4718 
  54   0.0000       1.784398        48.5559 
  55   0.0000       1.798884        48.9501 
  56   0.0000       1.812262        49.3142 
  57   0.0000       1.917880        52.1882 
  58   0.0000       1.935247        52.6608 
  59   0.0000       1.972564        53.6762 
  60   0.0000       2.110737        57.4361 
  61   0.0000       2.152856        58.5822 
  62   0.0000       2.209900        60.1344 
  63   0.0000       2.216854        60.3237 
  64   0.0000       2.272982        61.8510 
  65   0.0000       2.438029        66.3421 
  66   0.0000       2.454031        66.7776 
  67   0.0000       2.467898        67.1549 
  68   0.0000       2.559591        69.6500 
  69   0.0000       2.578988        70.1778 
  70   0.0000       2.628865        71.5351 
  71   0.0000       2.635558        71.7172 
  72   0.0000       2.688828        73.1667 
  73   0.0000       2.694894        73.3318 
  74   0.0000       2.769513        75.3623 
  75   0.0000       2.814959        76.5989 
  76   0.0000       2.903163        78.9991 
  77   0.0000       2.950396        80.2843 
  78   0.0000       2.996272        81.5327 
  79   0.0000       3.039453        82.7077 
  80   0.0000       3.071978        83.5928 
  81   0.0000       3.094074        84.1940 
  82   0.0000       3.109778        84.6214 
  83   0.0000       3.244492        88.2871 
  84   0.0000       3.312553        90.1391 
  85   0.0000       3.318782        90.3087 
  86   0.0000       3.350266        91.1654 
  87   0.0000       3.453207        93.9665 
  88   0.0000       3.573126        97.2297 
  89   0.0000       3.627680        98.7142 
  90   0.0000       3.630995        98.8044 
  91   0.0000       3.726639       101.4070 
  92   0.0000       3.826538       104.1254 
  93   0.0000       3.858851       105.0047 
  94   0.0000       4.024721       109.5182 
  95   0.0000       4.119503       112.0974 
  96   0.0000       4.263012       116.0024 
  97   0.0000       4.304035       117.1187 
  98   0.0000       4.324816       117.6842 
  99   0.0000       4.526239       123.1652 
 100   0.0000       4.672320       127.1403 
 101   0.0000       4.857920       132.1907 
 102   0.0000       5.342722       145.3829 
 103   0.0000       5.513040       150.0174 
 104   0.0000       5.752854       156.5431 
 105   0.0000       5.826158       158.5378 
 106   0.0000       5.875013       159.8672 
 107   0.0000       5.960049       162.1812 
 108   0.0000       6.121245       166.5676 
 109   0.0000       6.654840       181.0874 
 110   0.0000       6.670069       181.5018 
 111   0.0000       6.806980       185.2274 
 112   0.0000       6.977917       189.8788 
 113   0.0000       7.186070       195.5429 
 114   0.0000      22.202678       604.1656 
 115   0.0000      22.516027       612.6922 
 116   0.0000      43.899754      1194.5730 

                    ********************************
                    * MULLIKEN POPULATION ANALYSIS *
                    ********************************

-----------------------
MULLIKEN ATOMIC CHARGES
-----------------------
   0 O :   -0.295658
   1 C :   -0.090520
   2 C :   -0.068176
   3 H :    0.120330
   4 H :    0.122133
   5 H :    0.105526
   6 H :    0.106366
Sum of atomic charges:   -0.0000000

--------------------------------
MULLIKEN REDUCED ORBITAL CHARGES
--------------------------------
  0 O s       :     3.838632  s :     3.838632
      pz      :     1.814712  p :     4.406357
      px      :     1.286460
      py      :     1.305185
      dz2     :     0.006037  d :     0.048231
      dxz     :     0.003294
      dyz     :     0.007458
      dx2y2   :     0.014020
      dxy     :     0.017422
      f0      :     0.000303  f :     0.002438
      f+1     :     0.000240
      f-1     :     0.000483
      f+2     :     0.000081
      f-2     :     0.000261
      f+3     :     0.000347
      f-3     :     0.000723
  1 C s       :     3.246172  s :     3.246172
      pz      :     1.020949  p :     2.720762
      px      :     0.907039
      py      :     0.792774
      dz2     :     0.008853  d :     0.111741
      dxz     :     0.024847
      dyz     :     0.031548
      dx2y2   :     0.027646
      dxy     :     0.018845
      f0      :     0.001894  f :     0.011845
      f+1     :     0.001304
      f-1     :     0.000640
      f+2     :     0.000972
      f-2     :     0.001846
      f+3     :     0.002298
      f-3     :     0.002891
  2 C s       :     3.209984  s :     3.209984
      pz      :     1.048187  p :     2.730131
      px      :     0.885023
      py      :     0.796921
      dz2     :     0.004620  d :     0.115476
      dxz     :     0.027930
      dyz     :     0.032815
      dx2y2   :     0.030323
      dxy     :     0.019789
      f0      :     0.001599  f :     0.012585
      f+1     :     0.001475
      f-1     :     0.000718
      f+2     :     0.001108
      f-2     :     0.002134
      f+3     :     0.002479
      f-3     :     0.003071
  3 H s       :     0.859628  s :     0.859628
      pz      :     0.011738  p :     0.020042
      px      :     0.004749
      py      :     0.003555
  4 H s       :     0.856983  s :     0.856983
      pz      :     0.011530  p :     0.020884
      px      :     0.005314
      py      :     0.004041
  5 H s       :     0.872842  s :     0.872842
      pz      :     0.010332  p :     0.021632
      px      :     0.006822
      py      :     0.004479
  6 H s       :     0.871762  s :     0.871762
      pz      :     0.010377  p :     0.021872
      px      :     0.007038
      py      :     0.004458


                     *******************************
                     * LOEWDIN POPULATION ANALYSIS *
                     *******************************

----------------------
LOEWDIN ATOMIC CHARGES
----------------------
   0 O :    0.173791
   1 C :   -0.306724
   2 C :   -0.339647
   3 H :    0.132130
   4 H :    0.127815
   5 H :    0.107324
   6 H :    0.105312

-------------------------------
LOEWDIN REDUCED ORBITAL CHARGES
-------------------------------
  0 O s       :     3.333943  s :     3.333943
      pz      :     1.684184  p :     4.372339
      px      :     1.275633
      py      :     1.412522
      dz2     :     0.012130  d :     0.111603
      dxz     :     0.010585
      dyz     :     0.017375
      dx2y2   :     0.041000
      dxy     :     0.030513
      f0      :     0.000797  f :     0.008325
      f+1     :     0.000349
      f-1     :     0.000933
      f+2     :     0.000156
      f-2     :     0.001275
      f+3     :     0.001401
      f-3     :     0.003414
  1 C s       :     2.855870  s :     2.855870
      pz      :     1.039576  p :     2.924894
      px      :     1.022775
      py      :     0.862542
      dz2     :     0.061318  d :     0.452261
      dxz     :     0.110590
      dyz     :     0.089884
      dx2y2   :     0.099912
      dxy     :     0.090557
      f0      :     0.012637  f :     0.073700
      f+1     :     0.005340
      f-1     :     0.005469
      f+2     :     0.006322
      f-2     :     0.008083
      f+3     :     0.015521
      f-3     :     0.020329
  2 C s       :     2.810468  s :     2.810468
      pz      :     1.061297  p :     2.942103
      px      :     1.006398
      py      :     0.874408
      dz2     :     0.052081  d :     0.506759
      dxz     :     0.138104
      dyz     :     0.100646
      dx2y2   :     0.112255
      dxy     :     0.103672
      f0      :     0.010728  f :     0.080317
      f+1     :     0.006428
      f-1     :     0.006057
      f+2     :     0.007245
      f-2     :     0.010395
      f+3     :     0.016966
      f-3     :     0.022498
  3 H s       :     0.813291  s :     0.813291
      pz      :     0.032332  p :     0.054580
      px      :     0.012466
      py      :     0.009781
  4 H s       :     0.814527  s :     0.814527
      pz      :     0.032407  p :     0.057658
      px      :     0.014019
      py      :     0.011233
  5 H s       :     0.828872  s :     0.828872
      pz      :     0.031877  p :     0.063804
      px      :     0.018477
      py      :     0.013450
  6 H s       :     0.829287  s :     0.829287
      pz      :     0.032453  p :     0.065402
      px      :     0.019375
      py      :     0.013574


                      *****************************
                      * MAYER POPULATION ANALYSIS *
                      *****************************

  NA   - Mulliken gross atomic population
  ZA   - Total nuclear charge
  QA   - Mulliken gross atomic charge
  VA   - Mayer's total valence
  BVA  - Mayer's bonded valence
  FA   - Mayer's free valence

  ATOM       NA         ZA         QA         VA         BVA        FA
  0 O      8.2957     8.0000    -0.2957     2.0144     2.0144     0.0000
  1 C      6.0905     6.0000    -0.0905     3.9484     3.9484     0.0000
  2 C      6.0682     6.0000    -0.0682     3.9774     3.9774    -0.0000
  3 H      0.8797     1.0000     0.1203     0.9626     0.9626    -0.0000
  4 H      0.8779     1.0000     0.1221     0.9631     0.9631    -0.0000
  5 H      0.8945     1.0000     0.1055     0.9611     0.9611    -0.0000
  6 H      0.8936     1.0000     0.1064     0.9585     0.9585    -0.0000

  Mayer bond orders larger than 0.100000
B(  0-O ,  1-C ) :   0.9866 B(  0-O ,  2-C ) :   1.0023 B(  1-C ,  2-C ) :   1.0519 
B(  1-C ,  3-H ) :   0.9462 B(  1-C ,  4-H ) :   0.9505 B(  2-C ,  5-H ) :   0.9579 
B(  2-C ,  6-H ) :   0.9539 

-------
TIMINGS
-------

Total SCF time: 0 days 0 hours 0 min 1 sec 

Total time                  ....       1.006 sec
Sum of individual times     ....       0.899 sec  ( 89.4%)

Fock matrix formation       ....       0.693 sec  ( 68.9%)
  Split-RI-J                ....       0.111 sec  ( 16.0% of F)
  Chain of spheres X        ....       0.511 sec  ( 73.8% of F)
  XC integration            ....       0.062 sec  (  9.0% of F)
    Basis function eval.    ....       0.017 sec  ( 27.0% of XC)
    Density eval.           ....       0.013 sec  ( 21.4% of XC)
    XC-Functional eval.     ....       0.004 sec  (  5.7% of XC)
    XC-Potential eval.      ....       0.021 sec  ( 33.7% of XC)
Diagonalization             ....       0.002 sec  (  0.2%)
Density matrix formation    ....       0.000 sec  (  0.0%)
Population analysis         ....       0.003 sec  (  0.3%)
Initial guess               ....       0.007 sec  (  0.7%)
Orbital Transformation      ....       0.000 sec  (  0.0%)
Orbital Orthonormalization  ....       0.001 sec  (  0.1%)
DIIS solution               ....       0.001 sec  (  0.1%)
SOSCF solution              ....       0.002 sec  (  0.2%)
Grid generation             ....       0.191 sec  ( 19.0%)

Maximum memory used throughout the entire SCF-calculation: 61.1 MB


           ************************************************************
           *        Program running with 8 parallel MPI-processes     *
           *              working on a common directory               *
           ************************************************************
------------------------------------------------------------------------------
                        ORCA TD-DFT/TDA CALCULATION
------------------------------------------------------------------------------

Input orbitals are from        ... ox_es1_A_orca0008.gbw
CI-vector output               ... ox_es1_A_orca0008.cis
Tamm-Dancoff approximation     ... operative
CIS-Integral strategy          ... AO-integrals
Integral handling              ... AO integral Direct
Max. core memory used          ... 3000 MB
Reference state                ... RHF
Generation of triplets         ... off
Follow IRoot                   ... off
Number of operators            ... 1
Orbital ranges used for CIS calculation:
 Operator 0:  Orbitals   3... 11  to  12...116
XAS localization array:
 Operator 0:  Orbitals  -1... -1

-------------------
XC-INTEGRATION GRID
-------------------

General Integration Accuracy     IntAcc      ... 3.467
Radial Grid Type                 RadialGrid  ... OptM3 with GC (2021)
Angular Grid (max. ang.)         AngularGrid ... 1 (Lebedev-50)
Angular grid pruning method      GridPruning ... 4 (adaptive)
Weight generation scheme         WeightScheme... Becke
Basis function cutoff            BFCut       ... 1.0000e-11
Integration weight cutoff        WCut        ... 1.0000e-14
Angular grids for H and He will be reduced by one unit
Partially contracted basis set               ... off
Rotationally invariant grid construction     ... off

Total number of grid points                  ...     4532
Total number of batches                      ...       75
Average number of points per batch           ...       60
Average number of grid points per atom       ...      647

---------------------
COSX-INTEGRATION GRID
---------------------

General Integration Accuracy     IntAcc      ... 3.067
Radial Grid Type                 RadialGrid  ... OptM3 with GC (2021)
Angular Grid (max. ang.)         AngularGrid ... 1 (Lebedev-50)
Angular grid pruning method      GridPruning ... 4 (adaptive)
Weight generation scheme         WeightScheme... Becke
Basis function cutoff            BFCut       ... 1.0000e-11
Integration weight cutoff        WCut        ... 1.0000e-14
Angular grids for H and He will be reduced by one unit
Partially contracted basis set               ... on
Rotationally invariant grid construction     ... off

Total number of grid points                  ...     2083
Total number of batches                      ...       37
Average number of points per batch           ...       56
Average number of grid points per atom       ...      298

---------------
TD-DFT XC SETUP
---------------

DFT calculation                         ... on
Name of the grid file                   ... ox_es1_A_orca0008.grid_cis.tmp
Exchange functional (TD-DFT)            ... PBE
   PBE kappa parameter  XKappa (TD-DFT) ...  0.804000
   PBE mue parameter   XMuePBE (TD-DFT) ...  0.219520
Correlation functional (TD-DFT)         ... PBE
   PBE beta parameter CBetaPBE (TD-DFT) ...  0.066725
 LDA part of GGA corr.  LDAOpt (TD-DFT) ... PW91-LDA
Hybrid DFT                              ... on
   Exchange mixing (TD-DFT)             ...  0.250
   GGA exch. scaling (TD-DFT)           ...  0.750
   GGA corr. scaling (TD-DFT)           ...  1.000

Building densities             ... done
Calculating rho(r) on the grid ... done
Building xc-kernel on the grid ... done
                    *** TD-DFT CALCULATION INITIALIZED ***

------------------------
DAVIDSON-DIAGONALIZATION
------------------------

Dimension of the eigenvalue problem            ...    945
Number of roots to be determined               ...      1
Maximum size of the expansion space            ...     10
Maximum number of iterations                   ...    100
Convergence tolerance for the residual         ...    2.500e-07
Convergence tolerance for the energies         ...    2.500e-07
Orthogonality tolerance                        ...    1.000e-14
Level Shift                                    ...    0.000e+00
Constructing the preconditioner                ... o.k.
Building the initial guess                     ... o.k.
Number of trial vectors determined             ...     10


                       ****Iteration    0****

   Memory handling for direct AO based CIS:
   Memory per vector needed      ...     1 MB
   Memory needed                 ...     1 MB
   Memory available              ...  3000 MB
   Number of vectors per batch   ...  3000
   Number of batches             ...     1
   Time for densities:            0.000
   Time for RI-J (Direct):        0.016
   Time for K (COSX):             0.056
   Time for XC-Integration:       0.016
   Time for Sigma-Completion:     0.000
   Size of expansion space: 3
   Lowest Energy          :     0.300923516541
   Maximum Energy change  :     0.300923516541 (vector 0)
   Maximum residual norm  :     0.001180901849

                       ****Iteration    1****
   Time for densities:            0.000
   Time for RI-J (Direct):        0.012
   Time for K (COSX):             0.050
   Time for XC-Integration:       0.007
   Time for Sigma-Completion:     0.000
   Size of expansion space: 4
   Lowest Energy          :     0.299234360304
   Maximum Energy change  :     0.001689156238 (vector 0)
   Maximum residual norm  :     0.000110116457

                       ****Iteration    2****
   Time for densities:            0.000
   Time for RI-J (Direct):        0.012
   Time for K (COSX):             0.050
   Time for XC-Integration:       0.007
   Time for Sigma-Completion:     0.000
   Size of expansion space: 5
   Lowest Energy          :     0.299049433419
   Maximum Energy change  :     0.000184926885 (vector 0)
   Maximum residual norm  :     0.000043629507

                       ****Iteration    3****
   Time for densities:            0.000
   Time for RI-J (Direct):        0.012
   Time for K (COSX):             0.050
   Time for XC-Integration:       0.007
   Time for Sigma-Completion:     0.000
   Size of expansion space: 6
   Lowest Energy          :     0.298944564195
   Maximum Energy change  :     0.000104869224 (vector 0)
   Maximum residual norm  :     0.000029931091

                       ****Iteration    4****
   Time for densities:            0.000
   Time for RI-J (Direct):        0.012
   Time for K (COSX):             0.050
   Time for XC-Integration:       0.007
   Time for Sigma-Completion:     0.000
   Size of expansion space: 7
   Lowest Energy          :     0.298877701343
   Maximum Energy change  :     0.000066862852 (vector 0)
   Maximum residual norm  :     0.000009333076

                       ****Iteration    5****
   Time for densities:            0.000
   Time for RI-J (Direct):        0.012
   Time for K (COSX):             0.050
   Time for XC-Integration:       0.007
   Time for Sigma-Completion:     0.000
   Size of expansion space: 8
   Lowest Energy          :     0.298864844912
   Maximum Energy change  :     0.000012856431 (vector 0)
   Maximum residual norm  :     0.000001300874

                       ****Iteration    6****
   Time for densities:            0.000
   Time for RI-J (Direct):        0.012
   Time for K (COSX):             0.050
   Time for XC-Integration:       0.007
   Time for Sigma-Completion:     0.000
   Size of expansion space: 9
   Lowest Energy          :     0.298862948337
   Maximum Energy change  :     0.000001896575 (vector 0)
   Maximum residual norm  :     0.000000166234

      *** CONVERGENCE OF RESIDUAL NORM REACHED ***

Storing the converged CI vectors               ... ox_es1_A_orca0008.cis1

                 *** DAVIDSON DONE ***

Total time for solving the CIS problem:     0.534sec

------------------------------------
TD-DFT/TDA EXCITED STATES (SINGLETS)
------------------------------------

the weight of the individual excitations are printed if larger than 1.0e-02

STATE  1:  E=   0.298863 au      8.132 eV    65592.8 cm**-1 <S**2> =   0.000000
    11a ->  12a  :     0.966622 (c= -0.98316918)
    11a ->  14a  :     0.022122 (c=  0.14873527)


-----------------------------
TD-DFT/TDA-EXCITATION SPECTRA
-----------------------------

Center of mass = ( -0.0157, -0.0595, -0.0181)
Calculating the Dipole integrals                  ... done
Transforming integrals                            ... done
Calculating the Linear Momentum integrals         ... done
Transforming integrals                            ... done
Calculating angular momentum integrals            ... done
Transforming integrals                            ... done

-----------------------------------------------------------------------------
         ABSORPTION SPECTRUM VIA TRANSITION ELECTRIC DIPOLE MOMENTS
-----------------------------------------------------------------------------
State   Energy    Wavelength  fosc         T2        TX        TY        TZ  
        (cm-1)      (nm)                 (au**2)    (au)      (au)      (au) 
-----------------------------------------------------------------------------
   1   65592.8    152.5   0.084469181   0.42395   0.02574   0.00396  -0.65060

-----------------------------------------------------------------------------
         ABSORPTION SPECTRUM VIA TRANSITION VELOCITY DIPOLE MOMENTS
-----------------------------------------------------------------------------
State   Energy    Wavelength   fosc        P2         PX        PY        PZ  
        (cm-1)      (nm)                 (au**2)     (au)      (au)      (au) 
-----------------------------------------------------------------------------
   1   65592.8    152.5   0.044300816   0.01986  -0.00761   0.00585   0.14060

-------------------------------------------------------------------
                             CD SPECTRUM
-------------------------------------------------------------------
State  Energy     Wavelength     R         MX        MY        MZ   
       (cm-1)       (nm)     (1e40*cgs)   (au)      (au)      (au)  
-------------------------------------------------------------------
   1   65592.8    152.5      1.95858   0.35321  -0.00755   0.00754

-------------------------------------------------------------------
         CD SPECTRUM VIA TRANSITION VELOCITY DIPOLE MOMENTS        
-------------------------------------------------------------------
State  Energy     Wavelength     R         MX        MY        MZ   
       (cm-1)       (nm)     (1e40*cgs)   (au)      (au)      (au)  
-------------------------------------------------------------------
   1   65592.8    152.5     -2.63846   0.35321  -0.00755   0.00754

Total run time:        0.798 sec

           *** ORCA-CIS/TD-DFT FINISHED WITHOUT ERROR ***

Maximum memory used throughout the entire CIS-calculation: 49.4 MB

-----------------------
CIS/TD-DFT TOTAL ENERGY
-----------------------

    E(SCF)  =   -153.663707947 Eh
    DE(CIS) =      0.298862948 Eh (Root  1)
    ----------------------------- ---------
    E(tot)  =   -153.364844999 Eh



-------------------------------------------------------------------------------
                          DFT DISPERSION CORRECTION                            
                                                                               
                              DFTD3 V3.1  Rev 1                                
                          USING Becke-Johnson damping                          
-------------------------------------------------------------------------------
The PBE0 functional is recognized
Active option DFTDOPT                   ...         4   

molecular C6(AA) [au] = 350.926651 


            DFT-D V3
 parameters
 s6 scaling factor         :     1.0000 
 a1 scaling factor         :     0.4145 
 s8 scaling factor         :     1.2177 
 a2 scaling factor         :     4.8593 
 ad hoc parameters k1-k3   :    16.0000     1.3333    -4.0000 

 Edisp/kcal,au: -1.509637451937  -0.002405760157 
 E6   /kcal   :  -0.989759402 
 E8   /kcal   :  -0.519878050 
 % E8         :  34.437278270 

-------------------------   ----------------
Dispersion correction           -0.002405760
-------------------------   ----------------


-------------------------   --------------------
FINAL SINGLE POINT ENERGY      -153.367250758830
-------------------------   --------------------



           ************************************************************
           *        Program running with 8 parallel MPI-processes     *
           *              working on a common directory               *
           ************************************************************
------------------------------------------------------------------------------
                         ORCA SCF GRADIENT CALCULATION
------------------------------------------------------------------------------


------------------------
TD-DFT GRADIENT XC SETUP
------------------------

Building densities                     ... done
Calculating rho(r) on the grid         ... done
Building xc-kernel on the grid         ... done
Building xc 3rd derivative on the grid      ... done
                *** TD-DFT GRADIENT CALCULATION INITIALIZED ***

-------------------
TD-DFT/TDA GRADIENT
-------------------

Reference wavefunction             ... RHF
State of interest                  ... 1
Basis dimension                    ... 117
DFT-XC contribution needed         ... YES
RI-approximation                   ... ON
CIS-vectors being read from        ... ox_es1_A_orca0008.cis

 => Number of Vectors found: 1
 => Orbital Window: 3...11 -> 12...116

Reading the CIS file                     ... done
Norm of the CI vector                    ... 1.000000000
Making the CIS (pseudo)densities         ... done
Making operators G(D) and Q(T)           ... done
Transforming the Fock operators          ... done
Making the frozen-core relaxed density   ... done
Constructing the G(H) operator           ... done
Transforming the G(H) operator           ... done
Calculating the CIS Lagrangian           ... done
Solving the Z-vector equations           ... done
Finalizing the relaxed density           ... done
Storing the relaxed density              ... done
Constructing the G(Z) operator           ... done
Transforming the G(Z) operator           ... done
Making the W-matrix                      ... done
Finalizing the W-matrix                  ... done
Transforming the W-matrix                ... done
Nuclear repulsion gradient               ... done
One-Electron gradient                    ... done
Dispersion correction                    ... done
Prescreening matrices                    ... done
COSX-gradient                            ... done
Coulomb gradient (RI)                    ... done
Exchange-Correlation gradient            ... done

                 ---------------------------
                 EXCITED STATE GRADIENT DONE
                 ---------------------------

------------------
CARTESIAN GRADIENT
------------------

   1   O   :    0.001647831   -0.036755765    0.005296141
   2   C   :   -0.018454255    0.035482493   -0.009012014
   3   C   :    0.025797008    0.036415666    0.003803346
   4   H   :   -0.005748959   -0.010092475   -0.005486739
   5   H   :    0.004382102   -0.009927416    0.012310708
   6   H   :   -0.005424016   -0.010064929    0.024428830
   7   H   :   -0.002181275   -0.005049868   -0.031325803

Difference to translation invariance:
           :    0.0000184360    0.0000077070    0.0000144694

Difference to rotation invariance:
           :    0.0001484242   -0.0000303371   -0.0000559401

Norm of the cartesian gradient     ...    0.0850997305
RMS gradient                       ...    0.0185702836
MAX gradient                       ...    0.0367557645

------------------------------------------------------------------------------
                  RELAXED CIS/TDA DENSITY POPULATION ANALYSIS
                                   IROOT 1
------------------------------------------------------------------------------
------------------------------------------------------------------------------
                           ORCA POPULATION ANALYSIS
------------------------------------------------------------------------------
Input electron density              ... ox_es1_A_orca0008.cisp
BaseName (.gbw .S,...)              ... ox_es1_A_orca0008

                    ********************************
                    * MULLIKEN POPULATION ANALYSIS *
                    ********************************

-----------------------
MULLIKEN ATOMIC CHARGES
-----------------------
   0 O :    0.080688
   1 C :    0.458272
   2 C :    0.119468
   3 H :   -0.270607
   4 H :   -0.265098
   5 H :   -0.068799
   6 H :   -0.053924
Sum of atomic charges:   -0.0000000

--------------------------------
MULLIKEN REDUCED ORBITAL CHARGES
--------------------------------
  0 O s       :     3.847915  s :     3.847915
      pz      :     1.193291  p :     4.017009
      px      :     1.440687
      py      :     1.383031
      dz2     :     0.006942  d :     0.052196
      dxz     :     0.004189
      dyz     :     0.008519
      dx2y2   :     0.016157
      dxy     :     0.016389
      f0      :     0.000205  f :     0.002193
      f+1     :     0.000098
      f-1     :     0.000328
      f+2     :     0.000088
      f-2     :     0.000302
      f+3     :     0.000351
      f-3     :     0.000821
  1 C s       :     2.835329  s :     2.835329
      pz      :     1.083910  p :     2.585419
      px      :     0.882209
      py      :     0.619300
      dz2     :     0.041581  d :     0.110198
      dxz     :     0.015199
      dyz     :     0.007844
      dx2y2   :     0.027697
      dxy     :     0.017876
      f0      :     0.001228  f :     0.010782
      f+1     :     0.001439
      f-1     :     0.000760
      f+2     :     0.000733
      f-2     :     0.001230
      f+3     :     0.002664
      f-3     :     0.002728
  2 C s       :     3.036311  s :     3.036311
      pz      :     1.083210  p :     2.740730
      px      :     0.970191
      py      :     0.687329
      dz2     :     0.009505  d :     0.091882
      dxz     :     0.021802
      dyz     :     0.010749
      dx2y2   :     0.028593
      dxy     :     0.021233
      f0      :     0.001083  f :     0.011609
      f+1     :     0.001481
      f-1     :     0.000772
      f+2     :     0.000821
      f-2     :     0.001648
      f+3     :     0.002751
      f-3     :     0.003053
  3 H s       :     1.240284  s :     1.240284
      pz      :     0.023140  p :     0.030323
      px      :     0.004664
      py      :     0.002519
  4 H s       :     1.234630  s :     1.234630
      pz      :     0.022341  p :     0.030467
      px      :     0.005279
      py      :     0.002847
  5 H s       :     1.042054  s :     1.042054
      pz      :     0.015646  p :     0.026745
      px      :     0.006939
      py      :     0.004160
  6 H s       :     1.026625  s :     1.026625
      pz      :     0.015871  p :     0.027299
      px      :     0.007276
      py      :     0.004152


                     *******************************
                     * LOEWDIN POPULATION ANALYSIS *
                     *******************************

----------------------
LOEWDIN ATOMIC CHARGES
----------------------
   0 O :    0.521824
   1 C :   -0.296579
   2 C :   -0.285033
   3 H :   -0.034019
   4 H :   -0.036392
   5 H :    0.061342
   6 H :    0.068857

-------------------------------
LOEWDIN REDUCED ORBITAL CHARGES
-------------------------------
  0 O s       :     3.363064  s :     3.363064
      pz      :     1.123105  p :     3.989391
      px      :     1.389095
      py      :     1.477191
      dz2     :     0.014868  d :     0.117495
      dxz     :     0.012587
      dyz     :     0.018228
      dx2y2   :     0.045223
      dxy     :     0.026589
      f0      :     0.000831  f :     0.008227
      f+1     :     0.000193
      f-1     :     0.000762
      f+2     :     0.000165
      f-2     :     0.001452
      f+3     :     0.001168
      f-3     :     0.003656
  1 C s       :     2.958594  s :     2.958594
      pz      :     1.051378  p :     2.820204
      px      :     1.027890
      py      :     0.740937
      dz2     :     0.127682  d :     0.445218
      dxz     :     0.088161
      dyz     :     0.036204
      dx2y2   :     0.102183
      dxy     :     0.090989
      f0      :     0.009184  f :     0.072562
      f+1     :     0.006550
      f-1     :     0.006825
      f+2     :     0.004578
      f-2     :     0.005949
      f+3     :     0.018545
      f-3     :     0.020930
  2 C s       :     2.850972  s :     2.850972
      pz      :     1.048053  p :     2.887525
      px      :     1.038976
      py      :     0.800496
      dz2     :     0.093469  d :     0.468405
      dxz     :     0.111100
      dyz     :     0.043004
      dx2y2   :     0.114157
      dxy     :     0.106676
      f0      :     0.007820  f :     0.078131
      f+1     :     0.006566
      f-1     :     0.006916
      f+2     :     0.005446
      f-2     :     0.008353
      f+3     :     0.019252
      f-3     :     0.023777
  3 H s       :     0.941115  s :     0.941115
      pz      :     0.072787  p :     0.092903
      px      :     0.012616
      py      :     0.007501
  4 H s       :     0.942611  s :     0.942611
      pz      :     0.070694  p :     0.093782
      px      :     0.014575
      py      :     0.008513
  5 H s       :     0.858137  s :     0.858137
      pz      :     0.048360  p :     0.080520
      px      :     0.019581
      py      :     0.012579
  6 H s       :     0.848949  s :     0.848949
      pz      :     0.048721  p :     0.082194
      px      :     0.020662
      py      :     0.012811


                      *****************************
                      * MAYER POPULATION ANALYSIS *
                      *****************************

  NA   - Mulliken gross atomic population
  ZA   - Total nuclear charge
  QA   - Mulliken gross atomic charge
  VA   - Mayer's total valence
  BVA  - Mayer's bonded valence
  FA   - Mayer's free valence

  ATOM       NA         ZA         QA         VA         BVA        FA
  0 O      7.9193     8.0000     0.0807     2.4351     1.7623     0.6729
  1 C      5.5417     6.0000     0.4583     2.0086     2.3836    -0.3749
  2 C      5.8805     6.0000     0.1195     3.2527     3.3314    -0.0787
  3 H      1.2706     1.0000    -0.2706     1.4016     0.8870     0.5146
  4 H      1.2651     1.0000    -0.2651     1.3949     0.9110     0.4839
  5 H      1.0688     1.0000    -0.0688     1.3247     1.0277     0.2970
  6 H      1.0539     1.0000    -0.0539     1.3335     1.0280     0.3055

  Mayer bond orders larger than 0.100000
B(  0-O ,  1-C ) :   0.8573 B(  0-O ,  2-C ) :   0.9221 B(  1-C ,  2-C ) :   1.0461 
B(  1-C ,  3-H ) :   0.3415 B(  1-C ,  4-H ) :   0.3930 B(  1-C ,  5-H ) :  -0.1257 
B(  1-C ,  6-H ) :  -0.1286 B(  2-C ,  5-H ) :   0.7448 B(  2-C ,  6-H ) :   0.7469 
B(  3-H ,  4-H ) :   0.2964 B(  3-H ,  5-H ) :   0.1697 B(  3-H ,  6-H ) :   0.1510 
B(  4-H ,  5-H ) :   0.1441 B(  4-H ,  6-H ) :   0.1557 


-------
TIMINGS
-------

Total TD-DFT gradient time         ...        5.028 sec

Fock matrix formation       ....       0.834 sec  ( 16.6%)
  Coulomb formation         ....       0.677 sec  ( 81.2% of F)
  RI-J                      ....       0.292 sec  ( 35.1% of F)
  Chain of spheres X        ....       0.384 sec  ( 46.1% of F)
  XC integration            ....       0.157 sec  ( 18.8% of F)
Z-vector equation           ....       1.389 sec  ( 27.6%)
One electron gradient       ....       0.032 sec  (  0.6%)
Prescreening matrices       ....       0.155 sec  (  3.1%)
RI-J Coulomb gradient       ....       0.259 sec  (  5.2%)
COSX gradient               ....       0.333 sec  (  6.6%)
XC gradient                 ....       1.702 sec  ( 33.8%)

Maximum memory used throughout the entire SCFGRAD-calculation: 130.3 MB

                            ***************************************
                            *     ORCA property calculations      *
                            ***************************************

                                    ---------------------
                                    Active property flags
                                    ---------------------
   (+) Dipole Moment


------------------------------------------------------------------------------
                       ORCA ELECTRIC PROPERTIES CALCULATION
------------------------------------------------------------------------------

Dipole Moment Calculation                       ... on
Quadrupole Moment Calculation                   ... off
Polarizability Calculation                      ... off
GBWName                                         ... ox_es1_A_orca0008.gbw
Electron density                                ... ox_es1_A_orca0008.scfp
The origin for moment calculation is the CENTER OF MASS  = (-0.015748, -0.059486 -0.018122)

-------------
DIPOLE MOMENT
-------------
                                X             Y             Z
Electronic contribution:     -0.14549       1.79239      -0.07665
Nuclear contribution   :      0.17358      -2.44496       0.10661
                        -----------------------------------------
Total Dipole Moment    :      0.02809      -0.65257       0.02996
                        -----------------------------------------
Magnitude (a.u.)       :      0.65387
Magnitude (Debye)      :      1.66199



--------------------
Rotational spectrum 
--------------------
 
Rotational constants in cm-1:     0.914691     0.711094     0.483506 
Rotational constants in MHz : 27421.746965 21318.074613 14495.139260 

 Dipole components along the rotational axes: 
x,y,z [a.u.] :    -0.015814    -0.653635    -0.007171 
x,y,z [Debye]:    -0.040197    -1.661408    -0.018227 

 

                        *** CIS RELAXED DENSITY ***

------------------------------------------------------------------------------
                       ORCA ELECTRIC PROPERTIES CALCULATION
------------------------------------------------------------------------------

Dipole Moment Calculation                       ... on
Quadrupole Moment Calculation                   ... off
Polarizability Calculation                      ... off
GBWName                                         ... ox_es1_A_orca0008.gbw
Electron density                                ... ox_es1_A_orca0008.cisp
The origin for moment calculation is the CENTER OF MASS  = (-0.015748, -0.059486 -0.018122)

-------------
DIPOLE MOMENT
-------------
                                X             Y             Z
Electronic contribution:      0.50557       2.76880      -0.11061
Nuclear contribution   :      0.17358      -2.44496       0.10661
                        -----------------------------------------
Total Dipole Moment    :      0.67915       0.32384      -0.00401
                        -----------------------------------------
Magnitude (a.u.)       :      0.75242
Magnitude (Debye)      :      1.91249



--------------------
Rotational spectrum 
--------------------
 
Rotational constants in cm-1:     0.914691     0.711094     0.483506 
Rotational constants in MHz : 27421.746965 21318.074613 14495.139260 

 Dipole components along the rotational axes: 
x,y,z [a.u.] :     0.699149     0.277147     0.022601 
x,y,z [Debye]:     1.777096     0.704451     0.057446 

 

Timings for individual modules:

Sum of individual times         ...        8.360 sec (=   0.139 min)
GTO integral calculation        ...        0.373 sec (=   0.006 min)   4.5 %
SCF iterations                  ...        1.203 sec (=   0.020 min)  14.4 %
CIS module                      ...        1.129 sec (=   0.019 min)  13.5 %
SCF Gradient evaluation         ...        5.654 sec (=   0.094 min)  67.6 %
                             ****ORCA TERMINATED NORMALLY****
TOTAL RUN TIME: 0 days 0 hours 0 minutes 8 seconds 711 msec
