
                                 *****************
                                 * O   R   C   A *
                                 *****************

                                            #,                                       
                                            ###                                      
                                            ####                                     
                                            #####                                    
                                            ######                                   
                                           ########,                                 
                                     ,,################,,,,,                         
                               ,,#################################,,                 
                          ,,##########################################,,             
                       ,#########################################, ''#####,          
                    ,#############################################,,   '####,        
                  ,##################################################,,,,####,       
                ,###########''''           ''''###############################       
              ,#####''   ,,,,##########,,,,          '''####'''          '####       
            ,##' ,,,,###########################,,,                        '##       
           ' ,,###''''                  '''############,,,                           
         ,,##''                                '''############,,,,        ,,,,,,###''
      ,#''                                            '''#######################'''  
     '                                                          ''''####''''         
             ,#######,   #######,   ,#######,      ##                                
            ,#'     '#,  ##    ##  ,#'     '#,    #''#        ######   ,####,        
            ##       ##  ##   ,#'  ##            #'  '#       #        #'  '#        
            ##       ##  #######   ##           ,######,      #####,   #    #        
            '#,     ,#'  ##    ##  '#,     ,#' ,#      #,         ##   #,  ,#        
             '#######'   ##     ##  '#######'  #'      '#     #####' # '####'        



                  #######################################################
                  #                        -***-                        #
                  #          Department of theory and spectroscopy      #
                  #    Directorship and core code : Frank Neese         #
                  #        Max Planck Institute fuer Kohlenforschung    #
                  #                Kaiser Wilhelm Platz 1               #
                  #                 D-45470 Muelheim/Ruhr               #
                  #                      Germany                        #
                  #                                                     #
                  #                  All rights reserved                #
                  #                        -***-                        #
                  #######################################################


                         Program Version 5.0.2 -  RELEASE  -


 With contributions from (in alphabetic order):
   Daniel Aravena         : Magnetic Suceptibility
   Michael Atanasov       : Ab Initio Ligand Field Theory (pilot matlab implementation)
   Alexander A. Auer      : GIAO ZORA, VPT2 properties, NMR spectrum
   Ute Becker             : Parallelization
   Giovanni Bistoni       : ED, misc. LED, open-shell LED, HFLD
   Martin Brehm           : Molecular dynamics
   Dmytro Bykov           : SCF Hessian
   Vijay G. Chilkuri      : MRCI spin determinant printing, contributions to CSF-ICE
   Dipayan Datta          : RHF DLPNO-CCSD density
   Achintya Kumar Dutta   : EOM-CC, STEOM-CC
   Dmitry Ganyushin       : Spin-Orbit,Spin-Spin,Magnetic field MRCI
   Miquel Garcia          : C-PCM and meta-GGA Hessian, CC/C-PCM, Gaussian charge scheme
   Yang Guo               : DLPNO-NEVPT2, F12-NEVPT2, CIM, IAO-localization
   Andreas Hansen         : Spin unrestricted coupled pair/coupled cluster methods
   Benjamin Helmich-Paris : MC-RPA, TRAH-SCF, COSX integrals
   Lee Huntington         : MR-EOM, pCC
   Robert Izsak           : Overlap fitted RIJCOSX, COSX-SCS-MP3, EOM
   Marcus Kettner         : VPT2
   Christian Kollmar      : KDIIS, OOCD, Brueckner-CCSD(T), CCSD density, CASPT2, CASPT2-K
   Simone Kossmann        : Meta GGA functionals, TD-DFT gradient, OOMP2, MP2 Hessian
   Martin Krupicka        : Initial AUTO-CI
   Lucas Lang             : DCDCAS
   Marvin Lechner         : AUTO-CI (C++ implementation), FIC-MRCC
   Dagmar Lenk            : GEPOL surface, SMD
   Dimitrios Liakos       : Extrapolation schemes; Compound Job, initial MDCI parallelization
   Dimitrios Manganas     : Further ROCIS development; embedding schemes
   Dimitrios Pantazis     : SARC Basis sets
   Anastasios Papadopoulos: AUTO-CI, single reference methods and gradients
   Taras Petrenko         : DFT Hessian,TD-DFT gradient, ASA, ECA, R-Raman, ABS, FL, XAS/XES, NRVS
   Peter Pinski           : DLPNO-MP2, DLPNO-MP2 Gradient
   Christoph Reimann      : Effective Core Potentials
   Marius Retegan         : Local ZFS, SOC
   Christoph Riplinger    : Optimizer, TS searches, QM/MM, DLPNO-CCSD(T), (RO)-DLPNO pert. Triples
   Tobias Risthaus        : Range-separated hybrids, TD-DFT gradient, RPA, STAB
   Michael Roemelt        : Original ROCIS implementation
   Masaaki Saitow         : Open-shell DLPNO-CCSD energy and density
   Barbara Sandhoefer     : DKH picture change effects
   Avijit Sen             : IP-ROCIS
   Kantharuban Sivalingam : CASSCF convergence, NEVPT2, FIC-MRCI
   Bernardo de Souza      : ESD, SOC TD-DFT
   Georgi Stoychev        : AutoAux, RI-MP2 NMR, DLPNO-MP2 response
   Willem Van den Heuvel  : Paramagnetic NMR
   Boris Wezisla          : Elementary symmetry handling
   Frank Wennmohs         : Technical directorship


 We gratefully acknowledge several colleagues who have allowed us to
 interface, adapt or use parts of their codes:
   Stefan Grimme, W. Hujo, H. Kruse, P. Pracht,  : VdW corrections, initial TS optimization,
                  C. Bannwarth, S. Ehlert          DFT functionals, gCP, sTDA/sTD-DF
   Ed Valeev, F. Pavosevic, A. Kumar             : LibInt (2-el integral package), F12 methods
   Garnet Chan, S. Sharma, J. Yang, R. Olivares  : DMRG
   Ulf Ekstrom                                   : XCFun DFT Library
   Mihaly Kallay                                 : mrcc  (arbitrary order and MRCC methods)
   Jiri Pittner, Ondrej Demel                    : Mk-CCSD
   Frank Weinhold                                : gennbo (NPA and NBO analysis)
   Christopher J. Cramer and Donald G. Truhlar   : smd solvation model
   Lars Goerigk                                  : TD-DFT with DH, B97 family of functionals
   V. Asgeirsson, H. Jonsson                     : NEB implementation
   FAccTs GmbH                                   : IRC, NEB, NEB-TS, DLPNO-Multilevel, CI-OPT
                                                   MM, QMMM, 2- and 3-layer-ONIOM, Crystal-QMMM,
                                                   LR-CPCM, SF, NACMEs, symmetry and pop. for TD-DFT,
                                                   nearIR, NL-DFT gradient (VV10), updates on ESD,
                                                   ML-optimized integration grids
   S Lehtola, MJT Oliveira, MAL Marques          : LibXC Library
   Liviu Ungur et al                             : ANISO software


 Your calculation uses the libint2 library for the computation of 2-el integrals
 For citations please refer to: http://libint.valeyev.net

 Your ORCA version has been built with support for libXC version: 5.1.0
 For citations please refer to: https://tddft.org/programs/libxc/

 This ORCA versions uses:
   CBLAS   interface :  Fast vector & matrix operations
   LAPACKE interface :  Fast linear algebra routines
   SCALAPACK package :  Parallel linear algebra routines
   Shared memory     :  Shared parallel matrices
   BLAS/LAPACK       :  OpenBLAS 0.3.15  USE64BITINT DYNAMIC_ARCH NO_AFFINITY SkylakeX SINGLE_THREADED
        Core in use  :  SkylakeX
   Copyright (c) 2011-2014, The OpenBLAS Project


Your calculation utilizes the atom-pairwise dispersion correction
with the Becke-Johnson damping scheme (D3BJ)
Cite in your paper:
S.Grimme, S.Ehrlich, L.Goerigk, J Comput Chem, (2011), 32, 1456–1465 
S.Grimme, J.Antony, S.Ehrlich and H.Krieg, J.Chem.Phys., 132, (2010), 154104 
   

================================================================================

----- Orbital basis set information -----
Your calculation utilizes the basis: def2-TZVP
   F. Weigend and R. Ahlrichs, Phys. Chem. Chem. Phys. 7, 3297 (2005).

----- AuxJ basis set information -----
Your calculation utilizes the auxiliary basis: def2/J
   F. Weigend, Phys. Chem. Chem. Phys. 8, 1057 (2006).

================================================================================
                                        WARNINGS
                       Please study these warnings very carefully!
================================================================================

INFO   : Checking CIS options ...

WARNING: CIS/ROCIS methods need fully converged wavefunctions
  ===> : Setting SCFConvForced true
         You can overwrite this default with %scf ConvForced false 


INFO   : the flag for use of the SHARK integral package has been found!

================================================================================
                                       INPUT FILE
================================================================================
NAME = ox_es1_C_orca0001.inp
|  1> ! engrad PBE0 D3BJ def2-TZVP  
|  2> %pal nprocs 8 end
|  3> %maxcore 3000
|  4> 
|  5> %tddft
|  6>   nroots 1
|  7>   tda true
|  8>   Iroot 1
|  9>   end 
| 10> *xyz 0 1 
| 11> O   -0.45286221615317035 0.9378621819452786 -0.10061139706366368
| 12> C   -0.7451093778431528 -0.43479315321666895 0.0008616336069502402
| 13> C   0.7353359864001964 -0.5183200269522996 0.010286662672768017
| 14> H   -1.2729444571103372 -0.5864262085786951 0.9082029974993902
| 15> H   -1.3570542469436617 -0.5290407829741021 -0.9698677283138051
| 16> H   1.2064486057401438 -0.5953681338902672 -0.9128325772724775
| 17> H   1.2707380918673834 -0.5993937419228423 0.8379965196014273
| 18> *
| 19> 
| 20>                          ****END OF INPUT****
================================================================================

                     *******************************
                     * Energy+Gradient Calculation *
                     *******************************

---------------------------------
CARTESIAN COORDINATES (ANGSTROEM)
---------------------------------
  O     -0.452862    0.937862   -0.100611
  C     -0.745109   -0.434793    0.000862
  C      0.735336   -0.518320    0.010287
  H     -1.272944   -0.586426    0.908203
  H     -1.357054   -0.529041   -0.969868
  H      1.206449   -0.595368   -0.912833
  H      1.270738   -0.599394    0.837997

----------------------------
CARTESIAN COORDINATES (A.U.)
----------------------------
  NO LB      ZA    FRAG     MASS         X           Y           Z
   0 O     8.0000    0    15.999   -0.855786    1.772303   -0.190128
   1 C     6.0000    0    12.011   -1.408053   -0.821640    0.001628
   2 C     6.0000    0    12.011    1.389584   -0.979483    0.019439
   3 H     1.0000    0     1.008   -2.405516   -1.108185    1.716255
   4 H     1.0000    0     1.008   -2.564461   -0.999742   -1.832784
   5 H     1.0000    0     1.008    2.279857   -1.125083   -1.725004
   6 H     1.0000    0     1.008    2.401347   -1.132690    1.583584

--------------------------------
INTERNAL COORDINATES (ANGSTROEM)
--------------------------------
 O      0   0   0     0.000000000000     0.00000000     0.00000000
 C      1   0   0     1.407084876124     0.00000000     0.00000000
 C      2   1   0     1.482829742863    81.25984961     0.00000000
 H      2   1   3     1.060599266931   107.72999413   117.66486642
 H      2   1   3     1.151379447718    97.43728831   238.52562028
 H      3   2   1     1.039246189332   116.81574741   271.12616988
 H      3   2   1     0.989106652012   123.39201181    97.76612581

---------------------------
INTERNAL COORDINATES (A.U.)
---------------------------
 O      0   0   0     0.000000000000     0.00000000     0.00000000
 C      1   0   0     2.659005063058     0.00000000     0.00000000
 C      2   1   0     2.802142117244    81.25984961     0.00000000
 H      2   1   3     2.004242152336   107.72999413   117.66486642
 H      2   1   3     2.175791832413    97.43728831   238.52562028
 H      3   2   1     1.963890683559   116.81574741   271.12616988
 H      3   2   1     1.869140689543   123.39201181    97.76612581

---------------------
BASIS SET INFORMATION
---------------------
There are 3 groups of distinct atoms

 Group   1 Type O   : 11s6p2d1f contracted to 5s3p2d1f pattern {62111/411/11/1}
 Group   2 Type C   : 11s6p2d1f contracted to 5s3p2d1f pattern {62111/411/11/1}
 Group   3 Type H   : 5s1p contracted to 3s1p pattern {311/1}

Atom   0O    basis set group =>   1
Atom   1C    basis set group =>   2
Atom   2C    basis set group =>   2
Atom   3H    basis set group =>   3
Atom   4H    basis set group =>   3
Atom   5H    basis set group =>   3
Atom   6H    basis set group =>   3
---------------------------------
AUXILIARY/J BASIS SET INFORMATION
---------------------------------
There are 3 groups of distinct atoms

 Group   1 Type O   : 12s5p4d2f1g contracted to 6s4p3d1f1g pattern {711111/2111/211/2/1}
 Group   2 Type C   : 12s5p4d2f1g contracted to 6s4p3d1f1g pattern {711111/2111/211/2/1}
 Group   3 Type H   : 5s2p1d contracted to 3s1p1d pattern {311/2/1}

Atom   0O    basis set group =>   1
Atom   1C    basis set group =>   2
Atom   2C    basis set group =>   2
Atom   3H    basis set group =>   3
Atom   4H    basis set group =>   3
Atom   5H    basis set group =>   3
Atom   6H    basis set group =>   3

Checking for AutoStart:
The File: ox_es1_C_orca0001.gbw exists
Trying to determine its content:
     ... Fine, the file contains calculation information
     ... Fine, the calculation information was read
     ... Fine, the file contains a basis set
     ... Fine, the basis set was read
     ... Fine, the file contains a geometry
     ... Fine, the geometry was read
     ... Fine, the file contains a set of orbitals
     ... Fine, the orbitals can be read
     => possible old guess file was deleted
     => GBW file was renamed to GES file
     => GES file is set as startup file
     => Guess is set to MORead
     ... now leaving AutoStart



           ************************************************************
           *        Program running with 8 parallel MPI-processes     *
           *              working on a common directory               *
           ************************************************************
------------------------------------------------------------------------------
                           ORCA GTO INTEGRAL CALCULATION
                           -- RI-GTO INTEGRALS CHOSEN --
------------------------------------------------------------------------------
------------------------------------------------------------------------------
                   ___                                                        
                  /   \      - P O W E R E D   B Y -                         
                 /     \                                                     
                 |  |  |   _    _      __       _____    __    __             
                 |  |  |  | |  | |    /  \     |  _  \  |  |  /  |          
                  \  \/   | |  | |   /    \    | | | |  |  | /  /          
                 / \  \   | |__| |  /  /\  \   | |_| |  |  |/  /          
                |  |  |   |  __  | /  /__\  \  |    /   |      \           
                |  |  |   | |  | | |   __   |  |    \   |  |\   \          
                \     /   | |  | | |  |  |  |  | |\  \  |  | \   \       
                 \___/    |_|  |_| |__|  |__|  |_| \__\ |__|  \__/        
                                                                              
                      - O R C A' S   B I G   F R I E N D -                    
                                      &                                       
                       - I N T E G R A L  F E E D E R -                       
                                                                              
 v1 FN, 2020, v2 2021                                                         
------------------------------------------------------------------------------


Reading SHARK input file ox_es1_C_orca0001.SHARKINP.tmp ... ok
----------------------
SHARK INTEGRAL PACKAGE
----------------------

Number of atoms                             ...      7
Number of basis functions                   ...    117
Number of shells                            ...     49
Maximum angular momentum                    ...      3
Integral batch strategy                     ... SHARK/LIBINT Hybrid
RI-J (if used) integral strategy            ... SPLIT-RIJ (Revised 2003 algorithm where possible)
Printlevel                                  ...      1
Contraction scheme used                     ... SEGMENTED contraction
Coulomb Range Separation                    ... NOT USED
Exchange Range Separation                   ... NOT USED
Finite Nucleus Model                        ... NOT USED
Auxiliary Coulomb fitting basis             ... AVAILABLE
   # of basis functions in Aux-J            ...    191
   # of shells in Aux-J                     ...     65
   Maximum angular momentum in Aux-J        ...      4
Auxiliary J/K fitting basis                 ... NOT available
Auxiliary Correlation fitting basis         ... NOT available
Auxiliary 'external' fitting basis          ... NOT available
Integral threshold                          ...     2.500000e-11
Primitive cut-off                           ...     2.500000e-12
Primitive pair pre-selection threshold      ...     2.500000e-12

Calculating pre-screening integrals         ... done (  0.0 sec) Dimension = 49
Organizing shell pair data                  ... done (  0.0 sec)
Shell pair information
Total number of shell pairs                 ...      1225
Shell pairs after pre-screening             ...      1219
Total number of primitive shell pairs       ...      3648
Primitive shell pairs kept                  ...      3129
          la=0 lb=0:    372 shell pairs
          la=1 lb=0:    351 shell pairs
          la=1 lb=1:     91 shell pairs
          la=2 lb=0:    162 shell pairs
          la=2 lb=1:     78 shell pairs
          la=2 lb=2:     21 shell pairs
          la=3 lb=0:     81 shell pairs
          la=3 lb=1:     39 shell pairs
          la=3 lb=2:     18 shell pairs
          la=3 lb=3:      6 shell pairs

Calculating one electron integrals          ... done (  0.0 sec)
Calculating RI/J V-Matrix + Cholesky decomp.... done (  0.0 sec)
Calculating Nuclear repulsion               ... done (  0.0 sec) ENN=     71.247284683097 Eh

SHARK setup successfully completed in   0.1 seconds

Maximum memory used throughout the entire GTOINT-calculation: 14.9 MB


           ************************************************************
           *        Program running with 8 parallel MPI-processes     *
           *              working on a common directory               *
           ************************************************************
-------------------------------------------------------------------------------
                                 ORCA SCF
-------------------------------------------------------------------------------

------------
SCF SETTINGS
------------
Hamiltonian:
 Density Functional     Method          .... DFT(GTOs)
 Exchange Functional    Exchange        .... PBE
   PBE kappa parameter   XKappa         ....  0.804000
   PBE mue parameter    XMuePBE         ....  0.219520
 Correlation Functional Correlation     .... PBE
   PBE beta parameter  CBetaPBE         ....  0.066725
 LDA part of GGA corr.  LDAOpt          .... PW91-LDA
 Gradients option       PostSCFGGA      .... off
 Hybrid DFT is turned on
   Fraction HF Exchange ScalHFX         ....  0.250000
   Scaling of DF-GGA-X  ScalDFX         ....  0.750000
   Scaling of DF-GGA-C  ScalDFC         ....  1.000000
   Scaling of DF-LDA-C  ScalLDAC        ....  1.000000
   Perturbative correction              ....  0.000000
   Density functional embedding theory  .... OFF
   NL short-range parameter             ....  6.900000
 RI-approximation to the Coulomb term is turned on
   Number of AuxJ basis functions       .... 191
   RIJ-COSX (HFX calculated with COS-X)).... on


General Settings:
 Integral files         IntName         .... ox_es1_C_orca0001
 Hartree-Fock type      HFTyp           .... RHF
 Total Charge           Charge          ....    0
 Multiplicity           Mult            ....    1
 Number of Electrons    NEL             ....   24
 Basis Dimension        Dim             ....  117
 Nuclear Repulsion      ENuc            ....     71.2472846831 Eh

Convergence Acceleration:
 DIIS                   CNVDIIS         .... on
   Start iteration      DIISMaxIt       ....    12
   Startup error        DIISStart       ....  0.200000
   # of expansion vecs  DIISMaxEq       ....     5
   Bias factor          DIISBfac        ....   1.050
   Max. coefficient     DIISMaxC        ....  10.000
 Trust-Rad. Augm. Hess. CNVTRAH         .... auto
   Auto Start mean grad. ratio tolernc. ....  1.125000
   Auto Start start iteration           ....     1
   Auto Start num. interpolation iter.  ....    10
   Max. Number of Micro iterations      ....    16
   Max. Number of Macro iterations      .... Maxiter - #DIIS iter
   Number of Davidson start vectors     ....     2
   Converg. threshold I  (grad. norm)   ....   1.000e-05
   Converg. threshold II (energy diff.) ....   1.000e-08
   Grad. Scal. Fac. for Micro threshold ....   0.100
   Minimum threshold for Micro iter.    ....   0.010
   NR start threshold (gradient norm)   ....   0.001
   Initial trust radius                 ....   0.400
   Minimum AH scaling param. (alpha)    ....   1.000
   Maximum AH scaling param. (alpha)    .... 1000.000
   Orbital update algorithm             .... Taylor
   White noise on init. David. guess    .... on
   Maximum white noise                  ....   0.010
   Quad. conv. algorithm                .... NR
 SOSCF                  CNVSOSCF        .... on
   Start iteration      SOSCFMaxIt      ....   150
   Startup grad/error   SOSCFStart      ....  0.003300
 Level Shifting         CNVShift        .... on
   Level shift para.    LevelShift      ....    0.2500
   Turn off err/grad.   ShiftErr        ....    0.0010
 Zerner damping         CNVZerner       .... off
 Static damping         CNVDamp         .... on
   Fraction old density DampFac         ....    0.7000
   Max. Damping (<1)    DampMax         ....    0.9800
   Min. Damping (>=0)   DampMin         ....    0.0000
   Turn off err/grad.   DampErr         ....    0.1000
 Fernandez-Rico         CNVRico         .... off

SCF Procedure:
 Maximum # iterations   MaxIter         ....   125
 SCF integral mode      SCFMode         .... Direct
   Integral package                     .... SHARK and LIBINT hybrid scheme
 Reset frequency        DirectResetFreq ....    20
 Integral Threshold     Thresh          ....  2.500e-11 Eh
 Primitive CutOff       TCut            ....  2.500e-12 Eh

Convergence Tolerance:
 Convergence Check Mode ConvCheckMode   .... Total+1el-Energy
 Convergence forced     ConvForced      .... 1
 Energy Change          TolE            ....  1.000e-08 Eh
 1-El. energy change                    ....  1.000e-05 Eh
 Orbital Gradient       TolG            ....  1.000e-05
 Orbital Rotation angle TolX            ....  1.000e-05
 DIIS Error             TolErr          ....  5.000e-07


Diagonalization of the overlap matrix:
Smallest eigenvalue                        ... 4.973e-04
Time for diagonalization                   ...    0.001 sec
Threshold for overlap eigenvalues          ... 1.000e-08
Number of eigenvalues below threshold      ... 0
Time for construction of square roots      ...    0.001 sec
Total time needed                          ...    0.003 sec

---------------------
INITIAL GUESS: MOREAD
---------------------
Guess MOs are being read from file: ox_es1_C_orca0001.ges
Input Geometry matches current geometry (good)
Input basis set matches current basis set (good)
MOs were renormalized
MOs were reorthogonalized (Cholesky)
                      ------------------
                      INITIAL GUESS DONE (   0.0 sec)
                      ------------------
-------------------
DFT GRID GENERATION
-------------------

General Integration Accuracy     IntAcc      ... 4.388
Radial Grid Type                 RadialGrid  ... OptM3 with GC (2021)
Angular Grid (max. ang.)         AngularGrid ... 4 (Lebedev-302)
Angular grid pruning method      GridPruning ... 4 (adaptive)
Weight generation scheme         WeightScheme... Becke
Basis function cutoff            BFCut       ... 1.0000e-11
Integration weight cutoff        WCut        ... 1.0000e-14
Angular grids for H and He will be reduced by one unit
Partially contracted basis set               ... off
Rotationally invariant grid construction     ... off

Total number of grid points                  ...    31309
Total number of batches                      ...      492
Average number of points per batch           ...       63
Average number of grid points per atom       ...     4473
Time for grid setup =    0.119 sec

--------------------
COSX GRID GENERATION
--------------------

GRIDX 1
-------
General Integration Accuracy     IntAcc      ... 3.816
Radial Grid Type                 RadialGrid  ... OptM3 with GC (2021)
Angular Grid (max. ang.)         AngularGrid ... 1 (Lebedev-50)
Angular grid pruning method      GridPruning ... 4 (adaptive)
Weight generation scheme         WeightScheme... Becke
Basis function cutoff            BFCut       ... 1.0000e-11
Integration weight cutoff        WCut        ... 1.0000e-14
Angular grids for H and He will be reduced by one unit
Partially contracted basis set               ... on
Rotationally invariant grid construction     ... off

Total number of grid points                  ...     4039
Total number of batches                      ...       68
Average number of points per batch           ...       59
Average number of grid points per atom       ...      577
UseSFitting                                  ... on

GRIDX 2
-------
General Integration Accuracy     IntAcc      ... 4.020
Radial Grid Type                 RadialGrid  ... OptM3 with GC (2021)
Angular Grid (max. ang.)         AngularGrid ... 2 (Lebedev-110)
Angular grid pruning method      GridPruning ... 4 (adaptive)
Weight generation scheme         WeightScheme... Becke
Basis function cutoff            BFCut       ... 1.0000e-11
Integration weight cutoff        WCut        ... 1.0000e-14
Angular grids for H and He will be reduced by one unit
Partially contracted basis set               ... on
Rotationally invariant grid construction     ... off

Total number of grid points                  ...     8729
Total number of batches                      ...      141
Average number of points per batch           ...       61
Average number of grid points per atom       ...     1247
UseSFitting                                  ... on

GRIDX 3
-------
General Integration Accuracy     IntAcc      ... 4.338
Radial Grid Type                 RadialGrid  ... OptM3 with GC (2021)
Angular Grid (max. ang.)         AngularGrid ... 3 (Lebedev-194)
Angular grid pruning method      GridPruning ... 4 (adaptive)
Weight generation scheme         WeightScheme... Becke
Basis function cutoff            BFCut       ... 1.0000e-11
Integration weight cutoff        WCut        ... 1.0000e-14
Angular grids for H and He will be reduced by one unit
Partially contracted basis set               ... on
Rotationally invariant grid construction     ... off

Total number of grid points                  ...    19232
Total number of batches                      ...      303
Average number of points per batch           ...       63
Average number of grid points per atom       ...     2747
UseSFitting                                  ... on

Time for X-Grid setup             =    0.073 sec

--------------
SCF ITERATIONS
--------------
ITER       Energy         Delta-E        Max-DP      RMS-DP      [F,P]     Damp
               ***  Starting incremental Fock matrix formation  ***
                      *** Initiating the SOSCF procedure ***
                      *** Re-Reading the Fockian *** 
                      *** Removing any level shift *** 
ITER      Energy       Delta-E        Grad      Rot      Max-DP    RMS-DP
  0   -153.59946213 -153.5994621308  0.000001  0.000001  0.000001  0.000000
               *** Restarting incremental Fock matrix formation ***
                  ***Gradient check signals convergence***
              ***Rediagonalizing the Fockian in SOSCF/NRSCF***

               *****************************************************
               *                     SUCCESS                       *
               *           SCF CONVERGED AFTER   1 CYCLES          *
               *****************************************************

Old exchange energy                            =     -4.977356104 Eh
New exchange energy                            =     -4.977358240 Eh
Exchange energy change after final integration =     -0.000002137 Eh
Total energy after final integration           =   -153.599464268 Eh
Final COS-X integration done in                =     0.273 sec

----------------
TOTAL SCF ENERGY
----------------

Total Energy       :         -153.59946427 Eh           -4179.65391 eV

Components:
Nuclear Repulsion  :           71.24728468 Eh            1938.73718 eV
Electronic Energy  :         -224.84674895 Eh           -6118.39109 eV
One Electron Energy:         -349.27335718 Eh           -9504.21123 eV
Two Electron Energy:          124.42660823 Eh            3385.82014 eV
Max COSX asymmetry :            0.00000129 Eh               0.00004 eV

Virial components:
Potential Energy   :         -306.52128602 Eh           -8340.86823 eV
Kinetic Energy     :          152.92182175 Eh            4161.21432 eV
Virial Ratio       :            2.00443130


DFT components:
N(Alpha)           :       12.000005085300 electrons
N(Beta)            :       12.000005085300 electrons
N(Total)           :       24.000010170600 electrons
E(X)               :      -14.925280672351 Eh       
E(C)               :       -0.778935270189 Eh       
E(XC)              :      -15.704215942540 Eh       
DFET-embed. en.    :        0.000000000000 Eh       

---------------
SCF CONVERGENCE
---------------

  Last Energy change         ...   -2.6148e-11  Tolerance :   1.0000e-08
  Last MAX-Density change    ...    3.3307e-16  Tolerance :   1.0000e-07
  Last RMS-Density change    ...    1.4035e-17  Tolerance :   5.0000e-09
  Last Orbital Gradient      ...    6.3411e-07  Tolerance :   1.0000e-05
  Last Orbital Rotation      ...    3.1420e-06  Tolerance :   1.0000e-05

             **** THE GBW FILE WAS UPDATED (ox_es1_C_orca0001.gbw) ****
             **** DENSITY ox_es1_C_orca0001.scfp WAS UPDATED ****
             **** ENERGY FILE WAS UPDATED (ox_es1_C_orca0001.en.tmp) ****
             **** THE GBW FILE WAS UPDATED (ox_es1_C_orca0001.gbw) ****
             **** DENSITY ox_es1_C_orca0001.scfp WAS UPDATED ****
----------------
ORBITAL ENERGIES
----------------

  NO   OCC          E(Eh)            E(eV) 
   0   2.0000     -19.206677      -522.6402 
   1   2.0000     -10.292554      -280.0746 
   2   2.0000     -10.278692      -279.6974 
   3   2.0000      -1.024093       -27.8670 
   4   2.0000      -0.752631       -20.4801 
   5   2.0000      -0.638523       -17.3751 
   6   2.0000      -0.531201       -14.4547 
   7   2.0000      -0.485599       -13.2138 
   8   2.0000      -0.430868       -11.7245 
   9   2.0000      -0.391373       -10.6498 
  10   2.0000      -0.305033        -8.3004 
  11   2.0000      -0.265491        -7.2244 
  12   0.0000      -0.063671        -1.7326 
  13   0.0000       0.062426         1.6987 
  14   0.0000       0.080944         2.2026 
  15   0.0000       0.098490         2.6801 
  16   0.0000       0.119904         3.2627 
  17   0.0000       0.147917         4.0250 
  18   0.0000       0.184690         5.0257 
  19   0.0000       0.199925         5.4402 
  20   0.0000       0.243430         6.6241 
  21   0.0000       0.259412         7.0590 
  22   0.0000       0.271046         7.3755 
  23   0.0000       0.319755         8.7010 
  24   0.0000       0.381313        10.3761 
  25   0.0000       0.404326        11.0023 
  26   0.0000       0.424034        11.5385 
  27   0.0000       0.460211        12.5230 
  28   0.0000       0.463945        12.6246 
  29   0.0000       0.489513        13.3203 
  30   0.0000       0.502511        13.6740 
  31   0.0000       0.533761        14.5244 
  32   0.0000       0.583596        15.8805 
  33   0.0000       0.643329        17.5059 
  34   0.0000       0.660694        17.9784 
  35   0.0000       0.759573        20.6690 
  36   0.0000       0.785442        21.3730 
  37   0.0000       0.827819        22.5261 
  38   0.0000       0.852010        23.1844 
  39   0.0000       0.931489        25.3471 
  40   0.0000       0.974131        26.5075 
  41   0.0000       1.030270        28.0351 
  42   0.0000       1.052288        28.6342 
  43   0.0000       1.063812        28.9478 
  44   0.0000       1.181999        32.1638 
  45   0.0000       1.336212        36.3602 
  46   0.0000       1.405403        38.2430 
  47   0.0000       1.461525        39.7701 
  48   0.0000       1.507347        41.0170 
  49   0.0000       1.525518        41.5115 
  50   0.0000       1.602304        43.6009 
  51   0.0000       1.619942        44.0809 
  52   0.0000       1.656043        45.0632 
  53   0.0000       1.700909        46.2841 
  54   0.0000       1.742542        47.4170 
  55   0.0000       1.768489        48.1230 
  56   0.0000       1.821217        49.5578 
  57   0.0000       1.874391        51.0048 
  58   0.0000       1.908027        51.9201 
  59   0.0000       1.973450        53.7003 
  60   0.0000       2.029225        55.2180 
  61   0.0000       2.142534        58.3013 
  62   0.0000       2.166660        58.9578 
  63   0.0000       2.240836        60.9762 
  64   0.0000       2.255047        61.3630 
  65   0.0000       2.370916        64.5159 
  66   0.0000       2.438136        66.3450 
  67   0.0000       2.476281        67.3830 
  68   0.0000       2.525680        68.7272 
  69   0.0000       2.559494        69.6474 
  70   0.0000       2.600869        70.7732 
  71   0.0000       2.629771        71.5597 
  72   0.0000       2.699928        73.4688 
  73   0.0000       2.730948        74.3129 
  74   0.0000       2.802980        76.2730 
  75   0.0000       2.839499        77.2667 
  76   0.0000       2.899690        78.9046 
  77   0.0000       2.922066        79.5135 
  78   0.0000       2.979243        81.0693 
  79   0.0000       2.999732        81.6269 
  80   0.0000       3.034061        82.5610 
  81   0.0000       3.105939        84.5169 
  82   0.0000       3.141402        85.4819 
  83   0.0000       3.180159        86.5365 
  84   0.0000       3.231171        87.9246 
  85   0.0000       3.246216        88.3340 
  86   0.0000       3.331884        90.6652 
  87   0.0000       3.365322        91.5751 
  88   0.0000       3.501629        95.2842 
  89   0.0000       3.553906        96.7067 
  90   0.0000       3.587250        97.6140 
  91   0.0000       3.631108        98.8075 
  92   0.0000       3.750861       102.0661 
  93   0.0000       3.876814       105.4935 
  94   0.0000       4.053447       110.2999 
  95   0.0000       4.073776       110.8531 
  96   0.0000       4.178732       113.7091 
  97   0.0000       4.300282       117.0166 
  98   0.0000       4.447262       121.0161 
  99   0.0000       4.551725       123.8587 
 100   0.0000       4.634009       126.0978 
 101   0.0000       4.866853       132.4338 
 102   0.0000       5.250945       142.8855 
 103   0.0000       5.273988       143.5125 
 104   0.0000       5.390450       146.6816 
 105   0.0000       5.437799       147.9700 
 106   0.0000       5.794768       157.6837 
 107   0.0000       5.798732       157.7915 
 108   0.0000       5.961553       162.2221 
 109   0.0000       6.437784       175.1810 
 110   0.0000       6.512379       177.2109 
 111   0.0000       6.796918       184.9535 
 112   0.0000       6.939862       188.8432 
 113   0.0000       6.984419       190.0557 
 114   0.0000      22.349474       608.1601 
 115   0.0000      22.430564       610.3667 
 116   0.0000      43.729666      1189.9447 

                    ********************************
                    * MULLIKEN POPULATION ANALYSIS *
                    ********************************

-----------------------
MULLIKEN ATOMIC CHARGES
-----------------------
   0 O :   -0.365897
   1 C :   -0.018365
   2 C :   -0.155913
   3 H :    0.109013
   4 H :    0.117696
   5 H :    0.155286
   6 H :    0.158181
Sum of atomic charges:   -0.0000000

--------------------------------
MULLIKEN REDUCED ORBITAL CHARGES
--------------------------------
  0 O s       :     3.901527  s :     3.901527
      pz      :     1.895221  p :     4.435312
      px      :     1.332379
      py      :     1.207713
      dz2     :     0.003762  d :     0.027640
      dxz     :     0.000947
      dyz     :     0.005392
      dx2y2   :     0.008349
      dxy     :     0.009191
      f0      :     0.000166  f :     0.001418
      f+1     :     0.000082
      f-1     :     0.000338
      f+2     :     0.000141
      f-2     :     0.000072
      f+3     :     0.000342
      f-3     :     0.000277
  1 C s       :     3.198572  s :     3.198572
      pz      :     1.047448  p :     2.663102
      px      :     0.899047
      py      :     0.716607
      dz2     :     0.009616  d :     0.145442
      dxz     :     0.022528
      dyz     :     0.042358
      dx2y2   :     0.030896
      dxy     :     0.040043
      f0      :     0.001774  f :     0.011250
      f+1     :     0.001348
      f-1     :     0.000720
      f+2     :     0.002854
      f-2     :     0.000414
      f+3     :     0.001476
      f-3     :     0.002664
  2 C s       :     3.282185  s :     3.282185
      pz      :     1.073232  p :     2.805993
      px      :     0.958302
      py      :     0.774459
      dz2     :     0.007884  d :     0.061580
      dxz     :     0.020614
      dyz     :     0.008131
      dx2y2   :     0.010826
      dxy     :     0.014126
      f0      :     0.000712  f :     0.006155
      f+1     :     0.001255
      f-1     :     0.000117
      f+2     :     0.000833
      f-2     :     0.000401
      f+3     :     0.001386
      f-3     :     0.001451
  3 H s       :     0.869056  s :     0.869056
      pz      :     0.011131  p :     0.021931
      px      :     0.006687
      py      :     0.004112
  4 H s       :     0.862663  s :     0.862663
      pz      :     0.009925  p :     0.019641
      px      :     0.005878
      py      :     0.003839
  5 H s       :     0.821157  s :     0.821157
      pz      :     0.012492  p :     0.023558
      px      :     0.006506
      py      :     0.004559
  6 H s       :     0.817062  s :     0.817062
      pz      :     0.011519  p :     0.024757
      px      :     0.008139
      py      :     0.005098


                     *******************************
                     * LOEWDIN POPULATION ANALYSIS *
                     *******************************

----------------------
LOEWDIN ATOMIC CHARGES
----------------------
   0 O :   -0.027529
   1 C :   -0.397183
   2 C :   -0.033072
   3 H :    0.108224
   4 H :    0.134431
   5 H :    0.118757
   6 H :    0.096372

-------------------------------
LOEWDIN REDUCED ORBITAL CHARGES
-------------------------------
  0 O s       :     3.527433  s :     3.527433
      pz      :     1.813249  p :     4.434930
      px      :     1.293834
      py      :     1.327847
      dz2     :     0.008192  d :     0.061096
      dxz     :     0.002106
      dyz     :     0.013980
      dx2y2   :     0.018969
      dxy     :     0.017849
      f0      :     0.000408  f :     0.004069
      f+1     :     0.000124
      f-1     :     0.000665
      f+2     :     0.000593
      f-2     :     0.000238
      f+3     :     0.001087
      f-3     :     0.000955
  1 C s       :     2.837344  s :     2.837344
      pz      :     1.051813  p :     2.910648
      px      :     1.026891
      py      :     0.831944
      dz2     :     0.065040  d :     0.571219
      dxz     :     0.116714
      dyz     :     0.112577
      dx2y2   :     0.139241
      dxy     :     0.137647
      f0      :     0.011039  f :     0.077972
      f+1     :     0.005348
      f-1     :     0.007469
      f+2     :     0.017189
      f-2     :     0.001964
      f+3     :     0.012179
      f-3     :     0.022783
  2 C s       :     2.868815  s :     2.868815
      pz      :     1.089254  p :     2.879935
      px      :     1.067461
      py      :     0.723220
      dz2     :     0.039073  d :     0.255205
      dxz     :     0.103297
      dyz     :     0.016021
      dx2y2   :     0.047037
      dxy     :     0.049777
      f0      :     0.003982  f :     0.029117
      f+1     :     0.004482
      f-1     :     0.001474
      f+2     :     0.004848
      f-2     :     0.000971
      f+3     :     0.005858
      f-3     :     0.007502
  3 H s       :     0.826757  s :     0.826757
      pz      :     0.034207  p :     0.065020
      px      :     0.018650
      py      :     0.012163
  4 H s       :     0.813124  s :     0.813124
      pz      :     0.027899  p :     0.052444
      px      :     0.014818
      py      :     0.009728
  5 H s       :     0.809126  s :     0.809126
      pz      :     0.038800  p :     0.072118
      px      :     0.019576
      py      :     0.013741
  6 H s       :     0.821976  s :     0.821976
      pz      :     0.039413  p :     0.081652
      px      :     0.026040
      py      :     0.016200


                      *****************************
                      * MAYER POPULATION ANALYSIS *
                      *****************************

  NA   - Mulliken gross atomic population
  ZA   - Total nuclear charge
  QA   - Mulliken gross atomic charge
  VA   - Mayer's total valence
  BVA  - Mayer's bonded valence
  FA   - Mayer's free valence

  ATOM       NA         ZA         QA         VA         BVA        FA
  0 O      8.3659     8.0000    -0.3659     1.8824     1.8824    -0.0000
  1 C      6.0184     6.0000    -0.0184     3.9994     3.9994     0.0000
  2 C      6.1559     6.0000    -0.1559     3.8781     3.8781     0.0000
  3 H      0.8910     1.0000     0.1090     0.9582     0.9582    -0.0000
  4 H      0.8823     1.0000     0.1177     0.9688     0.9688    -0.0000
  5 H      0.8447     1.0000     0.1553     0.9625     0.9625     0.0000
  6 H      0.8418     1.0000     0.1582     0.9610     0.9610     0.0000

  Mayer bond orders larger than 0.100000
B(  0-O ,  1-C ) :   1.0086 B(  0-O ,  2-C ) :   0.8821 B(  1-C ,  2-C ) :   1.0646 
B(  1-C ,  3-H ) :   0.9568 B(  1-C ,  4-H ) :   0.9649 B(  2-C ,  5-H ) :   0.9570 
B(  2-C ,  6-H ) :   0.9548 

-------
TIMINGS
-------

Total SCF time: 0 days 0 hours 0 min 1 sec 

Total time                  ....       1.034 sec
Sum of individual times     ....       0.925 sec  ( 89.5%)

Fock matrix formation       ....       0.713 sec  ( 69.0%)
  Split-RI-J                ....       0.117 sec  ( 16.4% of F)
  Chain of spheres X        ....       0.526 sec  ( 73.7% of F)
  XC integration            ....       0.062 sec  (  8.7% of F)
    Basis function eval.    ....       0.017 sec  ( 27.8% of XC)
    Density eval.           ....       0.013 sec  ( 21.7% of XC)
    XC-Functional eval.     ....       0.004 sec  (  6.0% of XC)
    XC-Potential eval.      ....       0.020 sec  ( 31.8% of XC)
Diagonalization             ....       0.002 sec  (  0.2%)
Density matrix formation    ....       0.000 sec  (  0.0%)
Population analysis         ....       0.003 sec  (  0.3%)
Initial guess               ....       0.010 sec  (  1.0%)
Orbital Transformation      ....       0.000 sec  (  0.0%)
Orbital Orthonormalization  ....       0.001 sec  (  0.1%)
DIIS solution               ....       0.001 sec  (  0.1%)
SOSCF solution              ....       0.002 sec  (  0.2%)
Grid generation             ....       0.193 sec  ( 18.7%)

Maximum memory used throughout the entire SCF-calculation: 61.1 MB


           ************************************************************
           *        Program running with 8 parallel MPI-processes     *
           *              working on a common directory               *
           ************************************************************
------------------------------------------------------------------------------
                        ORCA TD-DFT/TDA CALCULATION
------------------------------------------------------------------------------

Input orbitals are from        ... ox_es1_C_orca0001.gbw
CI-vector output               ... ox_es1_C_orca0001.cis
Tamm-Dancoff approximation     ... operative
CIS-Integral strategy          ... AO-integrals
Integral handling              ... AO integral Direct
Max. core memory used          ... 3000 MB
Reference state                ... RHF
Generation of triplets         ... off
Follow IRoot                   ... off
Number of operators            ... 1
Orbital ranges used for CIS calculation:
 Operator 0:  Orbitals   3... 11  to  12...116
XAS localization array:
 Operator 0:  Orbitals  -1... -1

-------------------
XC-INTEGRATION GRID
-------------------

General Integration Accuracy     IntAcc      ... 3.467
Radial Grid Type                 RadialGrid  ... OptM3 with GC (2021)
Angular Grid (max. ang.)         AngularGrid ... 1 (Lebedev-50)
Angular grid pruning method      GridPruning ... 4 (adaptive)
Weight generation scheme         WeightScheme... Becke
Basis function cutoff            BFCut       ... 1.0000e-11
Integration weight cutoff        WCut        ... 1.0000e-14
Angular grids for H and He will be reduced by one unit
Partially contracted basis set               ... off
Rotationally invariant grid construction     ... off

Total number of grid points                  ...     4542
Total number of batches                      ...       75
Average number of points per batch           ...       60
Average number of grid points per atom       ...      649

---------------------
COSX-INTEGRATION GRID
---------------------

General Integration Accuracy     IntAcc      ... 3.067
Radial Grid Type                 RadialGrid  ... OptM3 with GC (2021)
Angular Grid (max. ang.)         AngularGrid ... 1 (Lebedev-50)
Angular grid pruning method      GridPruning ... 4 (adaptive)
Weight generation scheme         WeightScheme... Becke
Basis function cutoff            BFCut       ... 1.0000e-11
Integration weight cutoff        WCut        ... 1.0000e-14
Angular grids for H and He will be reduced by one unit
Partially contracted basis set               ... on
Rotationally invariant grid construction     ... off

Total number of grid points                  ...     2087
Total number of batches                      ...       38
Average number of points per batch           ...       54
Average number of grid points per atom       ...      298

---------------
TD-DFT XC SETUP
---------------

DFT calculation                         ... on
Name of the grid file                   ... ox_es1_C_orca0001.grid_cis.tmp
Exchange functional (TD-DFT)            ... PBE
   PBE kappa parameter  XKappa (TD-DFT) ...  0.804000
   PBE mue parameter   XMuePBE (TD-DFT) ...  0.219520
Correlation functional (TD-DFT)         ... PBE
   PBE beta parameter CBetaPBE (TD-DFT) ...  0.066725
 LDA part of GGA corr.  LDAOpt (TD-DFT) ... PW91-LDA
Hybrid DFT                              ... on
   Exchange mixing (TD-DFT)             ...  0.250
   GGA exch. scaling (TD-DFT)           ...  0.750
   GGA corr. scaling (TD-DFT)           ...  1.000

Building densities             ... done
Calculating rho(r) on the grid ... done
Building xc-kernel on the grid ... done
                    *** TD-DFT CALCULATION INITIALIZED ***

------------------------
DAVIDSON-DIAGONALIZATION
------------------------

Dimension of the eigenvalue problem            ...    945
Number of roots to be determined               ...      1
Maximum size of the expansion space            ...     10
Maximum number of iterations                   ...    100
Convergence tolerance for the residual         ...    2.500e-07
Convergence tolerance for the energies         ...    2.500e-07
Orthogonality tolerance                        ...    1.000e-14
Level Shift                                    ...    0.000e+00
Constructing the preconditioner                ... o.k.
Building the initial guess                     ... o.k.
Number of trial vectors determined             ...     10


                       ****Iteration    0****

   Memory handling for direct AO based CIS:
   Memory per vector needed      ...     1 MB
   Memory needed                 ...     1 MB
   Memory available              ...  3000 MB
   Number of vectors per batch   ...  3000
   Number of batches             ...     1
   Time for densities:            0.000
   Time for RI-J (Direct):        0.016
   Time for K (COSX):             0.055
   Time for XC-Integration:       0.015
   Time for Sigma-Completion:     0.000
   Size of expansion space: 3
   Lowest Energy          :     0.119740195706
   Maximum Energy change  :     0.119740195706 (vector 0)
   Maximum residual norm  :     0.003209620476

                       ****Iteration    1****
   Time for densities:            0.000
   Time for RI-J (Direct):        0.012
   Time for K (COSX):             0.048
   Time for XC-Integration:       0.006
   Time for Sigma-Completion:     0.000
   Size of expansion space: 4
   Lowest Energy          :     0.117288567841
   Maximum Energy change  :     0.002451627865 (vector 0)
   Maximum residual norm  :     0.000086577616

                       ****Iteration    2****
   Time for densities:            0.000
   Time for RI-J (Direct):        0.012
   Time for K (COSX):             0.048
   Time for XC-Integration:       0.006
   Time for Sigma-Completion:     0.000
   Size of expansion space: 5
   Lowest Energy          :     0.117228301382
   Maximum Energy change  :     0.000060266460 (vector 0)
   Maximum residual norm  :     0.000004571424

                       ****Iteration    3****
   Time for densities:            0.000
   Time for RI-J (Direct):        0.012
   Time for K (COSX):             0.048
   Time for XC-Integration:       0.006
   Time for Sigma-Completion:     0.000
   Size of expansion space: 6
   Lowest Energy          :     0.117224458866
   Maximum Energy change  :     0.000003842515 (vector 0)
   Maximum residual norm  :     0.000000309457

                       ****Iteration    4****
   Time for densities:            0.000
   Time for RI-J (Direct):        0.012
   Time for K (COSX):             0.048
   Time for XC-Integration:       0.006
   Time for Sigma-Completion:     0.000
   Size of expansion space: 7
   Lowest Energy          :     0.117224163580
   Maximum Energy change  :     0.000000295287 (vector 0)
   Maximum residual norm  :     0.000000014050

      *** CONVERGENCE OF RESIDUAL NORM REACHED ***

Storing the converged CI vectors               ... ox_es1_C_orca0001.cis1

                 *** DAVIDSON DONE ***

Total time for solving the CIS problem:     0.359sec

------------------------------------
TD-DFT/TDA EXCITED STATES (SINGLETS)
------------------------------------

the weight of the individual excitations are printed if larger than 1.0e-02

STATE  1:  E=   0.117224 au      3.190 eV    25727.7 cm**-1 <S**2> =   0.000000
    11a ->  12a  :     0.990808 (c= -0.99539330)


-----------------------------
TD-DFT/TDA-EXCITATION SPECTRA
-----------------------------

Center of mass = ( -0.3224,  0.0527, -0.0692)
Calculating the Dipole integrals                  ... done
Transforming integrals                            ... done
Calculating the Linear Momentum integrals         ... done
Transforming integrals                            ... done
Calculating angular momentum integrals            ... done
Transforming integrals                            ... done

-----------------------------------------------------------------------------
         ABSORPTION SPECTRUM VIA TRANSITION ELECTRIC DIPOLE MOMENTS
-----------------------------------------------------------------------------
State   Energy    Wavelength  fosc         T2        TX        TY        TZ  
        (cm-1)      (nm)                 (au**2)    (au)      (au)      (au) 
-----------------------------------------------------------------------------
   1   25727.7    388.7   0.000613744   0.00785  -0.00718   0.00053   0.08833

-----------------------------------------------------------------------------
         ABSORPTION SPECTRUM VIA TRANSITION VELOCITY DIPOLE MOMENTS
-----------------------------------------------------------------------------
State   Energy    Wavelength   fosc        P2         PX        PY        PZ  
        (cm-1)      (nm)                 (au**2)     (au)      (au)      (au) 
-----------------------------------------------------------------------------
   1   25727.7    388.7   0.009397006   0.00165   0.00186  -0.00802  -0.03981

-------------------------------------------------------------------
                             CD SPECTRUM
-------------------------------------------------------------------
State  Energy     Wavelength     R         MX        MY        MZ   
       (cm-1)       (nm)     (1e40*cgs)   (au)      (au)      (au)  
-------------------------------------------------------------------
   1   25727.7    388.7     -0.00193  -0.02199  -0.25406  -0.00030

-------------------------------------------------------------------
         CD SPECTRUM VIA TRANSITION VELOCITY DIPOLE MOMENTS        
-------------------------------------------------------------------
State  Energy     Wavelength     R         MX        MY        MZ   
       (cm-1)       (nm)     (1e40*cgs)   (au)      (au)      (au)  
-------------------------------------------------------------------
   1   25727.7    388.7      8.08307  -0.02199  -0.25406  -0.00030

Total run time:        0.621 sec

           *** ORCA-CIS/TD-DFT FINISHED WITHOUT ERROR ***

Maximum memory used throughout the entire CIS-calculation: 49.4 MB

-----------------------
CIS/TD-DFT TOTAL ENERGY
-----------------------

    E(SCF)  =   -153.599464268 Eh
    DE(CIS) =      0.117224164 Eh (Root  1)
    ----------------------------- ---------
    E(tot)  =   -153.482240104 Eh



-------------------------------------------------------------------------------
                          DFT DISPERSION CORRECTION                            
                                                                               
                              DFTD3 V3.1  Rev 1                                
                          USING Becke-Johnson damping                          
-------------------------------------------------------------------------------
The PBE0 functional is recognized
Active option DFTDOPT                   ...         4   

molecular C6(AA) [au] = 379.607741 


            DFT-D V3
 parameters
 s6 scaling factor         :     1.0000 
 a1 scaling factor         :     0.4145 
 s8 scaling factor         :     1.2177 
 a2 scaling factor         :     4.8593 
 ad hoc parameters k1-k3   :    16.0000     1.3333    -4.0000 

 Edisp/kcal,au: -1.614640781368  -0.002573093596 
 E6   /kcal   :  -1.055789646 
 E8   /kcal   :  -0.558851135 
 % E8         :  34.611483977 

-------------------------   ----------------
Dispersion correction           -0.002573094
-------------------------   ----------------


-------------------------   --------------------
FINAL SINGLE POINT ENERGY      -153.484813197710
-------------------------   --------------------



           ************************************************************
           *        Program running with 8 parallel MPI-processes     *
           *              working on a common directory               *
           ************************************************************
------------------------------------------------------------------------------
                         ORCA SCF GRADIENT CALCULATION
------------------------------------------------------------------------------


------------------------
TD-DFT GRADIENT XC SETUP
------------------------

Building densities                     ... done
Calculating rho(r) on the grid         ... done
Building xc-kernel on the grid         ... done
Building xc 3rd derivative on the grid      ... done
                *** TD-DFT GRADIENT CALCULATION INITIALIZED ***

-------------------
TD-DFT/TDA GRADIENT
-------------------

Reference wavefunction             ... RHF
State of interest                  ... 1
Basis dimension                    ... 117
DFT-XC contribution needed         ... YES
RI-approximation                   ... ON
CIS-vectors being read from        ... ox_es1_C_orca0001.cis

 => Number of Vectors found: 1
 => Orbital Window: 3...11 -> 12...116

Reading the CIS file                     ... done
Norm of the CI vector                    ... 1.000000000
Making the CIS (pseudo)densities         ... done
Making operators G(D) and Q(T)           ... done
Transforming the Fock operators          ... done
Making the frozen-core relaxed density   ... done
Constructing the G(H) operator           ... done
Transforming the G(H) operator           ... done
Calculating the CIS Lagrangian           ... done
Solving the Z-vector equations           ... done
Finalizing the relaxed density           ... done
Storing the relaxed density              ... done
Constructing the G(Z) operator           ... done
Transforming the G(Z) operator           ... done
Making the W-matrix                      ... done
Finalizing the W-matrix                  ... done
Transforming the W-matrix                ... done
Nuclear repulsion gradient               ... done
One-Electron gradient                    ... done
Dispersion correction                    ... done
Prescreening matrices                    ... done
COSX-gradient                            ... done
Coulomb gradient (RI)                    ... done
Exchange-Correlation gradient            ... done

                 ---------------------------
                 EXCITED STATE GRADIENT DONE
                 ---------------------------

------------------
CARTESIAN GRADIENT
------------------

   1   O   :    0.054197279   -0.047030115   -0.003087646
   2   C   :   -0.056682371   -0.053899815    0.037587820
   3   C   :    0.048613844    0.069052451    0.051179080
   4   H   :    0.020451750    0.011987501   -0.015517594
   5   H   :   -0.011267306    0.017010399   -0.025026050
   6   H   :   -0.015693839   -0.000830765    0.026926370
   7   H   :   -0.039595335    0.003728627   -0.072028185

Difference to translation invariance:
           :    0.0000240214    0.0000182829    0.0000337942

Difference to rotation invariance:
           :    0.0000910750   -0.0000954756    0.0005804511

Norm of the cartesian gradient     ...    0.1789626460
RMS gradient                       ...    0.0390528510
MAX gradient                       ...    0.0720281854

------------------------------------------------------------------------------
                  RELAXED CIS/TDA DENSITY POPULATION ANALYSIS
                                   IROOT 1
------------------------------------------------------------------------------
------------------------------------------------------------------------------
                           ORCA POPULATION ANALYSIS
------------------------------------------------------------------------------
Input electron density              ... ox_es1_C_orca0001.cisp
BaseName (.gbw .S,...)              ... ox_es1_C_orca0001

                    ********************************
                    * MULLIKEN POPULATION ANALYSIS *
                    ********************************

-----------------------
MULLIKEN ATOMIC CHARGES
-----------------------
   0 O :   -0.164091
   1 C :   -0.057938
   2 C :   -0.376529
   3 H :    0.151156
   4 H :    0.162005
   5 H :    0.138672
   6 H :    0.146726
Sum of atomic charges:   -0.0000000

--------------------------------
MULLIKEN REDUCED ORBITAL CHARGES
--------------------------------
  0 O s       :     3.879441  s :     3.879441
      pz      :     1.096323  p :     4.257148
      px      :     1.814089
      py      :     1.346736
      dz2     :     0.003028  d :     0.026496
      dxz     :     0.001009
      dyz     :     0.005877
      dx2y2   :     0.008082
      dxy     :     0.008500
      f0      :     0.000034  f :     0.001006
      f+1     :    -0.000061
      f-1     :     0.000096
      f+2     :     0.000160
      f-2     :     0.000047
      f+3     :     0.000424
      f-3     :     0.000306
  1 C s       :     3.204015  s :     3.204015
      pz      :     1.011870  p :     2.715795
      px      :     0.977044
      py      :     0.726882
      dz2     :     0.008635  d :     0.127412
      dxz     :     0.023249
      dyz     :     0.020678
      dx2y2   :     0.031700
      dxy     :     0.043149
      f0      :     0.000994  f :     0.010716
      f+1     :     0.001427
      f-1     :     0.000506
      f+2     :     0.001555
      f-2     :     0.000260
      f+3     :     0.003236
      f-3     :     0.002737
  2 C s       :     3.276535  s :     3.276535
      pz      :     1.063788  p :     3.041786
      px      :     0.899896
      py      :     1.078102
      dz2     :     0.006894  d :     0.052257
      dxz     :     0.013059
      dyz     :     0.001575
      dx2y2   :     0.014155
      dxy     :     0.016575
      f0      :     0.000645  f :     0.005951
      f+1     :     0.001082
      f-1     :     0.000274
      f+2     :     0.000769
      f-2     :     0.000185
      f+3     :     0.001753
      f-3     :     0.001244
  3 H s       :     0.826424  s :     0.826424
      pz      :     0.011480  p :     0.022420
      px      :     0.006882
      py      :     0.004058
  4 H s       :     0.817840  s :     0.817840
      pz      :     0.010310  p :     0.020155
      px      :     0.006219
      py      :     0.003626
  5 H s       :     0.835900  s :     0.835900
      pz      :     0.011214  p :     0.025428
      px      :     0.006392
      py      :     0.007822
  6 H s       :     0.825873  s :     0.825873
      pz      :     0.010394  p :     0.027400
      px      :     0.007809
      py      :     0.009197


                     *******************************
                     * LOEWDIN POPULATION ANALYSIS *
                     *******************************

----------------------
LOEWDIN ATOMIC CHARGES
----------------------
   0 O :    0.131572
   1 C :   -0.361462
   2 C :   -0.265148
   3 H :    0.137865
   4 H :    0.172128
   5 H :    0.102996
   6 H :    0.082049

-------------------------------
LOEWDIN REDUCED ORBITAL CHARGES
-------------------------------
  0 O s       :     3.548568  s :     3.548568
      pz      :     1.061182  p :     4.247833
      px      :     1.742174
      py      :     1.444477
      dz2     :     0.009046  d :     0.068171
      dxz     :     0.002142
      dyz     :     0.013119
      dx2y2   :     0.018140
      dxy     :     0.025723
      f0      :     0.000402  f :     0.003856
      f+1     :     0.000066
      f-1     :     0.000458
      f+2     :     0.000489
      f-2     :     0.000186
      f+3     :     0.001331
      f-3     :     0.000924
  1 C s       :     2.840711  s :     2.840711
      pz      :     1.004415  p :     2.931230
      px      :     1.078535
      py      :     0.848280
      dz2     :     0.063152  d :     0.508685
      dxz     :     0.109221
      dyz     :     0.055041
      dx2y2   :     0.148999
      dxy     :     0.132272
      f0      :     0.006871  f :     0.080836
      f+1     :     0.005342
      f-1     :     0.007239
      f+2     :     0.010682
      f-2     :     0.001512
      f+3     :     0.026164
      f-3     :     0.023026
  2 C s       :     2.871272  s :     2.871272
      pz      :     1.083136  p :     3.085393
      px      :     1.039490
      py      :     0.962767
      dz2     :     0.046330  d :     0.277231
      dxz     :     0.094313
      dyz     :     0.006785
      dx2y2   :     0.054516
      dxy     :     0.075286
      f0      :     0.003839  f :     0.031251
      f+1     :     0.004731
      f-1     :     0.002048
      f+2     :     0.004245
      f-2     :     0.000600
      f+3     :     0.008595
      f-3     :     0.007192
  3 H s       :     0.795857  s :     0.795857
      pz      :     0.034711  p :     0.066278
      px      :     0.019476
      py      :     0.012090
  4 H s       :     0.774846  s :     0.774846
      pz      :     0.028337  p :     0.053026
      px      :     0.015604
      py      :     0.009085
  5 H s       :     0.819693  s :     0.819693
      pz      :     0.035105  p :     0.077311
      px      :     0.019205
      py      :     0.023002
  6 H s       :     0.828775  s :     0.828775
      pz      :     0.036137  p :     0.089176
      px      :     0.025157
      py      :     0.027883


                      *****************************
                      * MAYER POPULATION ANALYSIS *
                      *****************************

  NA   - Mulliken gross atomic population
  ZA   - Total nuclear charge
  QA   - Mulliken gross atomic charge
  VA   - Mayer's total valence
  BVA  - Mayer's bonded valence
  FA   - Mayer's free valence

  ATOM       NA         ZA         QA         VA         BVA        FA
  0 O      8.1641     8.0000    -0.1641     1.9235     1.1192     0.8042
  1 C      6.0579     6.0000    -0.0579     3.9954     3.9165     0.0789
  2 C      6.3765     6.0000    -0.3765     3.9225     3.1272     0.7953
  3 H      0.8488     1.0000     0.1512     0.9624     0.9200     0.0424
  4 H      0.8380     1.0000     0.1620     0.9617     0.8987     0.0630
  5 H      0.8613     1.0000     0.1387     0.9822     0.9755     0.0066
  6 H      0.8533     1.0000     0.1467     0.9839     0.9743     0.0095

  Mayer bond orders larger than 0.100000
B(  0-O ,  1-C ) :   1.0329 B(  1-C ,  2-C ) :   1.0937 B(  1-C ,  3-H ) :   0.9116 
B(  1-C ,  4-H ) :   0.8805 B(  2-C ,  5-H ) :   0.9714 B(  2-C ,  6-H ) :   0.9692 



-------
TIMINGS
-------

Total TD-DFT gradient time         ...        5.060 sec

Fock matrix formation       ....       0.830 sec  ( 16.4%)
  Coulomb formation         ....       0.676 sec  ( 81.5% of F)
  RI-J                      ....       0.288 sec  ( 34.7% of F)
  Chain of spheres X        ....       0.388 sec  ( 46.8% of F)
  XC integration            ....       0.153 sec  ( 18.5% of F)
Z-vector equation           ....       1.549 sec  ( 30.6%)
One electron gradient       ....       0.032 sec  (  0.6%)
Prescreening matrices       ....       0.153 sec  (  3.0%)
RI-J Coulomb gradient       ....       0.244 sec  (  4.8%)
COSX gradient               ....       0.339 sec  (  6.7%)
XC gradient                 ....       1.605 sec  ( 31.7%)

Maximum memory used throughout the entire SCFGRAD-calculation: 130.3 MB

                            ***************************************
                            *     ORCA property calculations      *
                            ***************************************

                                    ---------------------
                                    Active property flags
                                    ---------------------
   (+) Dipole Moment


------------------------------------------------------------------------------
                       ORCA ELECTRIC PROPERTIES CALCULATION
------------------------------------------------------------------------------

Dipole Moment Calculation                       ... on
Quadrupole Moment Calculation                   ... off
Polarizability Calculation                      ... off
GBWName                                         ... ox_es1_C_orca0001.gbw
Electron density                                ... ox_es1_C_orca0001.scfp
The origin for moment calculation is the CENTER OF MASS  = (-0.322444,  0.052690 -0.069208)

-------------
DIPOLE MOMENT
-------------
                                X             Y             Z
Electronic contribution:     -0.13705       1.25501       0.07767
Nuclear contribution   :      0.49279      -2.25858       0.00843
                        -----------------------------------------
Total Dipole Moment    :      0.35574      -1.00357       0.08610
                        -----------------------------------------
Magnitude (a.u.)       :      1.06823
Magnitude (Debye)      :      2.71522



--------------------
Rotational spectrum 
--------------------
 
Rotational constants in cm-1:     0.971364     0.526663     0.394239 
Rotational constants in MHz : 29120.767205 15788.969041 11818.998777 

 Dipole components along the rotational axes: 
x,y,z [a.u.] :    -0.951964    -0.484636    -0.000029 
x,y,z [Debye]:    -2.419701    -1.231847    -0.000073 

 

                        *** CIS RELAXED DENSITY ***

------------------------------------------------------------------------------
                       ORCA ELECTRIC PROPERTIES CALCULATION
------------------------------------------------------------------------------

Dipole Moment Calculation                       ... on
Quadrupole Moment Calculation                   ... off
Polarizability Calculation                      ... off
GBWName                                         ... ox_es1_C_orca0001.gbw
Electron density                                ... ox_es1_C_orca0001.cisp
The origin for moment calculation is the CENTER OF MASS  = (-0.322444,  0.052690 -0.069208)

-------------
DIPOLE MOMENT
-------------
                                X             Y             Z
Electronic contribution:     -0.87271       1.72966       0.03975
Nuclear contribution   :      0.49279      -2.25858       0.00843
                        -----------------------------------------
Total Dipole Moment    :     -0.37993      -0.52892       0.04818
                        -----------------------------------------
Magnitude (a.u.)       :      0.65301
Magnitude (Debye)      :      1.65982



--------------------
Rotational spectrum 
--------------------
 
Rotational constants in cm-1:     0.971364     0.526663     0.394239 
Rotational constants in MHz : 29120.767205 15788.969041 11818.998777 

 Dipole components along the rotational axes: 
x,y,z [a.u.] :    -0.090767    -0.646660     0.004060 
x,y,z [Debye]:    -0.230710    -1.643680     0.010319 

 

Timings for individual modules:

Sum of individual times         ...        7.503 sec (=   0.125 min)
GTO integral calculation        ...        0.257 sec (=   0.004 min)   3.4 %
SCF iterations                  ...        1.196 sec (=   0.020 min)  15.9 %
CIS module                      ...        0.825 sec (=   0.014 min)  11.0 %
SCF Gradient evaluation         ...        5.224 sec (=   0.087 min)  69.6 %
                             ****ORCA TERMINATED NORMALLY****
TOTAL RUN TIME: 0 days 0 hours 0 minutes 7 seconds 852 msec
