
                                 *****************
                                 * O   R   C   A *
                                 *****************

                                            #,                                       
                                            ###                                      
                                            ####                                     
                                            #####                                    
                                            ######                                   
                                           ########,                                 
                                     ,,################,,,,,                         
                               ,,#################################,,                 
                          ,,##########################################,,             
                       ,#########################################, ''#####,          
                    ,#############################################,,   '####,        
                  ,##################################################,,,,####,       
                ,###########''''           ''''###############################       
              ,#####''   ,,,,##########,,,,          '''####'''          '####       
            ,##' ,,,,###########################,,,                        '##       
           ' ,,###''''                  '''############,,,                           
         ,,##''                                '''############,,,,        ,,,,,,###''
      ,#''                                            '''#######################'''  
     '                                                          ''''####''''         
             ,#######,   #######,   ,#######,      ##                                
            ,#'     '#,  ##    ##  ,#'     '#,    #''#        ######   ,####,        
            ##       ##  ##   ,#'  ##            #'  '#       #        #'  '#        
            ##       ##  #######   ##           ,######,      #####,   #    #        
            '#,     ,#'  ##    ##  '#,     ,#' ,#      #,         ##   #,  ,#        
             '#######'   ##     ##  '#######'  #'      '#     #####' # '####'        



                  #######################################################
                  #                        -***-                        #
                  #          Department of theory and spectroscopy      #
                  #    Directorship and core code : Frank Neese         #
                  #        Max Planck Institute fuer Kohlenforschung    #
                  #                Kaiser Wilhelm Platz 1               #
                  #                 D-45470 Muelheim/Ruhr               #
                  #                      Germany                        #
                  #                                                     #
                  #                  All rights reserved                #
                  #                        -***-                        #
                  #######################################################


                         Program Version 5.0.2 -  RELEASE  -


 With contributions from (in alphabetic order):
   Daniel Aravena         : Magnetic Suceptibility
   Michael Atanasov       : Ab Initio Ligand Field Theory (pilot matlab implementation)
   Alexander A. Auer      : GIAO ZORA, VPT2 properties, NMR spectrum
   Ute Becker             : Parallelization
   Giovanni Bistoni       : ED, misc. LED, open-shell LED, HFLD
   Martin Brehm           : Molecular dynamics
   Dmytro Bykov           : SCF Hessian
   Vijay G. Chilkuri      : MRCI spin determinant printing, contributions to CSF-ICE
   Dipayan Datta          : RHF DLPNO-CCSD density
   Achintya Kumar Dutta   : EOM-CC, STEOM-CC
   Dmitry Ganyushin       : Spin-Orbit,Spin-Spin,Magnetic field MRCI
   Miquel Garcia          : C-PCM and meta-GGA Hessian, CC/C-PCM, Gaussian charge scheme
   Yang Guo               : DLPNO-NEVPT2, F12-NEVPT2, CIM, IAO-localization
   Andreas Hansen         : Spin unrestricted coupled pair/coupled cluster methods
   Benjamin Helmich-Paris : MC-RPA, TRAH-SCF, COSX integrals
   Lee Huntington         : MR-EOM, pCC
   Robert Izsak           : Overlap fitted RIJCOSX, COSX-SCS-MP3, EOM
   Marcus Kettner         : VPT2
   Christian Kollmar      : KDIIS, OOCD, Brueckner-CCSD(T), CCSD density, CASPT2, CASPT2-K
   Simone Kossmann        : Meta GGA functionals, TD-DFT gradient, OOMP2, MP2 Hessian
   Martin Krupicka        : Initial AUTO-CI
   Lucas Lang             : DCDCAS
   Marvin Lechner         : AUTO-CI (C++ implementation), FIC-MRCC
   Dagmar Lenk            : GEPOL surface, SMD
   Dimitrios Liakos       : Extrapolation schemes; Compound Job, initial MDCI parallelization
   Dimitrios Manganas     : Further ROCIS development; embedding schemes
   Dimitrios Pantazis     : SARC Basis sets
   Anastasios Papadopoulos: AUTO-CI, single reference methods and gradients
   Taras Petrenko         : DFT Hessian,TD-DFT gradient, ASA, ECA, R-Raman, ABS, FL, XAS/XES, NRVS
   Peter Pinski           : DLPNO-MP2, DLPNO-MP2 Gradient
   Christoph Reimann      : Effective Core Potentials
   Marius Retegan         : Local ZFS, SOC
   Christoph Riplinger    : Optimizer, TS searches, QM/MM, DLPNO-CCSD(T), (RO)-DLPNO pert. Triples
   Tobias Risthaus        : Range-separated hybrids, TD-DFT gradient, RPA, STAB
   Michael Roemelt        : Original ROCIS implementation
   Masaaki Saitow         : Open-shell DLPNO-CCSD energy and density
   Barbara Sandhoefer     : DKH picture change effects
   Avijit Sen             : IP-ROCIS
   Kantharuban Sivalingam : CASSCF convergence, NEVPT2, FIC-MRCI
   Bernardo de Souza      : ESD, SOC TD-DFT
   Georgi Stoychev        : AutoAux, RI-MP2 NMR, DLPNO-MP2 response
   Willem Van den Heuvel  : Paramagnetic NMR
   Boris Wezisla          : Elementary symmetry handling
   Frank Wennmohs         : Technical directorship


 We gratefully acknowledge several colleagues who have allowed us to
 interface, adapt or use parts of their codes:
   Stefan Grimme, W. Hujo, H. Kruse, P. Pracht,  : VdW corrections, initial TS optimization,
                  C. Bannwarth, S. Ehlert          DFT functionals, gCP, sTDA/sTD-DF
   Ed Valeev, F. Pavosevic, A. Kumar             : LibInt (2-el integral package), F12 methods
   Garnet Chan, S. Sharma, J. Yang, R. Olivares  : DMRG
   Ulf Ekstrom                                   : XCFun DFT Library
   Mihaly Kallay                                 : mrcc  (arbitrary order and MRCC methods)
   Jiri Pittner, Ondrej Demel                    : Mk-CCSD
   Frank Weinhold                                : gennbo (NPA and NBO analysis)
   Christopher J. Cramer and Donald G. Truhlar   : smd solvation model
   Lars Goerigk                                  : TD-DFT with DH, B97 family of functionals
   V. Asgeirsson, H. Jonsson                     : NEB implementation
   FAccTs GmbH                                   : IRC, NEB, NEB-TS, DLPNO-Multilevel, CI-OPT
                                                   MM, QMMM, 2- and 3-layer-ONIOM, Crystal-QMMM,
                                                   LR-CPCM, SF, NACMEs, symmetry and pop. for TD-DFT,
                                                   nearIR, NL-DFT gradient (VV10), updates on ESD,
                                                   ML-optimized integration grids
   S Lehtola, MJT Oliveira, MAL Marques          : LibXC Library
   Liviu Ungur et al                             : ANISO software


 Your calculation uses the libint2 library for the computation of 2-el integrals
 For citations please refer to: http://libint.valeyev.net

 Your ORCA version has been built with support for libXC version: 5.1.0
 For citations please refer to: https://tddft.org/programs/libxc/

 This ORCA versions uses:
   CBLAS   interface :  Fast vector & matrix operations
   LAPACKE interface :  Fast linear algebra routines
   SCALAPACK package :  Parallel linear algebra routines
   Shared memory     :  Shared parallel matrices
   BLAS/LAPACK       :  OpenBLAS 0.3.15  USE64BITINT DYNAMIC_ARCH NO_AFFINITY SkylakeX SINGLE_THREADED
        Core in use  :  SkylakeX
   Copyright (c) 2011-2014, The OpenBLAS Project


Your calculation utilizes the atom-pairwise dispersion correction
with the Becke-Johnson damping scheme (D3BJ)
Cite in your paper:
S.Grimme, S.Ehrlich, L.Goerigk, J Comput Chem, (2011), 32, 1456–1465 
S.Grimme, J.Antony, S.Ehrlich and H.Krieg, J.Chem.Phys., 132, (2010), 154104 
   

================================================================================

----- Orbital basis set information -----
Your calculation utilizes the basis: def2-TZVP
   F. Weigend and R. Ahlrichs, Phys. Chem. Chem. Phys. 7, 3297 (2005).

----- AuxJ basis set information -----
Your calculation utilizes the auxiliary basis: def2/J
   F. Weigend, Phys. Chem. Chem. Phys. 8, 1057 (2006).

================================================================================
                                        WARNINGS
                       Please study these warnings very carefully!
================================================================================

INFO   : Checking CIS options ...

WARNING: CIS/ROCIS methods need fully converged wavefunctions
  ===> : Setting SCFConvForced true
         You can overwrite this default with %scf ConvForced false 


INFO   : the flag for use of the SHARK integral package has been found!

================================================================================
                                       INPUT FILE
================================================================================
NAME = ox_es1_G_orca0008.inp
|  1> ! engrad PBE0 D3BJ def2-TZVP  
|  2> %pal nprocs 8 end
|  3> %maxcore 3000
|  4> 
|  5> %tddft
|  6>   nroots 1
|  7>   tda true
|  8>   Iroot 1
|  9>   end 
| 10> *xyz 0 1 
| 11> O   -1.4810054250092544 0.7129739456254789 -0.07636875863297098
| 12> C   -0.7880826838857367 -0.3635058414919722 0.0669064665210543
| 13> C   0.7968541339384557 -0.3684464296454291 -0.06229125508486735
| 14> H   -1.2690844871139124 -0.6914210211832355 1.0778467976862363
| 15> H   -1.2188944981965943 -0.6793815533140738 -1.0042858012523828
| 16> H   1.3233036481950111 -0.7201584285047639 -0.8617283816668724
| 17> H   1.2602611054019595 -0.7012091268455557 1.0083226856811036
| 18> *
| 19> 
| 20>                          ****END OF INPUT****
================================================================================

                     *******************************
                     * Energy+Gradient Calculation *
                     *******************************

---------------------------------
CARTESIAN COORDINATES (ANGSTROEM)
---------------------------------
  O     -1.481005    0.712974   -0.076369
  C     -0.788083   -0.363506    0.066906
  C      0.796854   -0.368446   -0.062291
  H     -1.269084   -0.691421    1.077847
  H     -1.218894   -0.679382   -1.004286
  H      1.323304   -0.720158   -0.861728
  H      1.260261   -0.701209    1.008323

----------------------------
CARTESIAN COORDINATES (A.U.)
----------------------------
  NO LB      ZA    FRAG     MASS         X           Y           Z
   0 O     8.0000    0    15.999   -2.798695    1.347325   -0.144316
   1 C     6.0000    0    12.011   -1.489260   -0.686926    0.126435
   2 C     6.0000    0    12.011    1.505836   -0.696263   -0.117713
   3 H     1.0000    0     1.008   -2.398222   -1.306596    2.036835
   4 H     1.0000    0     1.008   -2.303377   -1.283845   -1.897825
   5 H     1.0000    0     1.008    2.500681   -1.360902   -1.628431
   6 H     1.0000    0     1.008    2.381548   -1.325093    1.905454

--------------------------------
INTERNAL COORDINATES (ANGSTROEM)
--------------------------------
 O      0   0   0     0.000000000000     0.00000000     0.00000000
 C      1   0   0     1.288207455102     0.00000000     0.00000000
 C      2   1   0     1.590201615260   121.98356662     0.00000000
 H      2   1   3     1.166572523659    96.28589734   129.69449810
 H      2   1   3     1.197008420692    85.83621847   253.04280936
 H      3   2   1     1.019779456824   125.40078727   255.60677664
 H      3   2   1     1.213132822081   108.05188761   117.20658869

---------------------------
INTERNAL COORDINATES (A.U.)
---------------------------
 O      0   0   0     0.000000000000     0.00000000     0.00000000
 C      1   0   0     2.434359293819     0.00000000     0.00000000
 C      2   1   0     3.005045550560   121.98356662     0.00000000
 H      2   1   3     2.204502585074    96.28589734   129.69449810
 H      2   1   3     2.262018095105    85.83621847   253.04280936
 H      3   2   1     1.927103890396   125.40078727   255.60677664
 H      3   2   1     2.292488797805   108.05188761   117.20658869

---------------------
BASIS SET INFORMATION
---------------------
There are 3 groups of distinct atoms

 Group   1 Type O   : 11s6p2d1f contracted to 5s3p2d1f pattern {62111/411/11/1}
 Group   2 Type C   : 11s6p2d1f contracted to 5s3p2d1f pattern {62111/411/11/1}
 Group   3 Type H   : 5s1p contracted to 3s1p pattern {311/1}

Atom   0O    basis set group =>   1
Atom   1C    basis set group =>   2
Atom   2C    basis set group =>   2
Atom   3H    basis set group =>   3
Atom   4H    basis set group =>   3
Atom   5H    basis set group =>   3
Atom   6H    basis set group =>   3
---------------------------------
AUXILIARY/J BASIS SET INFORMATION
---------------------------------
There are 3 groups of distinct atoms

 Group   1 Type O   : 12s5p4d2f1g contracted to 6s4p3d1f1g pattern {711111/2111/211/2/1}
 Group   2 Type C   : 12s5p4d2f1g contracted to 6s4p3d1f1g pattern {711111/2111/211/2/1}
 Group   3 Type H   : 5s2p1d contracted to 3s1p1d pattern {311/2/1}

Atom   0O    basis set group =>   1
Atom   1C    basis set group =>   2
Atom   2C    basis set group =>   2
Atom   3H    basis set group =>   3
Atom   4H    basis set group =>   3
Atom   5H    basis set group =>   3
Atom   6H    basis set group =>   3

Checking for AutoStart:
The File: ox_es1_G_orca0008.gbw exists
Trying to determine its content:
     ... Fine, the file contains calculation information
     ... Fine, the calculation information was read
     ... Fine, the file contains a basis set
     ... Fine, the basis set was read
     ... Fine, the file contains a geometry
     ... Fine, the geometry was read
     ... Fine, the file contains a set of orbitals
     ... Fine, the orbitals can be read
     => possible old guess file was deleted
     => GBW file was renamed to GES file
     => GES file is set as startup file
     => Guess is set to MORead
     ... now leaving AutoStart



           ************************************************************
           *        Program running with 8 parallel MPI-processes     *
           *              working on a common directory               *
           ************************************************************
------------------------------------------------------------------------------
                           ORCA GTO INTEGRAL CALCULATION
                           -- RI-GTO INTEGRALS CHOSEN --
------------------------------------------------------------------------------
------------------------------------------------------------------------------
                   ___                                                        
                  /   \      - P O W E R E D   B Y -                         
                 /     \                                                     
                 |  |  |   _    _      __       _____    __    __             
                 |  |  |  | |  | |    /  \     |  _  \  |  |  /  |          
                  \  \/   | |  | |   /    \    | | | |  |  | /  /          
                 / \  \   | |__| |  /  /\  \   | |_| |  |  |/  /          
                |  |  |   |  __  | /  /__\  \  |    /   |      \           
                |  |  |   | |  | | |   __   |  |    \   |  |\   \          
                \     /   | |  | | |  |  |  |  | |\  \  |  | \   \       
                 \___/    |_|  |_| |__|  |__|  |_| \__\ |__|  \__/        
                                                                              
                      - O R C A' S   B I G   F R I E N D -                    
                                      &                                       
                       - I N T E G R A L  F E E D E R -                       
                                                                              
 v1 FN, 2020, v2 2021                                                         
------------------------------------------------------------------------------


Reading SHARK input file ox_es1_G_orca0008.SHARKINP.tmp ... ok
----------------------
SHARK INTEGRAL PACKAGE
----------------------

Number of atoms                             ...      7
Number of basis functions                   ...    117
Number of shells                            ...     49
Maximum angular momentum                    ...      3
Integral batch strategy                     ... SHARK/LIBINT Hybrid
RI-J (if used) integral strategy            ... SPLIT-RIJ (Revised 2003 algorithm where possible)
Printlevel                                  ...      1
Contraction scheme used                     ... SEGMENTED contraction
Coulomb Range Separation                    ... NOT USED
Exchange Range Separation                   ... NOT USED
Finite Nucleus Model                        ... NOT USED
Auxiliary Coulomb fitting basis             ... AVAILABLE
   # of basis functions in Aux-J            ...    191
   # of shells in Aux-J                     ...     65
   Maximum angular momentum in Aux-J        ...      4
Auxiliary J/K fitting basis                 ... NOT available
Auxiliary Correlation fitting basis         ... NOT available
Auxiliary 'external' fitting basis          ... NOT available
Integral threshold                          ...     2.500000e-11
Primitive cut-off                           ...     2.500000e-12
Primitive pair pre-selection threshold      ...     2.500000e-12

Calculating pre-screening integrals         ... done (  0.0 sec) Dimension = 49
Organizing shell pair data                  ... done (  0.0 sec)
Shell pair information
Total number of shell pairs                 ...      1225
Shell pairs after pre-screening             ...      1210
Total number of primitive shell pairs       ...      3648
Primitive shell pairs kept                  ...      3059
          la=0 lb=0:    368 shell pairs
          la=1 lb=0:    348 shell pairs
          la=1 lb=1:     91 shell pairs
          la=2 lb=0:    160 shell pairs
          la=2 lb=1:     78 shell pairs
          la=2 lb=2:     21 shell pairs
          la=3 lb=0:     81 shell pairs
          la=3 lb=1:     39 shell pairs
          la=3 lb=2:     18 shell pairs
          la=3 lb=3:      6 shell pairs

Calculating one electron integrals          ... done (  0.0 sec)
Calculating RI/J V-Matrix + Cholesky decomp.... done (  0.0 sec)
Calculating Nuclear repulsion               ... done (  0.0 sec) ENN=     67.070189191828 Eh

SHARK setup successfully completed in   0.1 seconds

Maximum memory used throughout the entire GTOINT-calculation: 14.9 MB


           ************************************************************
           *        Program running with 8 parallel MPI-processes     *
           *              working on a common directory               *
           ************************************************************
-------------------------------------------------------------------------------
                                 ORCA SCF
-------------------------------------------------------------------------------

------------
SCF SETTINGS
------------
Hamiltonian:
 Density Functional     Method          .... DFT(GTOs)
 Exchange Functional    Exchange        .... PBE
   PBE kappa parameter   XKappa         ....  0.804000
   PBE mue parameter    XMuePBE         ....  0.219520
 Correlation Functional Correlation     .... PBE
   PBE beta parameter  CBetaPBE         ....  0.066725
 LDA part of GGA corr.  LDAOpt          .... PW91-LDA
 Gradients option       PostSCFGGA      .... off
 Hybrid DFT is turned on
   Fraction HF Exchange ScalHFX         ....  0.250000
   Scaling of DF-GGA-X  ScalDFX         ....  0.750000
   Scaling of DF-GGA-C  ScalDFC         ....  1.000000
   Scaling of DF-LDA-C  ScalLDAC        ....  1.000000
   Perturbative correction              ....  0.000000
   Density functional embedding theory  .... OFF
   NL short-range parameter             ....  6.900000
 RI-approximation to the Coulomb term is turned on
   Number of AuxJ basis functions       .... 191
   RIJ-COSX (HFX calculated with COS-X)).... on


General Settings:
 Integral files         IntName         .... ox_es1_G_orca0008
 Hartree-Fock type      HFTyp           .... RHF
 Total Charge           Charge          ....    0
 Multiplicity           Mult            ....    1
 Number of Electrons    NEL             ....   24
 Basis Dimension        Dim             ....  117
 Nuclear Repulsion      ENuc            ....     67.0701891918 Eh

Convergence Acceleration:
 DIIS                   CNVDIIS         .... on
   Start iteration      DIISMaxIt       ....    12
   Startup error        DIISStart       ....  0.200000
   # of expansion vecs  DIISMaxEq       ....     5
   Bias factor          DIISBfac        ....   1.050
   Max. coefficient     DIISMaxC        ....  10.000
 Trust-Rad. Augm. Hess. CNVTRAH         .... auto
   Auto Start mean grad. ratio tolernc. ....  1.125000
   Auto Start start iteration           ....     1
   Auto Start num. interpolation iter.  ....    10
   Max. Number of Micro iterations      ....    16
   Max. Number of Macro iterations      .... Maxiter - #DIIS iter
   Number of Davidson start vectors     ....     2
   Converg. threshold I  (grad. norm)   ....   1.000e-05
   Converg. threshold II (energy diff.) ....   1.000e-08
   Grad. Scal. Fac. for Micro threshold ....   0.100
   Minimum threshold for Micro iter.    ....   0.010
   NR start threshold (gradient norm)   ....   0.001
   Initial trust radius                 ....   0.400
   Minimum AH scaling param. (alpha)    ....   1.000
   Maximum AH scaling param. (alpha)    .... 1000.000
   Orbital update algorithm             .... Taylor
   White noise on init. David. guess    .... on
   Maximum white noise                  ....   0.010
   Quad. conv. algorithm                .... NR
 SOSCF                  CNVSOSCF        .... on
   Start iteration      SOSCFMaxIt      ....   150
   Startup grad/error   SOSCFStart      ....  0.003300
 Level Shifting         CNVShift        .... on
   Level shift para.    LevelShift      ....    0.2500
   Turn off err/grad.   ShiftErr        ....    0.0010
 Zerner damping         CNVZerner       .... off
 Static damping         CNVDamp         .... on
   Fraction old density DampFac         ....    0.7000
   Max. Damping (<1)    DampMax         ....    0.9800
   Min. Damping (>=0)   DampMin         ....    0.0000
   Turn off err/grad.   DampErr         ....    0.1000
 Fernandez-Rico         CNVRico         .... off

SCF Procedure:
 Maximum # iterations   MaxIter         ....   125
 SCF integral mode      SCFMode         .... Direct
   Integral package                     .... SHARK and LIBINT hybrid scheme
 Reset frequency        DirectResetFreq ....    20
 Integral Threshold     Thresh          ....  2.500e-11 Eh
 Primitive CutOff       TCut            ....  2.500e-12 Eh

Convergence Tolerance:
 Convergence Check Mode ConvCheckMode   .... Total+1el-Energy
 Convergence forced     ConvForced      .... 1
 Energy Change          TolE            ....  1.000e-08 Eh
 1-El. energy change                    ....  1.000e-05 Eh
 Orbital Gradient       TolG            ....  1.000e-05
 Orbital Rotation angle TolX            ....  1.000e-05
 DIIS Error             TolErr          ....  5.000e-07


Diagonalization of the overlap matrix:
Smallest eigenvalue                        ... 9.802e-04
Time for diagonalization                   ...    0.001 sec
Threshold for overlap eigenvalues          ... 1.000e-08
Number of eigenvalues below threshold      ... 0
Time for construction of square roots      ...    0.001 sec
Total time needed                          ...    0.003 sec

---------------------
INITIAL GUESS: MOREAD
---------------------
Guess MOs are being read from file: ox_es1_G_orca0008.ges
Input Geometry matches current geometry (good)
Input basis set matches current basis set (good)
MOs were renormalized
MOs were reorthogonalized (Cholesky)
                      ------------------
                      INITIAL GUESS DONE (   0.0 sec)
                      ------------------
-------------------
DFT GRID GENERATION
-------------------

General Integration Accuracy     IntAcc      ... 4.388
Radial Grid Type                 RadialGrid  ... OptM3 with GC (2021)
Angular Grid (max. ang.)         AngularGrid ... 4 (Lebedev-302)
Angular grid pruning method      GridPruning ... 4 (adaptive)
Weight generation scheme         WeightScheme... Becke
Basis function cutoff            BFCut       ... 1.0000e-11
Integration weight cutoff        WCut        ... 1.0000e-14
Angular grids for H and He will be reduced by one unit
Partially contracted basis set               ... off
Rotationally invariant grid construction     ... off

Total number of grid points                  ...    31386
Total number of batches                      ...      492
Average number of points per batch           ...       63
Average number of grid points per atom       ...     4484
Time for grid setup =    0.128 sec

--------------------
COSX GRID GENERATION
--------------------

GRIDX 1
-------
General Integration Accuracy     IntAcc      ... 3.816
Radial Grid Type                 RadialGrid  ... OptM3 with GC (2021)
Angular Grid (max. ang.)         AngularGrid ... 1 (Lebedev-50)
Angular grid pruning method      GridPruning ... 4 (adaptive)
Weight generation scheme         WeightScheme... Becke
Basis function cutoff            BFCut       ... 1.0000e-11
Integration weight cutoff        WCut        ... 1.0000e-14
Angular grids for H and He will be reduced by one unit
Partially contracted basis set               ... on
Rotationally invariant grid construction     ... off

Total number of grid points                  ...     4042
Total number of batches                      ...       68
Average number of points per batch           ...       59
Average number of grid points per atom       ...      577
UseSFitting                                  ... on

GRIDX 2
-------
General Integration Accuracy     IntAcc      ... 4.020
Radial Grid Type                 RadialGrid  ... OptM3 with GC (2021)
Angular Grid (max. ang.)         AngularGrid ... 2 (Lebedev-110)
Angular grid pruning method      GridPruning ... 4 (adaptive)
Weight generation scheme         WeightScheme... Becke
Basis function cutoff            BFCut       ... 1.0000e-11
Integration weight cutoff        WCut        ... 1.0000e-14
Angular grids for H and He will be reduced by one unit
Partially contracted basis set               ... on
Rotationally invariant grid construction     ... off

Total number of grid points                  ...     8730
Total number of batches                      ...      140
Average number of points per batch           ...       62
Average number of grid points per atom       ...     1247
UseSFitting                                  ... on

GRIDX 3
-------
General Integration Accuracy     IntAcc      ... 4.338
Radial Grid Type                 RadialGrid  ... OptM3 with GC (2021)
Angular Grid (max. ang.)         AngularGrid ... 3 (Lebedev-194)
Angular grid pruning method      GridPruning ... 4 (adaptive)
Weight generation scheme         WeightScheme... Becke
Basis function cutoff            BFCut       ... 1.0000e-11
Integration weight cutoff        WCut        ... 1.0000e-14
Angular grids for H and He will be reduced by one unit
Partially contracted basis set               ... on
Rotationally invariant grid construction     ... off

Total number of grid points                  ...    19308
Total number of batches                      ...      305
Average number of points per batch           ...       63
Average number of grid points per atom       ...     2758
UseSFitting                                  ... on

Time for X-Grid setup             =    0.080 sec

--------------
SCF ITERATIONS
--------------
ITER       Energy         Delta-E        Max-DP      RMS-DP      [F,P]     Damp
               ***  Starting incremental Fock matrix formation  ***
                      *** Initiating the SOSCF procedure ***
                      *** Re-Reading the Fockian *** 
                      *** Removing any level shift *** 
ITER      Energy       Delta-E        Grad      Rot      Max-DP    RMS-DP
  0   -153.46945835 -153.4694583539  0.000000  0.000000  0.000001  0.000000
               *** Restarting incremental Fock matrix formation ***
                 **** Energy Check signals convergence ****
              ***Rediagonalizing the Fockian in SOSCF/NRSCF***

               *****************************************************
               *                     SUCCESS                       *
               *           SCF CONVERGED AFTER   1 CYCLES          *
               *****************************************************

Old exchange energy                            =     -4.932906027 Eh
New exchange energy                            =     -4.932902354 Eh
Exchange energy change after final integration =      0.000003673 Eh
Total energy after final integration           =   -153.469454681 Eh
Final COS-X integration done in                =     0.299 sec

----------------
TOTAL SCF ENERGY
----------------

Total Energy       :         -153.46945468 Eh           -4176.11617 eV

Components:
Nuclear Repulsion  :           67.07018919 Eh            1825.07263 eV
Electronic Energy  :         -220.53964387 Eh           -6001.18880 eV
One Electron Energy:         -340.89831343 Eh           -9276.31471 eV
Two Electron Energy:          120.35866956 Eh            3275.12590 eV
Max COSX asymmetry :            0.00000145 Eh               0.00004 eV

Virial components:
Potential Energy   :         -306.18278778 Eh           -8331.65723 eV
Kinetic Energy     :          152.71333310 Eh            4155.54106 eV
Virial Ratio       :            2.00495125


DFT components:
N(Alpha)           :       12.000010934488 electrons
N(Beta)            :       12.000010934488 electrons
N(Total)           :       24.000021868976 electrons
E(X)               :      -14.841535594206 Eh       
E(C)               :       -0.770817098666 Eh       
E(XC)              :      -15.612352692871 Eh       
DFET-embed. en.    :        0.000000000000 Eh       

---------------
SCF CONVERGENCE
---------------

  Last Energy change         ...   -1.6826e-11  Tolerance :   1.0000e-08
  Last MAX-Density change    ...    2.3315e-15  Tolerance :   1.0000e-07
  Last RMS-Density change    ...    3.4475e-17  Tolerance :   5.0000e-09
  Last Orbital Gradient      ...    1.8085e-07  Tolerance :   1.0000e-05
  Last Orbital Rotation      ...    7.1729e-07  Tolerance :   1.0000e-05

             **** THE GBW FILE WAS UPDATED (ox_es1_G_orca0008.gbw) ****
             **** DENSITY ox_es1_G_orca0008.scfp WAS UPDATED ****
             **** ENERGY FILE WAS UPDATED (ox_es1_G_orca0008.en.tmp) ****
             **** THE GBW FILE WAS UPDATED (ox_es1_G_orca0008.gbw) ****
             **** DENSITY ox_es1_G_orca0008.scfp WAS UPDATED ****
----------------
ORBITAL ENERGIES
----------------

  NO   OCC          E(Eh)            E(eV) 
   0   2.0000     -19.183932      -522.0213 
   1   2.0000     -10.315866      -280.7090 
   2   2.0000     -10.293379      -280.0971 
   3   2.0000      -1.046609       -28.4797 
   4   2.0000      -0.749183       -20.3863 
   5   2.0000      -0.603141       -16.4123 
   6   2.0000      -0.522940       -14.2299 
   7   2.0000      -0.473753       -12.8915 
   8   2.0000      -0.428372       -11.6566 
   9   2.0000      -0.411094       -11.1864 
  10   2.0000      -0.257339        -7.0026 
  11   2.0000      -0.229657        -6.2493 
  12   0.0000      -0.158969        -4.3258 
  13   0.0000       0.029844         0.8121 
  14   0.0000       0.064133         1.7451 
  15   0.0000       0.082002         2.2314 
  16   0.0000       0.135531         3.6880 
  17   0.0000       0.140117         3.8128 
  18   0.0000       0.188020         5.1163 
  19   0.0000       0.204933         5.5765 
  20   0.0000       0.231087         6.2882 
  21   0.0000       0.241198         6.5633 
  22   0.0000       0.262834         7.1521 
  23   0.0000       0.316824         8.6212 
  24   0.0000       0.352125         9.5818 
  25   0.0000       0.372639        10.1400 
  26   0.0000       0.392939        10.6924 
  27   0.0000       0.396128        10.7792 
  28   0.0000       0.438818        11.9409 
  29   0.0000       0.448463        12.2033 
  30   0.0000       0.502605        13.6766 
  31   0.0000       0.516490        14.0544 
  32   0.0000       0.524597        14.2750 
  33   0.0000       0.594510        16.1775 
  34   0.0000       0.676711        18.4143 
  35   0.0000       0.732104        19.9216 
  36   0.0000       0.795435        21.6449 
  37   0.0000       0.872750        23.7487 
  38   0.0000       0.899641        24.4805 
  39   0.0000       0.911853        24.8128 
  40   0.0000       0.950133        25.8544 
  41   0.0000       0.994133        27.0517 
  42   0.0000       1.032380        28.0925 
  43   0.0000       1.104579        30.0571 
  44   0.0000       1.203704        32.7544 
  45   0.0000       1.349182        36.7131 
  46   0.0000       1.407305        38.2947 
  47   0.0000       1.421553        38.6824 
  48   0.0000       1.452635        39.5282 
  49   0.0000       1.508137        41.0385 
  50   0.0000       1.556627        42.3580 
  51   0.0000       1.565471        42.5986 
  52   0.0000       1.600543        43.5530 
  53   0.0000       1.630870        44.3782 
  54   0.0000       1.708557        46.4922 
  55   0.0000       1.740752        47.3683 
  56   0.0000       1.805341        49.1258 
  57   0.0000       1.877191        51.0810 
  58   0.0000       1.889482        51.4154 
  59   0.0000       1.923701        52.3466 
  60   0.0000       1.977794        53.8185 
  61   0.0000       2.008219        54.6464 
  62   0.0000       2.067163        56.2504 
  63   0.0000       2.167989        58.9940 
  64   0.0000       2.251607        61.2693 
  65   0.0000       2.317159        63.0531 
  66   0.0000       2.373301        64.5808 
  67   0.0000       2.400919        65.3323 
  68   0.0000       2.440788        66.4172 
  69   0.0000       2.498590        67.9901 
  70   0.0000       2.533168        68.9310 
  71   0.0000       2.550643        69.4065 
  72   0.0000       2.626222        71.4631 
  73   0.0000       2.666842        72.5685 
  74   0.0000       2.720391        74.0256 
  75   0.0000       2.751806        74.8804 
  76   0.0000       2.901928        78.9655 
  77   0.0000       2.971315        80.8536 
  78   0.0000       3.008865        81.8754 
  79   0.0000       3.022071        82.2347 
  80   0.0000       3.074263        83.6549 
  81   0.0000       3.097886        84.2978 
  82   0.0000       3.108417        84.5843 
  83   0.0000       3.138507        85.4031 
  84   0.0000       3.222239        87.6816 
  85   0.0000       3.236172        88.0607 
  86   0.0000       3.267526        88.9139 
  87   0.0000       3.338486        90.8448 
  88   0.0000       3.358076        91.3779 
  89   0.0000       3.478601        94.6575 
  90   0.0000       3.520343        95.7934 
  91   0.0000       3.579930        97.4148 
  92   0.0000       3.674067        99.9764 
  93   0.0000       3.766842       102.5010 
  94   0.0000       3.802885       103.4818 
  95   0.0000       3.935979       107.1034 
  96   0.0000       4.031708       109.7084 
  97   0.0000       4.168129       113.4206 
  98   0.0000       4.266426       116.0953 
  99   0.0000       4.361446       118.6810 
 100   0.0000       4.507225       122.6478 
 101   0.0000       4.696787       127.8061 
 102   0.0000       5.190657       141.2450 
 103   0.0000       5.218192       141.9942 
 104   0.0000       5.492852       149.4681 
 105   0.0000       5.508805       149.9022 
 106   0.0000       5.987250       162.9214 
 107   0.0000       6.072213       165.2333 
 108   0.0000       6.146975       167.2677 
 109   0.0000       6.403686       174.2532 
 110   0.0000       6.408811       174.3926 
 111   0.0000       6.867674       186.8789 
 112   0.0000       6.907335       187.9581 
 113   0.0000       6.989760       190.2010 
 114   0.0000      21.963287       597.6514 
 115   0.0000      22.467432       611.3699 
 116   0.0000      43.849388      1193.2025 

                    ********************************
                    * MULLIKEN POPULATION ANALYSIS *
                    ********************************

-----------------------
MULLIKEN ATOMIC CHARGES
-----------------------
   0 O :   -0.357775
   1 C :   -0.077431
   2 C :   -0.217488
   3 H :    0.103709
   4 H :    0.248236
   5 H :    0.164307
   6 H :    0.136443
Sum of atomic charges:   -0.0000000

--------------------------------
MULLIKEN REDUCED ORBITAL CHARGES
--------------------------------
  0 O s       :     3.867945  s :     3.867945
      pz      :     1.511705  p :     4.457180
      px      :     1.639197
      py      :     1.306278
      dz2     :     0.003285  d :     0.030964
      dxz     :     0.002034
      dyz     :     0.007725
      dx2y2   :     0.008118
      dxy     :     0.009802
      f0      :     0.000161  f :     0.001687
      f+1     :     0.000079
      f-1     :     0.000164
      f+2     :     0.000111
      f-2     :     0.000238
      f+3     :     0.000474
      f-3     :     0.000459
  1 C s       :     3.232138  s :     3.232138
      pz      :     0.965212  p :     2.652369
      px      :     0.850558
      py      :     0.836599
      dz2     :     0.022127  d :     0.178789
      dxz     :     0.027291
      dyz     :     0.045779
      dx2y2   :     0.054381
      dxy     :     0.029211
      f0      :     0.001561  f :     0.014135
      f+1     :     0.001485
      f-1     :     0.000659
      f+2     :     0.001046
      f-2     :     0.001830
      f+3     :     0.002174
      f-3     :     0.005381
  2 C s       :     3.376988  s :     3.376988
      pz      :     1.039604  p :     2.797869
      px      :     0.883804
      py      :     0.874462
      dz2     :     0.005336  d :     0.039471
      dxz     :     0.015620
      dyz     :     0.005513
      dx2y2   :     0.005226
      dxy     :     0.007775
      f0      :     0.000360  f :     0.003160
      f+1     :     0.000751
      f-1     :     0.000293
      f+2     :     0.000409
      f-2     :     0.000097
      f+3     :     0.000604
      f-3     :     0.000647
  3 H s       :     0.876284  s :     0.876284
      pz      :     0.010632  p :     0.020006
      px      :     0.004917
      py      :     0.004457
  4 H s       :     0.727650  s :     0.727650
      pz      :     0.011272  p :     0.024114
      px      :     0.005876
      py      :     0.006966
  5 H s       :     0.810872  s :     0.810872
      pz      :     0.010488  p :     0.024821
      px      :     0.007089
      py      :     0.007245
  6 H s       :     0.845715  s :     0.845715
      pz      :     0.009963  p :     0.017842
      px      :     0.003892
      py      :     0.003986


                     *******************************
                     * LOEWDIN POPULATION ANALYSIS *
                     *******************************

----------------------
LOEWDIN ATOMIC CHARGES
----------------------
   0 O :   -0.013149
   1 C :   -0.512397
   2 C :   -0.106733
   3 H :    0.126466
   4 H :    0.271519
   5 H :    0.090810
   6 H :    0.143486

-------------------------------
LOEWDIN REDUCED ORBITAL CHARGES
-------------------------------
  0 O s       :     3.472731  s :     3.472731
      pz      :     1.437852  p :     4.457070
      px      :     1.603718
      py      :     1.415501
      dz2     :     0.007969  d :     0.077600
      dxz     :     0.005191
      dyz     :     0.020881
      dx2y2   :     0.021733
      dxy     :     0.021827
      f0      :     0.000690  f :     0.005748
      f+1     :     0.000303
      f-1     :     0.000619
      f+2     :     0.000374
      f-2     :     0.000906
      f+3     :     0.001424
      f-3     :     0.001433
  1 C s       :     2.860311  s :     2.860311
      pz      :     0.979223  p :     2.913091
      px      :     0.980910
      py      :     0.952958
      dz2     :     0.096479  d :     0.644909
      dxz     :     0.082761
      dyz     :     0.123253
      dx2y2   :     0.207868
      dxy     :     0.134548
      f0      :     0.011324  f :     0.094086
      f+1     :     0.008562
      f-1     :     0.005654
      f+2     :     0.006427
      f-2     :     0.012614
      f+3     :     0.015935
      f-3     :     0.033571
  2 C s       :     3.007445  s :     3.007445
      pz      :     1.082967  p :     2.914771
      px      :     0.995580
      py      :     0.836223
      dz2     :     0.026367  d :     0.168095
      dxz     :     0.069004
      dyz     :     0.013897
      dx2y2   :     0.033204
      dxy     :     0.025623
      f0      :     0.001887  f :     0.016422
      f+1     :     0.002940
      f-1     :     0.001392
      f+2     :     0.002243
      f-2     :     0.001986
      f+3     :     0.003210
      f-3     :     0.002764
  3 H s       :     0.821308  s :     0.821308
      pz      :     0.028563  p :     0.052227
      px      :     0.012380
      py      :     0.011284
  4 H s       :     0.673698  s :     0.673698
      pz      :     0.027251  p :     0.054784
      px      :     0.013158
      py      :     0.014374
  5 H s       :     0.826166  s :     0.826166
      pz      :     0.035854  p :     0.083024
      px      :     0.022971
      py      :     0.024199
  6 H s       :     0.807390  s :     0.807390
      pz      :     0.027691  p :     0.049124
      px      :     0.009948
      py      :     0.011485


                      *****************************
                      * MAYER POPULATION ANALYSIS *
                      *****************************

  NA   - Mulliken gross atomic population
  ZA   - Total nuclear charge
  QA   - Mulliken gross atomic charge
  VA   - Mayer's total valence
  BVA  - Mayer's bonded valence
  FA   - Mayer's free valence

  ATOM       NA         ZA         QA         VA         BVA        FA
  0 O      8.3578     8.0000    -0.3578     1.9173     1.9173    -0.0000
  1 C      6.0774     6.0000    -0.0774     4.1485     4.1485    -0.0000
  2 C      6.2175     6.0000    -0.2175     3.5773     3.5773     0.0000
  3 H      0.8963     1.0000     0.1037     0.9595     0.9595     0.0000
  4 H      0.7518     1.0000     0.2482     0.9404     0.9404     0.0000
  5 H      0.8357     1.0000     0.1643     0.9585     0.9585    -0.0000
  6 H      0.8636     1.0000     0.1364     0.9706     0.9706    -0.0000

  Mayer bond orders larger than 0.100000
B(  0-O ,  1-C ) :   1.3419 B(  0-O ,  2-C ) :   0.5045 B(  1-C ,  2-C ) :   1.0706 
B(  1-C ,  3-H ) :   0.9665 B(  1-C ,  4-H ) :   0.7487 B(  2-C ,  4-H ) :   0.1290 
B(  2-C ,  5-H ) :   0.9285 B(  2-C ,  6-H ) :   0.9524 

-------
TIMINGS
-------

Total SCF time: 0 days 0 hours 0 min 1 sec 

Total time                  ....       1.080 sec
Sum of individual times     ....       1.011 sec  ( 93.6%)

Fock matrix formation       ....       0.789 sec  ( 73.1%)
  Split-RI-J                ....       0.127 sec  ( 16.1% of F)
  Chain of spheres X        ....       0.592 sec  ( 75.0% of F)
  XC integration            ....       0.068 sec  (  8.6% of F)
    Basis function eval.    ....       0.020 sec  ( 29.5% of XC)
    Density eval.           ....       0.015 sec  ( 22.1% of XC)
    XC-Functional eval.     ....       0.004 sec  (  6.2% of XC)
    XC-Potential eval.      ....       0.020 sec  ( 29.0% of XC)
Diagonalization             ....       0.003 sec  (  0.3%)
Density matrix formation    ....       0.000 sec  (  0.0%)
Population analysis         ....       0.003 sec  (  0.3%)
Initial guess               ....       0.004 sec  (  0.3%)
Orbital Transformation      ....       0.000 sec  (  0.0%)
Orbital Orthonormalization  ....       0.001 sec  (  0.1%)
DIIS solution               ....       0.002 sec  (  0.1%)
SOSCF solution              ....       0.003 sec  (  0.2%)
Grid generation             ....       0.208 sec  ( 19.2%)

Maximum memory used throughout the entire SCF-calculation: 61.1 MB


           ************************************************************
           *        Program running with 8 parallel MPI-processes     *
           *              working on a common directory               *
           ************************************************************
------------------------------------------------------------------------------
                        ORCA TD-DFT/TDA CALCULATION
------------------------------------------------------------------------------

Input orbitals are from        ... ox_es1_G_orca0008.gbw
CI-vector output               ... ox_es1_G_orca0008.cis
Tamm-Dancoff approximation     ... operative
CIS-Integral strategy          ... AO-integrals
Integral handling              ... AO integral Direct
Max. core memory used          ... 3000 MB
Reference state                ... RHF
Generation of triplets         ... off
Follow IRoot                   ... off
Number of operators            ... 1
Orbital ranges used for CIS calculation:
 Operator 0:  Orbitals   3... 11  to  12...116
XAS localization array:
 Operator 0:  Orbitals  -1... -1

-------------------
XC-INTEGRATION GRID
-------------------

General Integration Accuracy     IntAcc      ... 3.467
Radial Grid Type                 RadialGrid  ... OptM3 with GC (2021)
Angular Grid (max. ang.)         AngularGrid ... 1 (Lebedev-50)
Angular grid pruning method      GridPruning ... 4 (adaptive)
Weight generation scheme         WeightScheme... Becke
Basis function cutoff            BFCut       ... 1.0000e-11
Integration weight cutoff        WCut        ... 1.0000e-14
Angular grids for H and He will be reduced by one unit
Partially contracted basis set               ... off
Rotationally invariant grid construction     ... off

Total number of grid points                  ...     4554
Total number of batches                      ...       74
Average number of points per batch           ...       61
Average number of grid points per atom       ...      651

---------------------
COSX-INTEGRATION GRID
---------------------

General Integration Accuracy     IntAcc      ... 3.067
Radial Grid Type                 RadialGrid  ... OptM3 with GC (2021)
Angular Grid (max. ang.)         AngularGrid ... 1 (Lebedev-50)
Angular grid pruning method      GridPruning ... 4 (adaptive)
Weight generation scheme         WeightScheme... Becke
Basis function cutoff            BFCut       ... 1.0000e-11
Integration weight cutoff        WCut        ... 1.0000e-14
Angular grids for H and He will be reduced by one unit
Partially contracted basis set               ... on
Rotationally invariant grid construction     ... off

Total number of grid points                  ...     2089
Total number of batches                      ...       36
Average number of points per batch           ...       58
Average number of grid points per atom       ...      298

---------------
TD-DFT XC SETUP
---------------

DFT calculation                         ... on
Name of the grid file                   ... ox_es1_G_orca0008.grid_cis.tmp
Exchange functional (TD-DFT)            ... PBE
   PBE kappa parameter  XKappa (TD-DFT) ...  0.804000
   PBE mue parameter   XMuePBE (TD-DFT) ...  0.219520
Correlation functional (TD-DFT)         ... PBE
   PBE beta parameter CBetaPBE (TD-DFT) ...  0.066725
 LDA part of GGA corr.  LDAOpt (TD-DFT) ... PW91-LDA
Hybrid DFT                              ... on
   Exchange mixing (TD-DFT)             ...  0.250
   GGA exch. scaling (TD-DFT)           ...  0.750
   GGA corr. scaling (TD-DFT)           ...  1.000

Building densities             ... done
Calculating rho(r) on the grid ... done
Building xc-kernel on the grid ... done
                    *** TD-DFT CALCULATION INITIALIZED ***

------------------------
DAVIDSON-DIAGONALIZATION
------------------------

Dimension of the eigenvalue problem            ...    945
Number of roots to be determined               ...      1
Maximum size of the expansion space            ...     10
Maximum number of iterations                   ...    100
Convergence tolerance for the residual         ...    2.500e-07
Convergence tolerance for the energies         ...    2.500e-07
Orthogonality tolerance                        ...    1.000e-14
Level Shift                                    ...    0.000e+00
Constructing the preconditioner                ... o.k.
Building the initial guess                     ... o.k.
Number of trial vectors determined             ...     10


                       ****Iteration    0****

   Memory handling for direct AO based CIS:
   Memory per vector needed      ...     1 MB
   Memory needed                 ...     1 MB
   Memory available              ...  3000 MB
   Number of vectors per batch   ...  3000
   Number of batches             ...     1
   Time for densities:            0.001
   Time for RI-J (Direct):        0.016
   Time for K (COSX):             0.060
   Time for XC-Integration:       0.017
   Time for Sigma-Completion:     0.000
   Size of expansion space: 3
   Lowest Energy          :     0.024631553220
   Maximum Energy change  :     0.024631553220 (vector 0)
   Maximum residual norm  :     0.003006343745

                       ****Iteration    1****
   Time for densities:            0.000
   Time for RI-J (Direct):        0.013
   Time for K (COSX):             0.055
   Time for XC-Integration:       0.007
   Time for Sigma-Completion:     0.000
   Size of expansion space: 4
   Lowest Energy          :     0.022634632139
   Maximum Energy change  :     0.001996921081 (vector 0)
   Maximum residual norm  :     0.000234321141

                       ****Iteration    2****
   Time for densities:            0.000
   Time for RI-J (Direct):        0.013
   Time for K (COSX):             0.057
   Time for XC-Integration:       0.007
   Time for Sigma-Completion:     0.000
   Size of expansion space: 5
   Lowest Energy          :     0.022452743213
   Maximum Energy change  :     0.000181888926 (vector 0)
   Maximum residual norm  :     0.000006946477

                       ****Iteration    3****
   Time for densities:            0.000
   Time for RI-J (Direct):        0.014
   Time for K (COSX):             0.057
   Time for XC-Integration:       0.007
   Time for Sigma-Completion:     0.000
   Size of expansion space: 6
   Lowest Energy          :     0.022447714797
   Maximum Energy change  :     0.000005028416 (vector 0)
   Maximum residual norm  :     0.000000186018

      *** CONVERGENCE OF RESIDUAL NORM REACHED ***

Storing the converged CI vectors               ... ox_es1_G_orca0008.cis1

                 *** DAVIDSON DONE ***

Total time for solving the CIS problem:     0.327sec

------------------------------------
TD-DFT/TDA EXCITED STATES (SINGLETS)
------------------------------------

the weight of the individual excitations are printed if larger than 1.0e-02

STATE  1:  E=   0.022448 au      0.611 eV     4926.7 cm**-1 <S**2> =   0.000000
    10a ->  12a  :     0.952861 (c=  0.97614607)
    11a ->  12a  :     0.043812 (c= -0.20931275)


-----------------------------
TD-DFT/TDA-EXCITATION SPECTRA
-----------------------------

Center of mass = ( -1.0078, -0.0085, -0.0405)
Calculating the Dipole integrals                  ... done
Transforming integrals                            ... done
Calculating the Linear Momentum integrals         ... done
Transforming integrals                            ... done
Calculating angular momentum integrals            ... done
Transforming integrals                            ... done

-----------------------------------------------------------------------------
         ABSORPTION SPECTRUM VIA TRANSITION ELECTRIC DIPOLE MOMENTS
-----------------------------------------------------------------------------
State   Energy    Wavelength  fosc         T2        TX        TY        TZ  
        (cm-1)      (nm)                 (au**2)    (au)      (au)      (au) 
-----------------------------------------------------------------------------
   1    4926.7   2029.8   0.000085919   0.00574   0.05046  -0.04797  -0.02990

-----------------------------------------------------------------------------
         ABSORPTION SPECTRUM VIA TRANSITION VELOCITY DIPOLE MOMENTS
-----------------------------------------------------------------------------
State   Energy    Wavelength   fosc        P2         PX        PY        PZ  
        (cm-1)      (nm)                 (au**2)     (au)      (au)      (au) 
-----------------------------------------------------------------------------
   1    4926.7   2029.8   0.060766936   0.00205   0.00617  -0.04479   0.00144

-------------------------------------------------------------------
                             CD SPECTRUM
-------------------------------------------------------------------
State  Energy     Wavelength     R         MX        MY        MZ   
       (cm-1)       (nm)     (1e40*cgs)   (au)      (au)      (au)  
-------------------------------------------------------------------
   1    4926.7   2029.8     10.55602   0.19934  -0.32748   0.11296

-------------------------------------------------------------------
         CD SPECTRUM VIA TRANSITION VELOCITY DIPOLE MOMENTS        
-------------------------------------------------------------------
State  Energy     Wavelength     R         MX        MY        MZ   
       (cm-1)       (nm)     (1e40*cgs)   (au)      (au)      (au)  
-------------------------------------------------------------------
   1    4926.7   2029.8    337.30403   0.19934  -0.32748   0.11296

Total run time:        0.572 sec

           *** ORCA-CIS/TD-DFT FINISHED WITHOUT ERROR ***

Maximum memory used throughout the entire CIS-calculation: 49.4 MB

-----------------------
CIS/TD-DFT TOTAL ENERGY
-----------------------

    E(SCF)  =   -153.469454681 Eh
    DE(CIS) =      0.022447715 Eh (Root  1)
    ----------------------------- ---------
    E(tot)  =   -153.447006966 Eh



-------------------------------------------------------------------------------
                          DFT DISPERSION CORRECTION                            
                                                                               
                              DFTD3 V3.1  Rev 1                                
                          USING Becke-Johnson damping                          
-------------------------------------------------------------------------------
The PBE0 functional is recognized
Active option DFTDOPT                   ...         4   

molecular C6(AA) [au] = 396.383927 


            DFT-D V3
 parameters
 s6 scaling factor         :     1.0000 
 a1 scaling factor         :     0.4145 
 s8 scaling factor         :     1.2177 
 a2 scaling factor         :     4.8593 
 ad hoc parameters k1-k3   :    16.0000     1.3333    -4.0000 

 Edisp/kcal,au: -1.614564595546  -0.002572972186 
 E6   /kcal   :  -1.052456332 
 E8   /kcal   :  -0.562108264 
 % E8         :  34.814851353 

-------------------------   ----------------
Dispersion correction           -0.002572972
-------------------------   ----------------


-------------------------   --------------------
FINAL SINGLE POINT ENERGY      -153.449579938091
-------------------------   --------------------



           ************************************************************
           *        Program running with 8 parallel MPI-processes     *
           *              working on a common directory               *
           ************************************************************
------------------------------------------------------------------------------
                         ORCA SCF GRADIENT CALCULATION
------------------------------------------------------------------------------


------------------------
TD-DFT GRADIENT XC SETUP
------------------------

Building densities                     ... done
Calculating rho(r) on the grid         ... done
Building xc-kernel on the grid         ... done
Building xc 3rd derivative on the grid      ... done
                *** TD-DFT GRADIENT CALCULATION INITIALIZED ***

-------------------
TD-DFT/TDA GRADIENT
-------------------

Reference wavefunction             ... RHF
State of interest                  ... 1
Basis dimension                    ... 117
DFT-XC contribution needed         ... YES
RI-approximation                   ... ON
CIS-vectors being read from        ... ox_es1_G_orca0008.cis

 => Number of Vectors found: 1
 => Orbital Window: 3...11 -> 12...116

Reading the CIS file                     ... done
Norm of the CI vector                    ... 1.000000000
Making the CIS (pseudo)densities         ... done
Making operators G(D) and Q(T)           ... done
Transforming the Fock operators          ... done
Making the frozen-core relaxed density   ... done
Constructing the G(H) operator           ... done
Transforming the G(H) operator           ... done
Calculating the CIS Lagrangian           ... done
Solving the Z-vector equations           ... done
Finalizing the relaxed density           ... done
Storing the relaxed density              ... done
Constructing the G(Z) operator           ... done
Transforming the G(Z) operator           ... done
Making the W-matrix                      ... done
Finalizing the W-matrix                  ... done
Transforming the W-matrix                ... done
Nuclear repulsion gradient               ... done
One-Electron gradient                    ... done
Dispersion correction                    ... done
Prescreening matrices                    ... done
COSX-gradient                            ... done
Coulomb gradient (RI)                    ... done
Exchange-Correlation gradient            ... done

                 ---------------------------
                 EXCITED STATE GRADIENT DONE
                 ---------------------------

------------------
CARTESIAN GRADIENT
------------------

   1   O   :    0.028512088   -0.087370915   -0.020812520
   2   C   :   -0.017152452    0.009782436    0.059569035
   3   C   :    0.045294854    0.012422812   -0.130580038
   4   H   :   -0.026278765    0.015254591    0.019590277
   5   H   :   -0.030294019    0.051140285   -0.032003459
   6   H   :   -0.017475351    0.013092919    0.049924214
   7   H   :    0.017323114   -0.014313712    0.054372495

Difference to translation invariance:
           :   -0.0000705297    0.0000084163    0.0000600042

Difference to rotation invariance:
           :   -0.0003467334   -0.0001536262    0.0002193353

Norm of the cartesian gradient     ...    0.2106422536
RMS gradient                       ...    0.0459659082
MAX gradient                       ...    0.1305800380

------------------------------------------------------------------------------
                  RELAXED CIS/TDA DENSITY POPULATION ANALYSIS
                                   IROOT 1
------------------------------------------------------------------------------
------------------------------------------------------------------------------
                           ORCA POPULATION ANALYSIS
------------------------------------------------------------------------------
Input electron density              ... ox_es1_G_orca0008.cisp
BaseName (.gbw .S,...)              ... ox_es1_G_orca0008

                    ********************************
                    * MULLIKEN POPULATION ANALYSIS *
                    ********************************

-----------------------
MULLIKEN ATOMIC CHARGES
-----------------------
   0 O :   -0.271329
   1 C :   -0.052226
   2 C :   -0.297858
   3 H :    0.163203
   4 H :    0.150115
   5 H :    0.171225
   6 H :    0.136869
Sum of atomic charges:   -0.0000000

--------------------------------
MULLIKEN REDUCED ORBITAL CHARGES
--------------------------------
  0 O s       :     3.867212  s :     3.867212
      pz      :     1.847790  p :     4.372113
      px      :     1.308996
      py      :     1.215326
      dz2     :     0.003159  d :     0.030508
      dxz     :     0.001793
      dyz     :     0.007179
      dx2y2   :     0.008511
      dxy     :     0.009867
      f0      :     0.000201  f :     0.001496
      f+1     :     0.000136
      f-1     :     0.000192
      f+2     :     0.000090
      f-2     :     0.000177
      f+3     :     0.000328
      f-3     :     0.000371
  1 C s       :     3.214477  s :     3.214477
      pz      :     0.982539  p :     2.663115
      px      :     0.861432
      py      :     0.819143
      dz2     :     0.014294  d :     0.159858
      dxz     :     0.027652
      dyz     :     0.054726
      dx2y2   :     0.038552
      dxy     :     0.024634
      f0      :     0.002439  f :     0.014776
      f+1     :     0.001236
      f-1     :     0.001007
      f+2     :     0.000864
      f-2     :     0.003110
      f+3     :     0.002045
      f-3     :     0.004075
  2 C s       :     3.380537  s :     3.380537
      pz      :     1.037304  p :     2.873447
      px      :     0.823200
      py      :     1.012943
      dz2     :     0.005923  d :     0.040404
      dxz     :     0.015926
      dyz     :     0.005240
      dx2y2   :     0.005936
      dxy     :     0.007379
      f0      :     0.000375  f :     0.003470
      f+1     :     0.000762
      f-1     :     0.000300
      f+2     :     0.000484
      f-2     :     0.000159
      f+3     :     0.000694
      f-3     :     0.000698
  3 H s       :     0.816076  s :     0.816076
      pz      :     0.011036  p :     0.020721
      px      :     0.005066
      py      :     0.004619
  4 H s       :     0.827370  s :     0.827370
      pz      :     0.010659  p :     0.022516
      px      :     0.005235
      py      :     0.006622
  5 H s       :     0.803255  s :     0.803255
      pz      :     0.010425  p :     0.025520
      px      :     0.007075
      py      :     0.008019
  6 H s       :     0.844693  s :     0.844693
      pz      :     0.009709  p :     0.018438
      px      :     0.004000
      py      :     0.004729


                     *******************************
                     * LOEWDIN POPULATION ANALYSIS *
                     *******************************

----------------------
LOEWDIN ATOMIC CHARGES
----------------------
   0 O :    0.054577
   1 C :   -0.487010
   2 C :   -0.172593
   3 H :    0.183982
   4 H :    0.183935
   5 H :    0.093555
   6 H :    0.143553

-------------------------------
LOEWDIN REDUCED ORBITAL CHARGES
-------------------------------
  0 O s       :     3.477614  s :     3.477614
      pz      :     1.753656  p :     4.382121
      px      :     1.301573
      py      :     1.326892
      dz2     :     0.007663  d :     0.079943
      dxz     :     0.005834
      dyz     :     0.023138
      dx2y2   :     0.022150
      dxy     :     0.021157
      f0      :     0.000737  f :     0.005745
      f+1     :     0.000306
      f-1     :     0.000633
      f+2     :     0.000390
      f-2     :     0.001059
      f+3     :     0.001230
      f-3     :     0.001389
  1 C s       :     2.858740  s :     2.858740
      pz      :     0.997976  p :     2.929457
      px      :     0.988496
      py      :     0.942985
      dz2     :     0.076882  d :     0.599380
      dxz     :     0.083130
      dyz     :     0.157517
      dx2y2   :     0.151102
      dxy     :     0.130749
      f0      :     0.017574  f :     0.099433
      f+1     :     0.007254
      f-1     :     0.007512
      f+2     :     0.005588
      f-2     :     0.021237
      f+3     :     0.015533
      f-3     :     0.024736
  2 C s       :     2.991610  s :     2.991610
      pz      :     1.083228  p :     2.991970
      px      :     0.945013
      py      :     0.963729
      dz2     :     0.027299  d :     0.172114
      dxz     :     0.071699
      dyz     :     0.013768
      dx2y2   :     0.033622
      dxy     :     0.025727
      f0      :     0.002026  f :     0.016897
      f+1     :     0.002938
      f-1     :     0.001309
      f+2     :     0.002412
      f-2     :     0.002047
      f+3     :     0.003358
      f-3     :     0.002807
  3 H s       :     0.763446  s :     0.763446
      pz      :     0.028839  p :     0.052572
      px      :     0.012993
      py      :     0.010741
  4 H s       :     0.760249  s :     0.760249
      pz      :     0.027651  p :     0.055815
      px      :     0.012219
      py      :     0.015945
  5 H s       :     0.822763  s :     0.822763
      pz      :     0.035363  p :     0.083681
      px      :     0.021739
      py      :     0.026580
  6 H s       :     0.806700  s :     0.806700
      pz      :     0.026948  p :     0.049747
      px      :     0.009607
      py      :     0.013192


                      *****************************
                      * MAYER POPULATION ANALYSIS *
                      *****************************

  NA   - Mulliken gross atomic population
  ZA   - Total nuclear charge
  QA   - Mulliken gross atomic charge
  VA   - Mayer's total valence
  BVA  - Mayer's bonded valence
  FA   - Mayer's free valence

  ATOM       NA         ZA         QA         VA         BVA        FA
  0 O      8.2713     8.0000    -0.2713     1.7469     1.3424     0.4046
  1 C      6.0522     6.0000    -0.0522     4.1064     4.0049     0.1015
  2 C      6.2979     6.0000    -0.2979     3.7162     3.0172     0.6991
  3 H      0.8368     1.0000     0.1632     0.9460     0.8641     0.0819
  4 H      0.8499     1.0000     0.1501     0.9601     0.8898     0.0703
  5 H      0.8288     1.0000     0.1712     0.9564     0.9390     0.0173
  6 H      0.8631     1.0000     0.1369     0.9661     0.9596     0.0065

  Mayer bond orders larger than 0.100000
B(  0-O ,  1-C ) :   1.2528 B(  1-C ,  2-C ) :   1.0200 B(  1-C ,  3-H ) :   0.8392 
B(  1-C ,  4-H ) :   0.8816 B(  2-C ,  5-H ) :   0.9320 B(  2-C ,  6-H ) :   0.9504 



-------
TIMINGS
-------

Total TD-DFT gradient time         ...        6.228 sec

Fock matrix formation       ....       0.911 sec  ( 14.6%)
  Coulomb formation         ....       0.739 sec  ( 81.1% of F)
  RI-J                      ....       0.316 sec  ( 34.7% of F)
  Chain of spheres X        ....       0.423 sec  ( 46.4% of F)
  XC integration            ....       0.172 sec  ( 18.9% of F)
Z-vector equation           ....       2.441 sec  ( 39.2%)
One electron gradient       ....       0.035 sec  (  0.6%)
Prescreening matrices       ....       0.161 sec  (  2.6%)
RI-J Coulomb gradient       ....       0.292 sec  (  4.7%)
COSX gradient               ....       0.390 sec  (  6.3%)
XC gradient                 ....       1.680 sec  ( 27.0%)

Maximum memory used throughout the entire SCFGRAD-calculation: 130.2 MB

                            ***************************************
                            *     ORCA property calculations      *
                            ***************************************

                                    ---------------------
                                    Active property flags
                                    ---------------------
   (+) Dipole Moment


------------------------------------------------------------------------------
                       ORCA ELECTRIC PROPERTIES CALCULATION
------------------------------------------------------------------------------

Dipole Moment Calculation                       ... on
Quadrupole Moment Calculation                   ... off
Polarizability Calculation                      ... off
GBWName                                         ... ox_es1_G_orca0008.gbw
Electron density                                ... ox_es1_G_orca0008.scfp
The origin for moment calculation is the CENTER OF MASS  = (-1.007767, -0.008541 -0.040515)

-------------
DIPOLE MOMENT
-------------
                                X             Y             Z
Electronic contribution:     -1.33117       1.65012      -0.40502
Nuclear contribution   :      2.07693      -2.59198       0.28619
                        -----------------------------------------
Total Dipole Moment    :      0.74576      -0.94185      -0.11883
                        -----------------------------------------
Magnitude (a.u.)       :      1.20721
Magnitude (Debye)      :      3.06849



--------------------
Rotational spectrum 
--------------------
 
Rotational constants in cm-1:     1.729268     0.303610     0.291148 
Rotational constants in MHz : 51842.142901  9101.987587  8728.407012 

 Dipole components along the rotational axes: 
x,y,z [a.u.] :     1.064046    -0.444800    -0.356816 
x,y,z [Debye]:     2.704591    -1.130592    -0.906955 

 

                        *** CIS RELAXED DENSITY ***

------------------------------------------------------------------------------
                       ORCA ELECTRIC PROPERTIES CALCULATION
------------------------------------------------------------------------------

Dipole Moment Calculation                       ... on
Quadrupole Moment Calculation                   ... off
Polarizability Calculation                      ... off
GBWName                                         ... ox_es1_G_orca0008.gbw
Electron density                                ... ox_es1_G_orca0008.cisp
The origin for moment calculation is the CENTER OF MASS  = (-1.007767, -0.008541 -0.040515)

-------------
DIPOLE MOMENT
-------------
                                X             Y             Z
Electronic contribution:     -1.58274       1.77035      -0.17615
Nuclear contribution   :      2.07693      -2.59198       0.28619
                        -----------------------------------------
Total Dipole Moment    :      0.49419      -0.82162       0.11003
                        -----------------------------------------
Magnitude (a.u.)       :      0.96509
Magnitude (Debye)      :      2.45306



--------------------
Rotational spectrum 
--------------------
 
Rotational constants in cm-1:     1.729268     0.303610     0.291148 
Rotational constants in MHz : 51842.142901  9101.987587  8728.407012 

 Dipole components along the rotational axes: 
x,y,z [a.u.] :     0.787648    -0.538546    -0.144836 
x,y,z [Debye]:     2.002043    -1.368875    -0.368143 

 

Timings for individual modules:

Sum of individual times         ...        8.624 sec (=   0.144 min)
GTO integral calculation        ...        0.247 sec (=   0.004 min)   2.9 %
SCF iterations                  ...        1.242 sec (=   0.021 min)  14.4 %
CIS module                      ...        0.748 sec (=   0.012 min)   8.7 %
SCF Gradient evaluation         ...        6.387 sec (=   0.106 min)  74.1 %
                             ****ORCA TERMINATED NORMALLY****
TOTAL RUN TIME: 0 days 0 hours 0 minutes 8 seconds 937 msec
