
                                 *****************
                                 * O   R   C   A *
                                 *****************

                                            #,                                       
                                            ###                                      
                                            ####                                     
                                            #####                                    
                                            ######                                   
                                           ########,                                 
                                     ,,################,,,,,                         
                               ,,#################################,,                 
                          ,,##########################################,,             
                       ,#########################################, ''#####,          
                    ,#############################################,,   '####,        
                  ,##################################################,,,,####,       
                ,###########''''           ''''###############################       
              ,#####''   ,,,,##########,,,,          '''####'''          '####       
            ,##' ,,,,###########################,,,                        '##       
           ' ,,###''''                  '''############,,,                           
         ,,##''                                '''############,,,,        ,,,,,,###''
      ,#''                                            '''#######################'''  
     '                                                          ''''####''''         
             ,#######,   #######,   ,#######,      ##                                
            ,#'     '#,  ##    ##  ,#'     '#,    #''#        ######   ,####,        
            ##       ##  ##   ,#'  ##            #'  '#       #        #'  '#        
            ##       ##  #######   ##           ,######,      #####,   #    #        
            '#,     ,#'  ##    ##  '#,     ,#' ,#      #,         ##   #,  ,#        
             '#######'   ##     ##  '#######'  #'      '#     #####' # '####'        



                  #######################################################
                  #                        -***-                        #
                  #          Department of theory and spectroscopy      #
                  #    Directorship and core code : Frank Neese         #
                  #        Max Planck Institute fuer Kohlenforschung    #
                  #                Kaiser Wilhelm Platz 1               #
                  #                 D-45470 Muelheim/Ruhr               #
                  #                      Germany                        #
                  #                                                     #
                  #                  All rights reserved                #
                  #                        -***-                        #
                  #######################################################


                         Program Version 5.0.2 -  RELEASE  -


 With contributions from (in alphabetic order):
   Daniel Aravena         : Magnetic Suceptibility
   Michael Atanasov       : Ab Initio Ligand Field Theory (pilot matlab implementation)
   Alexander A. Auer      : GIAO ZORA, VPT2 properties, NMR spectrum
   Ute Becker             : Parallelization
   Giovanni Bistoni       : ED, misc. LED, open-shell LED, HFLD
   Martin Brehm           : Molecular dynamics
   Dmytro Bykov           : SCF Hessian
   Vijay G. Chilkuri      : MRCI spin determinant printing, contributions to CSF-ICE
   Dipayan Datta          : RHF DLPNO-CCSD density
   Achintya Kumar Dutta   : EOM-CC, STEOM-CC
   Dmitry Ganyushin       : Spin-Orbit,Spin-Spin,Magnetic field MRCI
   Miquel Garcia          : C-PCM and meta-GGA Hessian, CC/C-PCM, Gaussian charge scheme
   Yang Guo               : DLPNO-NEVPT2, F12-NEVPT2, CIM, IAO-localization
   Andreas Hansen         : Spin unrestricted coupled pair/coupled cluster methods
   Benjamin Helmich-Paris : MC-RPA, TRAH-SCF, COSX integrals
   Lee Huntington         : MR-EOM, pCC
   Robert Izsak           : Overlap fitted RIJCOSX, COSX-SCS-MP3, EOM
   Marcus Kettner         : VPT2
   Christian Kollmar      : KDIIS, OOCD, Brueckner-CCSD(T), CCSD density, CASPT2, CASPT2-K
   Simone Kossmann        : Meta GGA functionals, TD-DFT gradient, OOMP2, MP2 Hessian
   Martin Krupicka        : Initial AUTO-CI
   Lucas Lang             : DCDCAS
   Marvin Lechner         : AUTO-CI (C++ implementation), FIC-MRCC
   Dagmar Lenk            : GEPOL surface, SMD
   Dimitrios Liakos       : Extrapolation schemes; Compound Job, initial MDCI parallelization
   Dimitrios Manganas     : Further ROCIS development; embedding schemes
   Dimitrios Pantazis     : SARC Basis sets
   Anastasios Papadopoulos: AUTO-CI, single reference methods and gradients
   Taras Petrenko         : DFT Hessian,TD-DFT gradient, ASA, ECA, R-Raman, ABS, FL, XAS/XES, NRVS
   Peter Pinski           : DLPNO-MP2, DLPNO-MP2 Gradient
   Christoph Reimann      : Effective Core Potentials
   Marius Retegan         : Local ZFS, SOC
   Christoph Riplinger    : Optimizer, TS searches, QM/MM, DLPNO-CCSD(T), (RO)-DLPNO pert. Triples
   Tobias Risthaus        : Range-separated hybrids, TD-DFT gradient, RPA, STAB
   Michael Roemelt        : Original ROCIS implementation
   Masaaki Saitow         : Open-shell DLPNO-CCSD energy and density
   Barbara Sandhoefer     : DKH picture change effects
   Avijit Sen             : IP-ROCIS
   Kantharuban Sivalingam : CASSCF convergence, NEVPT2, FIC-MRCI
   Bernardo de Souza      : ESD, SOC TD-DFT
   Georgi Stoychev        : AutoAux, RI-MP2 NMR, DLPNO-MP2 response
   Willem Van den Heuvel  : Paramagnetic NMR
   Boris Wezisla          : Elementary symmetry handling
   Frank Wennmohs         : Technical directorship


 We gratefully acknowledge several colleagues who have allowed us to
 interface, adapt or use parts of their codes:
   Stefan Grimme, W. Hujo, H. Kruse, P. Pracht,  : VdW corrections, initial TS optimization,
                  C. Bannwarth, S. Ehlert          DFT functionals, gCP, sTDA/sTD-DF
   Ed Valeev, F. Pavosevic, A. Kumar             : LibInt (2-el integral package), F12 methods
   Garnet Chan, S. Sharma, J. Yang, R. Olivares  : DMRG
   Ulf Ekstrom                                   : XCFun DFT Library
   Mihaly Kallay                                 : mrcc  (arbitrary order and MRCC methods)
   Jiri Pittner, Ondrej Demel                    : Mk-CCSD
   Frank Weinhold                                : gennbo (NPA and NBO analysis)
   Christopher J. Cramer and Donald G. Truhlar   : smd solvation model
   Lars Goerigk                                  : TD-DFT with DH, B97 family of functionals
   V. Asgeirsson, H. Jonsson                     : NEB implementation
   FAccTs GmbH                                   : IRC, NEB, NEB-TS, DLPNO-Multilevel, CI-OPT
                                                   MM, QMMM, 2- and 3-layer-ONIOM, Crystal-QMMM,
                                                   LR-CPCM, SF, NACMEs, symmetry and pop. for TD-DFT,
                                                   nearIR, NL-DFT gradient (VV10), updates on ESD,
                                                   ML-optimized integration grids
   S Lehtola, MJT Oliveira, MAL Marques          : LibXC Library
   Liviu Ungur et al                             : ANISO software


 Your calculation uses the libint2 library for the computation of 2-el integrals
 For citations please refer to: http://libint.valeyev.net

 Your ORCA version has been built with support for libXC version: 5.1.0
 For citations please refer to: https://tddft.org/programs/libxc/

 This ORCA versions uses:
   CBLAS   interface :  Fast vector & matrix operations
   LAPACKE interface :  Fast linear algebra routines
   SCALAPACK package :  Parallel linear algebra routines
   Shared memory     :  Shared parallel matrices
   BLAS/LAPACK       :  OpenBLAS 0.3.15  USE64BITINT DYNAMIC_ARCH NO_AFFINITY SkylakeX SINGLE_THREADED
        Core in use  :  SkylakeX
   Copyright (c) 2011-2014, The OpenBLAS Project


Your calculation utilizes the atom-pairwise dispersion correction
with the Becke-Johnson damping scheme (D3BJ)
Cite in your paper:
S.Grimme, S.Ehrlich, L.Goerigk, J Comput Chem, (2011), 32, 1456–1465 
S.Grimme, J.Antony, S.Ehrlich and H.Krieg, J.Chem.Phys., 132, (2010), 154104 
   

================================================================================

----- Orbital basis set information -----
Your calculation utilizes the basis: def2-TZVP
   F. Weigend and R. Ahlrichs, Phys. Chem. Chem. Phys. 7, 3297 (2005).

----- AuxJ basis set information -----
Your calculation utilizes the auxiliary basis: def2/J
   F. Weigend, Phys. Chem. Chem. Phys. 8, 1057 (2006).

================================================================================
                                        WARNINGS
                       Please study these warnings very carefully!
================================================================================

INFO   : Checking CIS options ...

WARNING: CIS/ROCIS methods need fully converged wavefunctions
  ===> : Setting SCFConvForced true
         You can overwrite this default with %scf ConvForced false 


INFO   : the flag for use of the SHARK integral package has been found!

================================================================================
                                       INPUT FILE
================================================================================
NAME = ox_es1_A_orca0031.inp
|  1> ! engrad PBE0 D3BJ def2-TZVP  
|  2> %pal nprocs 8 end
|  3> %maxcore 3000
|  4> 
|  5> %tddft
|  6>   nroots 1
|  7>   tda true
|  8>   Iroot 1
|  9>   end 
| 10> *xyz 0 1 
| 11> O   0.056328301477387877 0.7534798754722585 -0.05532618543708352
| 12> C   -0.6002215998375069 -0.44405956829927556 0.0006964645956473102
| 13> C   0.7276832856444998 -0.43711625196160725 -0.007218020596197124
| 14> H   -1.2925060303440117 -0.6956137570620196 0.9183385564892
| 15> H   -1.2909940085566882 -0.7039131991338583 -0.9146547086154052
| 16> H   1.2510739591289572 -0.5930712105708655 -1.0525247104196507
| 17> H   1.318398212596123 -0.6059665503751186 0.8163066583795925
| 18> *
| 19> 
| 20>                          ****END OF INPUT****
================================================================================

                     *******************************
                     * Energy+Gradient Calculation *
                     *******************************

---------------------------------
CARTESIAN COORDINATES (ANGSTROEM)
---------------------------------
  O      0.056328    0.753480   -0.055326
  C     -0.600222   -0.444060    0.000696
  C      0.727683   -0.437116   -0.007218
  H     -1.292506   -0.695614    0.918339
  H     -1.290994   -0.703913   -0.914655
  H      1.251074   -0.593071   -1.052525
  H      1.318398   -0.605967    0.816307

----------------------------
CARTESIAN COORDINATES (A.U.)
----------------------------
  NO LB      ZA    FRAG     MASS         X           Y           Z
   0 O     8.0000    0    15.999    0.106445    1.423871   -0.104551
   1 C     6.0000    0    12.011   -1.134254   -0.839151    0.001316
   2 C     6.0000    0    12.011    1.375122   -0.826030   -0.013640
   3 H     1.0000    0     1.008   -2.442482   -1.314519    1.735408
   4 H     1.0000    0     1.008   -2.439625   -1.330203   -1.728447
   5 H     1.0000    0     1.008    2.364187   -1.120742   -1.988983
   6 H     1.0000    0     1.008    2.491412   -1.145111    1.542596

--------------------------------
INTERNAL COORDINATES (ANGSTROEM)
--------------------------------
 O      0   0   0     0.000000000000     0.00000000     0.00000000
 C      1   0   0     1.366856623652     0.00000000     0.00000000
 C      2   1   0     1.327946623025    60.97798071     0.00000000
 H      2   1   3     1.176692080121   120.12304375   117.61657424
 H      2   1   3     1.175822350699   116.35312881   241.93686556
 H      3   2   1     1.179375182881   116.63873501   263.83914981
 H      3   2   1     1.027447052203   124.70005293   104.24131332

---------------------------
INTERNAL COORDINATES (A.U.)
---------------------------
 O      0   0   0     0.000000000000     0.00000000     0.00000000
 C      1   0   0     2.582984683039     0.00000000     0.00000000
 C      2   1   0     2.509455437984    60.97798071     0.00000000
 H      2   1   3     2.223625775384   120.12304375   117.61657424
 H      2   1   3     2.221982224966   116.35312881   241.93686556
 H      3   2   1     2.228696104788   116.63873501   263.83914981
 H      3   2   1     1.941593545768   124.70005293   104.24131332

---------------------
BASIS SET INFORMATION
---------------------
There are 3 groups of distinct atoms

 Group   1 Type O   : 11s6p2d1f contracted to 5s3p2d1f pattern {62111/411/11/1}
 Group   2 Type C   : 11s6p2d1f contracted to 5s3p2d1f pattern {62111/411/11/1}
 Group   3 Type H   : 5s1p contracted to 3s1p pattern {311/1}

Atom   0O    basis set group =>   1
Atom   1C    basis set group =>   2
Atom   2C    basis set group =>   2
Atom   3H    basis set group =>   3
Atom   4H    basis set group =>   3
Atom   5H    basis set group =>   3
Atom   6H    basis set group =>   3
---------------------------------
AUXILIARY/J BASIS SET INFORMATION
---------------------------------
There are 3 groups of distinct atoms

 Group   1 Type O   : 12s5p4d2f1g contracted to 6s4p3d1f1g pattern {711111/2111/211/2/1}
 Group   2 Type C   : 12s5p4d2f1g contracted to 6s4p3d1f1g pattern {711111/2111/211/2/1}
 Group   3 Type H   : 5s2p1d contracted to 3s1p1d pattern {311/2/1}

Atom   0O    basis set group =>   1
Atom   1C    basis set group =>   2
Atom   2C    basis set group =>   2
Atom   3H    basis set group =>   3
Atom   4H    basis set group =>   3
Atom   5H    basis set group =>   3
Atom   6H    basis set group =>   3

Checking for AutoStart:
The File: ox_es1_A_orca0031.gbw exists
Trying to determine its content:
     ... Fine, the file contains calculation information
     ... Fine, the calculation information was read
     ... Fine, the file contains a basis set
     ... Fine, the basis set was read
     ... Fine, the file contains a geometry
     ... Fine, the geometry was read
     ... Fine, the file contains a set of orbitals
     ... Fine, the orbitals can be read
     => possible old guess file was deleted
     => GBW file was renamed to GES file
     => GES file is set as startup file
     => Guess is set to MORead
     ... now leaving AutoStart



           ************************************************************
           *        Program running with 8 parallel MPI-processes     *
           *              working on a common directory               *
           ************************************************************
------------------------------------------------------------------------------
                           ORCA GTO INTEGRAL CALCULATION
                           -- RI-GTO INTEGRALS CHOSEN --
------------------------------------------------------------------------------
------------------------------------------------------------------------------
                   ___                                                        
                  /   \      - P O W E R E D   B Y -                         
                 /     \                                                     
                 |  |  |   _    _      __       _____    __    __             
                 |  |  |  | |  | |    /  \     |  _  \  |  |  /  |          
                  \  \/   | |  | |   /    \    | | | |  |  | /  /          
                 / \  \   | |__| |  /  /\  \   | |_| |  |  |/  /          
                |  |  |   |  __  | /  /__\  \  |    /   |      \           
                |  |  |   | |  | | |   __   |  |    \   |  |\   \          
                \     /   | |  | | |  |  |  |  | |\  \  |  | \   \       
                 \___/    |_|  |_| |__|  |__|  |_| \__\ |__|  \__/        
                                                                              
                      - O R C A' S   B I G   F R I E N D -                    
                                      &                                       
                       - I N T E G R A L  F E E D E R -                       
                                                                              
 v1 FN, 2020, v2 2021                                                         
------------------------------------------------------------------------------


Reading SHARK input file ox_es1_A_orca0031.SHARKINP.tmp ... ok
----------------------
SHARK INTEGRAL PACKAGE
----------------------

Number of atoms                             ...      7
Number of basis functions                   ...    117
Number of shells                            ...     49
Maximum angular momentum                    ...      3
Integral batch strategy                     ... SHARK/LIBINT Hybrid
RI-J (if used) integral strategy            ... SPLIT-RIJ (Revised 2003 algorithm where possible)
Printlevel                                  ...      1
Contraction scheme used                     ... SEGMENTED contraction
Coulomb Range Separation                    ... NOT USED
Exchange Range Separation                   ... NOT USED
Finite Nucleus Model                        ... NOT USED
Auxiliary Coulomb fitting basis             ... AVAILABLE
   # of basis functions in Aux-J            ...    191
   # of shells in Aux-J                     ...     65
   Maximum angular momentum in Aux-J        ...      4
Auxiliary J/K fitting basis                 ... NOT available
Auxiliary Correlation fitting basis         ... NOT available
Auxiliary 'external' fitting basis          ... NOT available
Integral threshold                          ...     2.500000e-11
Primitive cut-off                           ...     2.500000e-12
Primitive pair pre-selection threshold      ...     2.500000e-12

Calculating pre-screening integrals         ... done (  0.0 sec) Dimension = 49
Organizing shell pair data                  ... done (  0.0 sec)
Shell pair information
Total number of shell pairs                 ...      1225
Shell pairs after pre-screening             ...      1222
Total number of primitive shell pairs       ...      3648
Primitive shell pairs kept                  ...      3161
          la=0 lb=0:    375 shell pairs
          la=1 lb=0:    351 shell pairs
          la=1 lb=1:     91 shell pairs
          la=2 lb=0:    162 shell pairs
          la=2 lb=1:     78 shell pairs
          la=2 lb=2:     21 shell pairs
          la=3 lb=0:     81 shell pairs
          la=3 lb=1:     39 shell pairs
          la=3 lb=2:     18 shell pairs
          la=3 lb=3:      6 shell pairs

Calculating one electron integrals          ... done (  0.0 sec)
Calculating RI/J V-Matrix + Cholesky decomp.... done (  0.0 sec)
Calculating Nuclear repulsion               ... done (  0.0 sec) ENN=     77.844775357383 Eh

SHARK setup successfully completed in   0.1 seconds

Maximum memory used throughout the entire GTOINT-calculation: 14.9 MB


           ************************************************************
           *        Program running with 8 parallel MPI-processes     *
           *              working on a common directory               *
           ************************************************************
-------------------------------------------------------------------------------
                                 ORCA SCF
-------------------------------------------------------------------------------

------------
SCF SETTINGS
------------
Hamiltonian:
 Density Functional     Method          .... DFT(GTOs)
 Exchange Functional    Exchange        .... PBE
   PBE kappa parameter   XKappa         ....  0.804000
   PBE mue parameter    XMuePBE         ....  0.219520
 Correlation Functional Correlation     .... PBE
   PBE beta parameter  CBetaPBE         ....  0.066725
 LDA part of GGA corr.  LDAOpt          .... PW91-LDA
 Gradients option       PostSCFGGA      .... off
 Hybrid DFT is turned on
   Fraction HF Exchange ScalHFX         ....  0.250000
   Scaling of DF-GGA-X  ScalDFX         ....  0.750000
   Scaling of DF-GGA-C  ScalDFC         ....  1.000000
   Scaling of DF-LDA-C  ScalLDAC        ....  1.000000
   Perturbative correction              ....  0.000000
   Density functional embedding theory  .... OFF
   NL short-range parameter             ....  6.900000
 RI-approximation to the Coulomb term is turned on
   Number of AuxJ basis functions       .... 191
   RIJ-COSX (HFX calculated with COS-X)).... on


General Settings:
 Integral files         IntName         .... ox_es1_A_orca0031
 Hartree-Fock type      HFTyp           .... RHF
 Total Charge           Charge          ....    0
 Multiplicity           Mult            ....    1
 Number of Electrons    NEL             ....   24
 Basis Dimension        Dim             ....  117
 Nuclear Repulsion      ENuc            ....     77.8447753574 Eh

Convergence Acceleration:
 DIIS                   CNVDIIS         .... on
   Start iteration      DIISMaxIt       ....    12
   Startup error        DIISStart       ....  0.200000
   # of expansion vecs  DIISMaxEq       ....     5
   Bias factor          DIISBfac        ....   1.050
   Max. coefficient     DIISMaxC        ....  10.000
 Trust-Rad. Augm. Hess. CNVTRAH         .... auto
   Auto Start mean grad. ratio tolernc. ....  1.125000
   Auto Start start iteration           ....     1
   Auto Start num. interpolation iter.  ....    10
   Max. Number of Micro iterations      ....    16
   Max. Number of Macro iterations      .... Maxiter - #DIIS iter
   Number of Davidson start vectors     ....     2
   Converg. threshold I  (grad. norm)   ....   1.000e-05
   Converg. threshold II (energy diff.) ....   1.000e-08
   Grad. Scal. Fac. for Micro threshold ....   0.100
   Minimum threshold for Micro iter.    ....   0.010
   NR start threshold (gradient norm)   ....   0.001
   Initial trust radius                 ....   0.400
   Minimum AH scaling param. (alpha)    ....   1.000
   Maximum AH scaling param. (alpha)    .... 1000.000
   Orbital update algorithm             .... Taylor
   White noise on init. David. guess    .... on
   Maximum white noise                  ....   0.010
   Quad. conv. algorithm                .... NR
 SOSCF                  CNVSOSCF        .... on
   Start iteration      SOSCFMaxIt      ....   150
   Startup grad/error   SOSCFStart      ....  0.003300
 Level Shifting         CNVShift        .... on
   Level shift para.    LevelShift      ....    0.2500
   Turn off err/grad.   ShiftErr        ....    0.0010
 Zerner damping         CNVZerner       .... off
 Static damping         CNVDamp         .... on
   Fraction old density DampFac         ....    0.7000
   Max. Damping (<1)    DampMax         ....    0.9800
   Min. Damping (>=0)   DampMin         ....    0.0000
   Turn off err/grad.   DampErr         ....    0.1000
 Fernandez-Rico         CNVRico         .... off

SCF Procedure:
 Maximum # iterations   MaxIter         ....   125
 SCF integral mode      SCFMode         .... Direct
   Integral package                     .... SHARK and LIBINT hybrid scheme
 Reset frequency        DirectResetFreq ....    20
 Integral Threshold     Thresh          ....  2.500e-11 Eh
 Primitive CutOff       TCut            ....  2.500e-12 Eh

Convergence Tolerance:
 Convergence Check Mode ConvCheckMode   .... Total+1el-Energy
 Convergence forced     ConvForced      .... 1
 Energy Change          TolE            ....  1.000e-08 Eh
 1-El. energy change                    ....  1.000e-05 Eh
 Orbital Gradient       TolG            ....  1.000e-05
 Orbital Rotation angle TolX            ....  1.000e-05
 DIIS Error             TolErr          ....  5.000e-07


Diagonalization of the overlap matrix:
Smallest eigenvalue                        ... 1.557e-04
Time for diagonalization                   ...    0.001 sec
Threshold for overlap eigenvalues          ... 1.000e-08
Number of eigenvalues below threshold      ... 0
Time for construction of square roots      ...    0.001 sec
Total time needed                          ...    0.003 sec

---------------------
INITIAL GUESS: MOREAD
---------------------
Guess MOs are being read from file: ox_es1_A_orca0031.ges
Input Geometry matches current geometry (good)
Input basis set matches current basis set (good)
MOs were renormalized
MOs were reorthogonalized (Cholesky)
                      ------------------
                      INITIAL GUESS DONE (   0.0 sec)
                      ------------------
-------------------
DFT GRID GENERATION
-------------------

General Integration Accuracy     IntAcc      ... 4.388
Radial Grid Type                 RadialGrid  ... OptM3 with GC (2021)
Angular Grid (max. ang.)         AngularGrid ... 4 (Lebedev-302)
Angular grid pruning method      GridPruning ... 4 (adaptive)
Weight generation scheme         WeightScheme... Becke
Basis function cutoff            BFCut       ... 1.0000e-11
Integration weight cutoff        WCut        ... 1.0000e-14
Angular grids for H and He will be reduced by one unit
Partially contracted basis set               ... off
Rotationally invariant grid construction     ... off

Total number of grid points                  ...    31307
Total number of batches                      ...      493
Average number of points per batch           ...       63
Average number of grid points per atom       ...     4472
Time for grid setup =    0.120 sec

--------------------
COSX GRID GENERATION
--------------------

GRIDX 1
-------
General Integration Accuracy     IntAcc      ... 3.816
Radial Grid Type                 RadialGrid  ... OptM3 with GC (2021)
Angular Grid (max. ang.)         AngularGrid ... 1 (Lebedev-50)
Angular grid pruning method      GridPruning ... 4 (adaptive)
Weight generation scheme         WeightScheme... Becke
Basis function cutoff            BFCut       ... 1.0000e-11
Integration weight cutoff        WCut        ... 1.0000e-14
Angular grids for H and He will be reduced by one unit
Partially contracted basis set               ... on
Rotationally invariant grid construction     ... off

Total number of grid points                  ...     4034
Total number of batches                      ...       67
Average number of points per batch           ...       60
Average number of grid points per atom       ...      576
UseSFitting                                  ... on

GRIDX 2
-------
General Integration Accuracy     IntAcc      ... 4.020
Radial Grid Type                 RadialGrid  ... OptM3 with GC (2021)
Angular Grid (max. ang.)         AngularGrid ... 2 (Lebedev-110)
Angular grid pruning method      GridPruning ... 4 (adaptive)
Weight generation scheme         WeightScheme... Becke
Basis function cutoff            BFCut       ... 1.0000e-11
Integration weight cutoff        WCut        ... 1.0000e-14
Angular grids for H and He will be reduced by one unit
Partially contracted basis set               ... on
Rotationally invariant grid construction     ... off

Total number of grid points                  ...     8709
Total number of batches                      ...      141
Average number of points per batch           ...       61
Average number of grid points per atom       ...     1244
UseSFitting                                  ... on

GRIDX 3
-------
General Integration Accuracy     IntAcc      ... 4.338
Radial Grid Type                 RadialGrid  ... OptM3 with GC (2021)
Angular Grid (max. ang.)         AngularGrid ... 3 (Lebedev-194)
Angular grid pruning method      GridPruning ... 4 (adaptive)
Weight generation scheme         WeightScheme... Becke
Basis function cutoff            BFCut       ... 1.0000e-11
Integration weight cutoff        WCut        ... 1.0000e-14
Angular grids for H and He will be reduced by one unit
Partially contracted basis set               ... on
Rotationally invariant grid construction     ... off

Total number of grid points                  ...    19259
Total number of batches                      ...      304
Average number of points per batch           ...       63
Average number of grid points per atom       ...     2751
UseSFitting                                  ... on

Time for X-Grid setup             =    0.073 sec

--------------
SCF ITERATIONS
--------------
ITER       Energy         Delta-E        Max-DP      RMS-DP      [F,P]     Damp
               ***  Starting incremental Fock matrix formation  ***
                      *** Initiating the SOSCF procedure ***
                      *** Re-Reading the Fockian *** 
                      *** Removing any level shift *** 
ITER      Energy       Delta-E        Grad      Rot      Max-DP    RMS-DP
  0   -153.63947857 -153.6394785675  0.000000  0.000000  0.000001  0.000000
               *** Restarting incremental Fock matrix formation ***
                 **** Energy Check signals convergence ****
              ***Rediagonalizing the Fockian in SOSCF/NRSCF***

               *****************************************************
               *                     SUCCESS                       *
               *           SCF CONVERGED AFTER   1 CYCLES          *
               *****************************************************

Old exchange energy                            =     -5.009130473 Eh
New exchange energy                            =     -5.009110400 Eh
Exchange energy change after final integration =      0.000020073 Eh
Total energy after final integration           =   -153.639458495 Eh
Final COS-X integration done in                =     0.263 sec

----------------
TOTAL SCF ENERGY
----------------

Total Energy       :         -153.63945850 Eh           -4180.74221 eV

Components:
Nuclear Repulsion  :           77.84477536 Eh            2118.26403 eV
Electronic Energy  :         -231.48423385 Eh           -6299.00624 eV
One Electron Energy:         -362.11871751 Eh           -9853.75126 eV
Two Electron Energy:          130.63448366 Eh            3554.74502 eV
Max COSX asymmetry :            0.00000234 Eh               0.00006 eV

Virial components:
Potential Energy   :         -306.86395065 Eh           -8350.19261 eV
Kinetic Energy     :          153.22449216 Eh            4169.45040 eV
Virial Ratio       :            2.00270822


DFT components:
N(Alpha)           :       11.999999393982 electrons
N(Beta)            :       11.999999393982 electrons
N(Total)           :       23.999998787963 electrons
E(X)               :      -14.992523231087 Eh       
E(C)               :       -0.795470079088 Eh       
E(XC)              :      -15.787993310175 Eh       
DFET-embed. en.    :        0.000000000000 Eh       

---------------
SCF CONVERGENCE
---------------

  Last Energy change         ...   -2.6176e-11  Tolerance :   1.0000e-08
  Last MAX-Density change    ...    6.6613e-16  Tolerance :   1.0000e-07
  Last RMS-Density change    ...    2.1943e-17  Tolerance :   5.0000e-09
  Last Orbital Gradient      ...    7.7933e-08  Tolerance :   1.0000e-05
  Last Orbital Rotation      ...    1.3153e-07  Tolerance :   1.0000e-05

             **** THE GBW FILE WAS UPDATED (ox_es1_A_orca0031.gbw) ****
             **** DENSITY ox_es1_A_orca0031.scfp WAS UPDATED ****
             **** ENERGY FILE WAS UPDATED (ox_es1_A_orca0031.en.tmp) ****
             **** THE GBW FILE WAS UPDATED (ox_es1_A_orca0031.gbw) ****
             **** DENSITY ox_es1_A_orca0031.scfp WAS UPDATED ****
----------------
ORBITAL ENERGIES
----------------

  NO   OCC          E(Eh)            E(eV) 
   0   2.0000     -19.224738      -523.1317 
   1   2.0000     -10.281295      -279.7683 
   2   2.0000     -10.269244      -279.4403 
   3   2.0000      -1.161053       -31.5939 
   4   2.0000      -0.710030       -19.3209 
   5   2.0000      -0.648393       -17.6437 
   6   2.0000      -0.544393       -14.8137 
   7   2.0000      -0.521127       -14.1806 
   8   2.0000      -0.418852       -11.3976 
   9   2.0000      -0.365936        -9.9576 
  10   2.0000      -0.357374        -9.7246 
  11   2.0000      -0.287982        -7.8364 
  12   0.0000       0.057578         1.5668 
  13   0.0000       0.072334         1.9683 
  14   0.0000       0.087930         2.3927 
  15   0.0000       0.090646         2.4666 
  16   0.0000       0.126778         3.4498 
  17   0.0000       0.152753         4.1566 
  18   0.0000       0.185721         5.0537 
  19   0.0000       0.229200         6.2369 
  20   0.0000       0.271507         7.3881 
  21   0.0000       0.275355         7.4928 
  22   0.0000       0.288073         7.8389 
  23   0.0000       0.357789         9.7359 
  24   0.0000       0.374411        10.1883 
  25   0.0000       0.403428        10.9778 
  26   0.0000       0.416826        11.3424 
  27   0.0000       0.426228        11.5982 
  28   0.0000       0.445588        12.1251 
  29   0.0000       0.471724        12.8363 
  30   0.0000       0.504586        13.7305 
  31   0.0000       0.519966        14.1490 
  32   0.0000       0.553603        15.0643 
  33   0.0000       0.702252        19.1093 
  34   0.0000       0.722293        19.6546 
  35   0.0000       0.735201        20.0058 
  36   0.0000       0.825195        22.4547 
  37   0.0000       0.858304        23.3556 
  38   0.0000       0.861078        23.4311 
  39   0.0000       0.968509        26.3545 
  40   0.0000       1.041347        28.3365 
  41   0.0000       1.064004        28.9530 
  42   0.0000       1.098508        29.8919 
  43   0.0000       1.118241        30.4289 
  44   0.0000       1.220361        33.2077 
  45   0.0000       1.368843        37.2481 
  46   0.0000       1.463983        39.8370 
  47   0.0000       1.512886        41.1677 
  48   0.0000       1.520793        41.3829 
  49   0.0000       1.527094        41.5543 
  50   0.0000       1.572451        42.7886 
  51   0.0000       1.610494        43.8238 
  52   0.0000       1.639702        44.6186 
  53   0.0000       1.676222        45.6123 
  54   0.0000       1.731927        47.1281 
  55   0.0000       1.768128        48.1132 
  56   0.0000       1.799723        48.9729 
  57   0.0000       1.926613        52.4258 
  58   0.0000       1.947614        52.9973 
  59   0.0000       2.020790        54.9885 
  60   0.0000       2.071473        56.3676 
  61   0.0000       2.169875        59.0453 
  62   0.0000       2.202802        59.9413 
  63   0.0000       2.281230        62.0754 
  64   0.0000       2.308828        62.8264 
  65   0.0000       2.358767        64.1853 
  66   0.0000       2.405579        65.4591 
  67   0.0000       2.460569        66.9555 
  68   0.0000       2.544102        69.2285 
  69   0.0000       2.581413        70.2438 
  70   0.0000       2.688331        73.1532 
  71   0.0000       2.704291        73.5875 
  72   0.0000       2.707704        73.6804 
  73   0.0000       2.717018        73.9338 
  74   0.0000       2.775200        75.5170 
  75   0.0000       2.809117        76.4400 
  76   0.0000       2.890604        78.6573 
  77   0.0000       2.961104        80.5757 
  78   0.0000       3.007419        81.8360 
  79   0.0000       3.053478        83.0894 
  80   0.0000       3.057134        83.1888 
  81   0.0000       3.078623        83.7736 
  82   0.0000       3.106589        84.5346 
  83   0.0000       3.255532        88.5875 
  84   0.0000       3.341249        90.9200 
  85   0.0000       3.411759        92.8387 
  86   0.0000       3.423987        93.1714 
  87   0.0000       3.444140        93.7198 
  88   0.0000       3.556694        96.7826 
  89   0.0000       3.647723        99.2596 
  90   0.0000       3.675888       100.0260 
  91   0.0000       3.740955       101.7966 
  92   0.0000       3.936209       107.1097 
  93   0.0000       4.121903       112.1627 
  94   0.0000       4.131945       112.4359 
  95   0.0000       4.226935       115.0208 
  96   0.0000       4.300267       117.0162 
  97   0.0000       4.340880       118.1213 
  98   0.0000       4.470125       121.6383 
  99   0.0000       4.570463       124.3686 
 100   0.0000       4.800626       130.6317 
 101   0.0000       4.851101       132.0052 
 102   0.0000       5.321790       144.8133 
 103   0.0000       5.486260       149.2887 
 104   0.0000       5.789236       157.5331 
 105   0.0000       5.813888       158.2039 
 106   0.0000       5.857269       159.3844 
 107   0.0000       6.005631       163.4215 
 108   0.0000       6.151213       167.3830 
 109   0.0000       6.594408       179.4430 
 110   0.0000       6.661171       181.2597 
 111   0.0000       6.837871       186.0679 
 112   0.0000       6.984129       190.0478 
 113   0.0000       7.163866       194.9387 
 114   0.0000      22.253387       605.5454 
 115   0.0000      22.750119       619.0622 
 116   0.0000      43.898771      1194.5463 

                    ********************************
                    * MULLIKEN POPULATION ANALYSIS *
                    ********************************

-----------------------
MULLIKEN ATOMIC CHARGES
-----------------------
   0 O :   -0.309634
   1 C :   -0.060994
   2 C :   -0.058360
   3 H :    0.106919
   4 H :    0.105010
   5 H :    0.099961
   6 H :    0.117098
Sum of atomic charges:   -0.0000000

--------------------------------
MULLIKEN REDUCED ORBITAL CHARGES
--------------------------------
  0 O s       :     3.850357  s :     3.850357
      pz      :     1.803269  p :     4.407372
      px      :     1.340976
      py      :     1.263127
      dz2     :     0.006177  d :     0.049178
      dxz     :     0.003237
      dyz     :     0.008740
      dx2y2   :     0.014248
      dxy     :     0.016775
      f0      :     0.000338  f :     0.002727
      f+1     :     0.000204
      f-1     :     0.000527
      f+2     :     0.000151
      f-2     :     0.000252
      f+3     :     0.000466
      f-3     :     0.000789
  1 C s       :     3.190760  s :     3.190760
      pz      :     1.044596  p :     2.724167
      px      :     0.923215
      py      :     0.756356
      dz2     :     0.003641  d :     0.132464
      dxz     :     0.032938
      dyz     :     0.034582
      dx2y2   :     0.036388
      dxy     :     0.024915
      f0      :     0.001699  f :     0.013603
      f+1     :     0.001151
      f-1     :     0.000786
      f+2     :     0.002187
      f-2     :     0.001885
      f+3     :     0.002070
      f-3     :     0.003825
  2 C s       :     3.181427  s :     3.181427
      pz      :     1.039152  p :     2.730659
      px      :     0.933912
      py      :     0.757595
      dz2     :     0.006507  d :     0.132865
      dxz     :     0.030984
      dyz     :     0.033990
      dx2y2   :     0.037393
      dxy     :     0.023992
      f0      :     0.002023  f :     0.013409
      f+1     :     0.001258
      f-1     :     0.000649
      f+2     :     0.001787
      f-2     :     0.001895
      f+3     :     0.001993
      f-3     :     0.003803
  3 H s       :     0.875257  s :     0.875257
      pz      :     0.008506  p :     0.017823
      px      :     0.006577
      py      :     0.002741
  4 H s       :     0.877130  s :     0.877130
      pz      :     0.008529  p :     0.017860
      px      :     0.006466
      py      :     0.002865
  5 H s       :     0.882194  s :     0.882194
      pz      :     0.010373  p :     0.017845
      px      :     0.004537
      py      :     0.002936
  6 H s       :     0.860095  s :     0.860095
      pz      :     0.010530  p :     0.022807
      px      :     0.007917
      py      :     0.004360


                     *******************************
                     * LOEWDIN POPULATION ANALYSIS *
                     *******************************

----------------------
LOEWDIN ATOMIC CHARGES
----------------------
   0 O :    0.211500
   1 C :   -0.375395
   2 C :   -0.348827
   3 H :    0.131030
   4 H :    0.131215
   5 H :    0.141299
   6 H :    0.109176

-------------------------------
LOEWDIN REDUCED ORBITAL CHARGES
-------------------------------
  0 O s       :     3.326842  s :     3.326842
      pz      :     1.667938  p :     4.344360
      px      :     1.305013
      py      :     1.371410
      dz2     :     0.012540  d :     0.108450
      dxz     :     0.009425
      dyz     :     0.020323
      dx2y2   :     0.039977
      dxy     :     0.026185
      f0      :     0.000915  f :     0.008847
      f+1     :     0.000264
      f-1     :     0.001149
      f+2     :     0.000300
      f-2     :     0.001131
      f+3     :     0.001379
      f-3     :     0.003709
  1 C s       :     2.800879  s :     2.800879
      pz      :     1.013969  p :     2.900237
      px      :     1.066075
      py      :     0.820193
      dz2     :     0.046619  d :     0.579286
      dxz     :     0.179583
      dyz     :     0.100952
      dx2y2   :     0.127741
      dxy     :     0.124392
      f0      :     0.011304  f :     0.094992
      f+1     :     0.006484
      f-1     :     0.006751
      f+2     :     0.013796
      f-2     :     0.008024
      f+3     :     0.017265
      f-3     :     0.031369
  2 C s       :     2.786940  s :     2.786940
      pz      :     1.013071  p :     2.897269
      px      :     1.070949
      py      :     0.813249
      dz2     :     0.057521  d :     0.566731
      dxz     :     0.168963
      dyz     :     0.092845
      dx2y2   :     0.127656
      dxy     :     0.119746
      f0      :     0.014144  f :     0.097887
      f+1     :     0.007284
      f-1     :     0.006775
      f+2     :     0.012209
      f-2     :     0.008407
      f+3     :     0.017279
      f-3     :     0.031790
  3 H s       :     0.820980  s :     0.820980
      pz      :     0.024972  p :     0.047990
      px      :     0.015423
      py      :     0.007595
  4 H s       :     0.821039  s :     0.821039
      pz      :     0.024845  p :     0.047746
      px      :     0.015027
      py      :     0.007873
  5 H s       :     0.812988  s :     0.812988
      pz      :     0.027356  p :     0.045712
      px      :     0.010750
      py      :     0.007606
  6 H s       :     0.821826  s :     0.821826
      pz      :     0.033462  p :     0.068998
      px      :     0.021870
      py      :     0.013666


                      *****************************
                      * MAYER POPULATION ANALYSIS *
                      *****************************

  NA   - Mulliken gross atomic population
  ZA   - Total nuclear charge
  QA   - Mulliken gross atomic charge
  VA   - Mayer's total valence
  BVA  - Mayer's bonded valence
  FA   - Mayer's free valence

  ATOM       NA         ZA         QA         VA         BVA        FA
  0 O      8.3096     8.0000    -0.3096     2.0177     2.0177     0.0000
  1 C      6.0610     6.0000    -0.0610     4.0060     4.0060    -0.0000
  2 C      6.0584     6.0000    -0.0584     4.0316     4.0316    -0.0000
  3 H      0.8931     1.0000     0.1069     0.9568     0.9568     0.0000
  4 H      0.8950     1.0000     0.1050     0.9576     0.9576     0.0000
  5 H      0.9000     1.0000     0.1000     0.9653     0.9653    -0.0000
  6 H      0.8829     1.0000     0.1171     0.9570     0.9570    -0.0000

  Mayer bond orders larger than 0.100000
B(  0-O ,  1-C ) :   0.9921 B(  0-O ,  2-C ) :   0.9849 B(  1-C ,  2-C ) :   1.1233 
B(  1-C ,  3-H ) :   0.9355 B(  1-C ,  4-H ) :   0.9340 B(  2-C ,  5-H ) :   0.9421 
B(  2-C ,  6-H ) :   0.9523 

-------
TIMINGS
-------

Total SCF time: 0 days 0 hours 0 min 1 sec 

Total time                  ....       1.036 sec
Sum of individual times     ....       0.919 sec  ( 88.7%)

Fock matrix formation       ....       0.705 sec  ( 68.1%)
  Split-RI-J                ....       0.115 sec  ( 16.3% of F)
  Chain of spheres X        ....       0.526 sec  ( 74.6% of F)
  XC integration            ....       0.063 sec  (  8.9% of F)
    Basis function eval.    ....       0.018 sec  ( 28.3% of XC)
    Density eval.           ....       0.014 sec  ( 22.1% of XC)
    XC-Functional eval.     ....       0.004 sec  (  6.1% of XC)
    XC-Potential eval.      ....       0.020 sec  ( 32.2% of XC)
Diagonalization             ....       0.002 sec  (  0.2%)
Density matrix formation    ....       0.000 sec  (  0.0%)
Population analysis         ....       0.002 sec  (  0.2%)
Initial guess               ....       0.012 sec  (  1.1%)
Orbital Transformation      ....       0.000 sec  (  0.0%)
Orbital Orthonormalization  ....       0.001 sec  (  0.1%)
DIIS solution               ....       0.001 sec  (  0.1%)
SOSCF solution              ....       0.002 sec  (  0.2%)
Grid generation             ....       0.194 sec  ( 18.7%)

Maximum memory used throughout the entire SCF-calculation: 61.1 MB


           ************************************************************
           *        Program running with 8 parallel MPI-processes     *
           *              working on a common directory               *
           ************************************************************
------------------------------------------------------------------------------
                        ORCA TD-DFT/TDA CALCULATION
------------------------------------------------------------------------------

Input orbitals are from        ... ox_es1_A_orca0031.gbw
CI-vector output               ... ox_es1_A_orca0031.cis
Tamm-Dancoff approximation     ... operative
CIS-Integral strategy          ... AO-integrals
Integral handling              ... AO integral Direct
Max. core memory used          ... 3000 MB
Reference state                ... RHF
Generation of triplets         ... off
Follow IRoot                   ... off
Number of operators            ... 1
Orbital ranges used for CIS calculation:
 Operator 0:  Orbitals   3... 11  to  12...116
XAS localization array:
 Operator 0:  Orbitals  -1... -1

-------------------
XC-INTEGRATION GRID
-------------------

General Integration Accuracy     IntAcc      ... 3.467
Radial Grid Type                 RadialGrid  ... OptM3 with GC (2021)
Angular Grid (max. ang.)         AngularGrid ... 1 (Lebedev-50)
Angular grid pruning method      GridPruning ... 4 (adaptive)
Weight generation scheme         WeightScheme... Becke
Basis function cutoff            BFCut       ... 1.0000e-11
Integration weight cutoff        WCut        ... 1.0000e-14
Angular grids for H and He will be reduced by one unit
Partially contracted basis set               ... off
Rotationally invariant grid construction     ... off

Total number of grid points                  ...     4536
Total number of batches                      ...       75
Average number of points per batch           ...       60
Average number of grid points per atom       ...      648

---------------------
COSX-INTEGRATION GRID
---------------------

General Integration Accuracy     IntAcc      ... 3.067
Radial Grid Type                 RadialGrid  ... OptM3 with GC (2021)
Angular Grid (max. ang.)         AngularGrid ... 1 (Lebedev-50)
Angular grid pruning method      GridPruning ... 4 (adaptive)
Weight generation scheme         WeightScheme... Becke
Basis function cutoff            BFCut       ... 1.0000e-11
Integration weight cutoff        WCut        ... 1.0000e-14
Angular grids for H and He will be reduced by one unit
Partially contracted basis set               ... on
Rotationally invariant grid construction     ... off

Total number of grid points                  ...     2085
Total number of batches                      ...       37
Average number of points per batch           ...       56
Average number of grid points per atom       ...      298

---------------
TD-DFT XC SETUP
---------------

DFT calculation                         ... on
Name of the grid file                   ... ox_es1_A_orca0031.grid_cis.tmp
Exchange functional (TD-DFT)            ... PBE
   PBE kappa parameter  XKappa (TD-DFT) ...  0.804000
   PBE mue parameter   XMuePBE (TD-DFT) ...  0.219520
Correlation functional (TD-DFT)         ... PBE
   PBE beta parameter CBetaPBE (TD-DFT) ...  0.066725
 LDA part of GGA corr.  LDAOpt (TD-DFT) ... PW91-LDA
Hybrid DFT                              ... on
   Exchange mixing (TD-DFT)             ...  0.250
   GGA exch. scaling (TD-DFT)           ...  0.750
   GGA corr. scaling (TD-DFT)           ...  1.000

Building densities             ... done
Calculating rho(r) on the grid ... done
Building xc-kernel on the grid ... done
                    *** TD-DFT CALCULATION INITIALIZED ***

------------------------
DAVIDSON-DIAGONALIZATION
------------------------

Dimension of the eigenvalue problem            ...    945
Number of roots to be determined               ...      1
Maximum size of the expansion space            ...     10
Maximum number of iterations                   ...    100
Convergence tolerance for the residual         ...    2.500e-07
Convergence tolerance for the energies         ...    2.500e-07
Orthogonality tolerance                        ...    1.000e-14
Level Shift                                    ...    0.000e+00
Constructing the preconditioner                ... o.k.
Building the initial guess                     ... o.k.
Number of trial vectors determined             ...     10


                       ****Iteration    0****

   Memory handling for direct AO based CIS:
   Memory per vector needed      ...     1 MB
   Memory needed                 ...     1 MB
   Memory available              ...  3000 MB
   Number of vectors per batch   ...  3000
   Number of batches             ...     1
   Time for densities:            0.000
   Time for RI-J (Direct):        0.016
   Time for K (COSX):             0.055
   Time for XC-Integration:       0.017
   Time for Sigma-Completion:     0.000
   Size of expansion space: 3
   Lowest Energy          :     0.299040164832
   Maximum Energy change  :     0.299040164832 (vector 0)
   Maximum residual norm  :     0.002354652579

                       ****Iteration    1****
   Time for densities:            0.000
   Time for RI-J (Direct):        0.013
   Time for K (COSX):             0.050
   Time for XC-Integration:       0.007
   Time for Sigma-Completion:     0.000
   Size of expansion space: 4
   Lowest Energy          :     0.295093454719
   Maximum Energy change  :     0.003946710113 (vector 0)
   Maximum residual norm  :     0.000363463083

                       ****Iteration    2****
   Time for densities:            0.000
   Time for RI-J (Direct):        0.013
   Time for K (COSX):             0.049
   Time for XC-Integration:       0.007
   Time for Sigma-Completion:     0.000
   Size of expansion space: 5
   Lowest Energy          :     0.294553216303
   Maximum Energy change  :     0.000540238416 (vector 0)
   Maximum residual norm  :     0.000120131699

                       ****Iteration    3****
   Time for densities:            0.000
   Time for RI-J (Direct):        0.013
   Time for K (COSX):             0.049
   Time for XC-Integration:       0.007
   Time for Sigma-Completion:     0.000
   Size of expansion space: 6
   Lowest Energy          :     0.294312259688
   Maximum Energy change  :     0.000240956615 (vector 0)
   Maximum residual norm  :     0.000052481289

                       ****Iteration    4****
   Time for densities:            0.000
   Time for RI-J (Direct):        0.013
   Time for K (COSX):             0.049
   Time for XC-Integration:       0.007
   Time for Sigma-Completion:     0.000
   Size of expansion space: 7
   Lowest Energy          :     0.294222473582
   Maximum Energy change  :     0.000089786106 (vector 0)
   Maximum residual norm  :     0.000006816861

                       ****Iteration    5****
   Time for densities:            0.000
   Time for RI-J (Direct):        0.013
   Time for K (COSX):             0.050
   Time for XC-Integration:       0.007
   Time for Sigma-Completion:     0.000
   Size of expansion space: 8
   Lowest Energy          :     0.294214069175
   Maximum Energy change  :     0.000008404407 (vector 0)
   Maximum residual norm  :     0.000000550239

                       ****Iteration    6****
   Time for densities:            0.000
   Time for RI-J (Direct):        0.013
   Time for K (COSX):             0.051
   Time for XC-Integration:       0.007
   Time for Sigma-Completion:     0.000
   Size of expansion space: 9
   Lowest Energy          :     0.294213266534
   Maximum Energy change  :     0.000000802641 (vector 0)
   Maximum residual norm  :     0.000000088295

      *** CONVERGENCE OF RESIDUAL NORM REACHED ***

Storing the converged CI vectors               ... ox_es1_A_orca0031.cis1

                 *** DAVIDSON DONE ***

Total time for solving the CIS problem:     0.513sec

------------------------------------
TD-DFT/TDA EXCITED STATES (SINGLETS)
------------------------------------

the weight of the individual excitations are printed if larger than 1.0e-02

STATE  1:  E=   0.294213 au      8.006 eV    64572.3 cm**-1 <S**2> =   0.000000
    11a ->  12a  :     0.883309 (c=  0.93984510)
    11a ->  13a  :     0.036672 (c= -0.19149868)
    11a ->  14a  :     0.027916 (c= -0.16708060)
    11a ->  15a  :     0.043985 (c=  0.20972710)


-----------------------------
TD-DFT/TDA-EXCITATION SPECTRA
-----------------------------

Center of mass = (  0.1037, -0.0493, -0.0514)
Calculating the Dipole integrals                  ... done
Transforming integrals                            ... done
Calculating the Linear Momentum integrals         ... done
Transforming integrals                            ... done
Calculating angular momentum integrals            ... done
Transforming integrals                            ... done

-----------------------------------------------------------------------------
         ABSORPTION SPECTRUM VIA TRANSITION ELECTRIC DIPOLE MOMENTS
-----------------------------------------------------------------------------
State   Energy    Wavelength  fosc         T2        TX        TY        TZ  
        (cm-1)      (nm)                 (au**2)    (au)      (au)      (au) 
-----------------------------------------------------------------------------
   1   64572.3    154.9   0.077558823   0.39542  -0.00212   0.14400   0.61211

-----------------------------------------------------------------------------
         ABSORPTION SPECTRUM VIA TRANSITION VELOCITY DIPOLE MOMENTS
-----------------------------------------------------------------------------
State   Energy    Wavelength   fosc        P2         PX        PY        PZ  
        (cm-1)      (nm)                 (au**2)     (au)      (au)      (au) 
-----------------------------------------------------------------------------
   1   64572.3    154.9   0.028853076   0.01273   0.00580  -0.02113  -0.11069

-------------------------------------------------------------------
                             CD SPECTRUM
-------------------------------------------------------------------
State  Energy     Wavelength     R         MX        MY        MZ   
       (cm-1)       (nm)     (1e40*cgs)   (au)      (au)      (au)  
-------------------------------------------------------------------
   1   64572.3    154.9      7.66000  -0.42427   0.04143   0.01533

-------------------------------------------------------------------
         CD SPECTRUM VIA TRANSITION VELOCITY DIPOLE MOMENTS        
-------------------------------------------------------------------
State  Energy     Wavelength     R         MX        MY        MZ   
       (cm-1)       (nm)     (1e40*cgs)   (au)      (au)      (au)  
-------------------------------------------------------------------
   1   64572.3    154.9     -8.06641  -0.42427   0.04143   0.01533

Total run time:        0.768 sec

           *** ORCA-CIS/TD-DFT FINISHED WITHOUT ERROR ***

Maximum memory used throughout the entire CIS-calculation: 49.4 MB

-----------------------
CIS/TD-DFT TOTAL ENERGY
-----------------------

    E(SCF)  =   -153.639458495 Eh
    DE(CIS) =      0.294213267 Eh (Root  1)
    ----------------------------- ---------
    E(tot)  =   -153.345245228 Eh



-------------------------------------------------------------------------------
                          DFT DISPERSION CORRECTION                            
                                                                               
                              DFTD3 V3.1  Rev 1                                
                          USING Becke-Johnson damping                          
-------------------------------------------------------------------------------
The PBE0 functional is recognized
Active option DFTDOPT                   ...         4   

molecular C6(AA) [au] = 351.413058 


            DFT-D V3
 parameters
 s6 scaling factor         :     1.0000 
 a1 scaling factor         :     0.4145 
 s8 scaling factor         :     1.2177 
 a2 scaling factor         :     4.8593 
 ad hoc parameters k1-k3   :    16.0000     1.3333    -4.0000 

 Edisp/kcal,au: -1.510886047360  -0.002407749920 
 E6   /kcal   :  -0.990774950 
 E8   /kcal   :  -0.520111098 
 % E8         :  34.424243885 

-------------------------   ----------------
Dispersion correction           -0.002407750
-------------------------   ----------------


-------------------------   --------------------
FINAL SINGLE POINT ENERGY      -153.347652978410
-------------------------   --------------------



           ************************************************************
           *        Program running with 8 parallel MPI-processes     *
           *              working on a common directory               *
           ************************************************************
------------------------------------------------------------------------------
                         ORCA SCF GRADIENT CALCULATION
------------------------------------------------------------------------------


------------------------
TD-DFT GRADIENT XC SETUP
------------------------

Building densities                     ... done
Calculating rho(r) on the grid         ... done
Building xc-kernel on the grid         ... done
Building xc 3rd derivative on the grid      ... done
                *** TD-DFT GRADIENT CALCULATION INITIALIZED ***

-------------------
TD-DFT/TDA GRADIENT
-------------------

Reference wavefunction             ... RHF
State of interest                  ... 1
Basis dimension                    ... 117
DFT-XC contribution needed         ... YES
RI-approximation                   ... ON
CIS-vectors being read from        ... ox_es1_A_orca0031.cis

 => Number of Vectors found: 1
 => Orbital Window: 3...11 -> 12...116

Reading the CIS file                     ... done
Norm of the CI vector                    ... 1.000000000
Making the CIS (pseudo)densities         ... done
Making operators G(D) and Q(T)           ... done
Transforming the Fock operators          ... done
Making the frozen-core relaxed density   ... done
Constructing the G(H) operator           ... done
Transforming the G(H) operator           ... done
Calculating the CIS Lagrangian           ... done
Solving the Z-vector equations           ... done
Finalizing the relaxed density           ... done
Storing the relaxed density              ... done
Constructing the G(Z) operator           ... done
Transforming the G(Z) operator           ... done
Making the W-matrix                      ... done
Finalizing the W-matrix                  ... done
Transforming the W-matrix                ... done
Nuclear repulsion gradient               ... done
One-Electron gradient                    ... done
Dispersion correction                    ... done
Prescreening matrices                    ... done
COSX-gradient                            ... done
Coulomb gradient (RI)                    ... done
Exchange-Correlation gradient            ... done

                 ---------------------------
                 EXCITED STATE GRADIENT DONE
                 ---------------------------

------------------
CARTESIAN GRADIENT
------------------

   1   O   :    0.021516338   -0.068612494    0.009739112
   2   C   :    0.159100853    0.061461902   -0.025218861
   3   C   :   -0.113505899    0.056211059    0.048612073
   4   H   :   -0.029980725   -0.020927239    0.018381681
   5   H   :   -0.021795072   -0.019175355   -0.000242055
   6   H   :    0.010128448   -0.011308399   -0.005676019
   7   H   :   -0.025460588    0.002292485   -0.045513886

Difference to translation invariance:
           :    0.0000033552   -0.0000580412    0.0000820454

Difference to rotation invariance:
           :    0.0001707684    0.0003607506    0.0000595547

Norm of the cartesian gradient     ...    0.2427007871
RMS gradient                       ...    0.0529616537
MAX gradient                       ...    0.1591008534

------------------------------------------------------------------------------
                  RELAXED CIS/TDA DENSITY POPULATION ANALYSIS
                                   IROOT 1
------------------------------------------------------------------------------
------------------------------------------------------------------------------
                           ORCA POPULATION ANALYSIS
------------------------------------------------------------------------------
Input electron density              ... ox_es1_A_orca0031.cisp
BaseName (.gbw .S,...)              ... ox_es1_A_orca0031

                    ********************************
                    * MULLIKEN POPULATION ANALYSIS *
                    ********************************

-----------------------
MULLIKEN ATOMIC CHARGES
-----------------------
   0 O :    0.106006
   1 C :    0.159018
   2 C :    0.210963
   3 H :    0.002362
   4 H :   -0.234502
   5 H :   -0.280443
   6 H :    0.036595
Sum of atomic charges:   -0.0000000

--------------------------------
MULLIKEN REDUCED ORBITAL CHARGES
--------------------------------
  0 O s       :     3.805189  s :     3.805189
      pz      :     1.190133  p :     4.033599
      px      :     1.481866
      py      :     1.361600
      dz2     :     0.007588  d :     0.052708
      dxz     :     0.004089
      dyz     :     0.010018
      dx2y2   :     0.015270
      dxy     :     0.015743
      f0      :     0.000236  f :     0.002498
      f+1     :     0.000072
      f-1     :     0.000369
      f+2     :     0.000169
      f-2     :     0.000293
      f+3     :     0.000456
      f-3     :     0.000903
  1 C s       :     3.004092  s :     3.004092
      pz      :     1.071459  p :     2.713115
      px      :     0.928916
      py      :     0.712741
      dz2     :     0.008710  d :     0.111526
      dxz     :     0.033306
      dyz     :     0.011808
      dx2y2   :     0.034894
      dxy     :     0.022807
      f0      :     0.001377  f :     0.012249
      f+1     :     0.001153
      f-1     :     0.000836
      f+2     :     0.001461
      f-2     :     0.001512
      f+3     :     0.002234
      f-3     :     0.003675
  2 C s       :     2.930244  s :     2.930244
      pz      :     1.073492  p :     2.733490
      px      :     0.966668
      py      :     0.693331
      dz2     :     0.020106  d :     0.113600
      dxz     :     0.026395
      dyz     :     0.010719
      dx2y2   :     0.035412
      dxy     :     0.020969
      f0      :     0.001491  f :     0.011702
      f+1     :     0.001248
      f-1     :     0.000732
      f+2     :     0.001189
      f-2     :     0.001247
      f+3     :     0.002159
      f-3     :     0.003636
  3 H s       :     0.976105  s :     0.976105
      pz      :     0.012335  p :     0.021533
      px      :     0.006850
      py      :     0.002348
  4 H s       :     1.208148  s :     1.208148
      pz      :     0.016420  p :     0.026354
      px      :     0.007636
      py      :     0.002297
  5 H s       :     1.253563  s :     1.253563
      pz      :     0.019952  p :     0.026881
      px      :     0.004870
      py      :     0.002059
  6 H s       :     0.936889  s :     0.936889
      pz      :     0.014917  p :     0.026516
      px      :     0.008133
      py      :     0.003467


                     *******************************
                     * LOEWDIN POPULATION ANALYSIS *
                     *******************************

----------------------
LOEWDIN ATOMIC CHARGES
----------------------
   0 O :    0.540912
   1 C :   -0.364842
   2 C :   -0.370351
   3 H :    0.115485
   4 H :    0.008951
   5 H :   -0.015710
   6 H :    0.085555

-------------------------------
LOEWDIN REDUCED ORBITAL CHARGES
-------------------------------
  0 O s       :     3.363840  s :     3.363840
      pz      :     1.110554  p :     3.971886
      px      :     1.410652
      py      :     1.450681
      dz2     :     0.013201  d :     0.114501
      dxz     :     0.011323
      dyz     :     0.022134
      dx2y2   :     0.044459
      dxy     :     0.023384
      f0      :     0.000978  f :     0.008860
      f+1     :     0.000140
      f-1     :     0.000916
      f+2     :     0.000345
      f-2     :     0.001288
      f+3     :     0.001116
      f-3     :     0.004076
  1 C s       :     2.848262  s :     2.848262
      pz      :     1.000148  p :     2.874230
      px      :     1.106461
      py      :     0.767621
      dz2     :     0.096623  d :     0.551184
      dxz     :     0.163974
      dyz     :     0.042093
      dx2y2   :     0.131429
      dxy     :     0.117064
      f0      :     0.009316  f :     0.091166
      f+1     :     0.006564
      f-1     :     0.007440
      f+2     :     0.009860
      f-2     :     0.006552
      f+3     :     0.019762
      f-3     :     0.031672
  2 C s       :     2.823207  s :     2.823207
      pz      :     1.032632  p :     2.891796
      px      :     1.104416
      py      :     0.754748
      dz2     :     0.124947  d :     0.562218
      dxz     :     0.153366
      dyz     :     0.040315
      dx2y2   :     0.130040
      dxy     :     0.113550
      f0      :     0.011481  f :     0.093129
      f+1     :     0.007327
      f-1     :     0.007616
      f+2     :     0.008533
      f-2     :     0.005946
      f+3     :     0.019919
      f-3     :     0.032307
  3 H s       :     0.821309  s :     0.821309
      pz      :     0.040190  p :     0.063206
      px      :     0.016469
      py      :     0.006547
  4 H s       :     0.912734  s :     0.912734
      pz      :     0.051421  p :     0.078315
      px      :     0.020387
      py      :     0.006507
  5 H s       :     0.936336  s :     0.936336
      pz      :     0.061332  p :     0.079374
      px      :     0.012592
      py      :     0.005450
  6 H s       :     0.831652  s :     0.831652
      pz      :     0.048499  p :     0.082793
      px      :     0.022899
      py      :     0.011395


                      *****************************
                      * MAYER POPULATION ANALYSIS *
                      *****************************

  NA   - Mulliken gross atomic population
  ZA   - Total nuclear charge
  QA   - Mulliken gross atomic charge
  VA   - Mayer's total valence
  BVA  - Mayer's bonded valence
  FA   - Mayer's free valence

  ATOM       NA         ZA         QA         VA         BVA        FA
  0 O      7.8940     8.0000     0.1060     2.2846     1.6611     0.6236
  1 C      5.8410     6.0000     0.1590     3.1105     3.1650    -0.0545
  2 C      5.7890     6.0000     0.2110     2.9361     3.0787    -0.1426
  3 H      0.9976     1.0000     0.0024     1.2384     0.9945     0.2439
  4 H      1.2345     1.0000    -0.2345     1.4096     0.9046     0.5050
  5 H      1.2804     1.0000    -0.2804     1.3748     0.8527     0.5221
  6 H      0.9634     1.0000     0.0366     1.1805     1.0293     0.1512

  Mayer bond orders larger than 0.100000
B(  0-O ,  1-C ) :   0.8993 B(  0-O ,  2-C ) :   0.8301 B(  1-C ,  2-C ) :   1.0843 
B(  1-C ,  3-H ) :   0.7279 B(  1-C ,  4-H ) :   0.5237 B(  2-C ,  5-H ) :   0.4356 
B(  2-C ,  6-H ) :   0.8380 B(  3-H ,  4-H ) :   0.1274 B(  3-H ,  5-H ) :   0.1563 
B(  4-H ,  5-H ) :   0.2404 


-------
TIMINGS
-------

Total TD-DFT gradient time         ...        5.315 sec

Fock matrix formation       ....       0.861 sec  ( 16.2%)
  Coulomb formation         ....       0.694 sec  ( 80.6% of F)
  RI-J                      ....       0.293 sec  ( 34.1% of F)
  Chain of spheres X        ....       0.400 sec  ( 46.4% of F)
  XC integration            ....       0.167 sec  ( 19.4% of F)
Z-vector equation           ....       1.413 sec  ( 26.6%)
One electron gradient       ....       0.033 sec  (  0.6%)
Prescreening matrices       ....       0.159 sec  (  3.0%)
RI-J Coulomb gradient       ....       0.269 sec  (  5.1%)
COSX gradient               ....       0.378 sec  (  7.1%)
XC gradient                 ....       1.844 sec  ( 34.7%)

Maximum memory used throughout the entire SCFGRAD-calculation: 130.3 MB

                            ***************************************
                            *     ORCA property calculations      *
                            ***************************************

                                    ---------------------
                                    Active property flags
                                    ---------------------
   (+) Dipole Moment


------------------------------------------------------------------------------
                       ORCA ELECTRIC PROPERTIES CALCULATION
------------------------------------------------------------------------------

Dipole Moment Calculation                       ... on
Quadrupole Moment Calculation                   ... off
Polarizability Calculation                      ... off
GBWName                                         ... ox_es1_A_orca0031.gbw
Electron density                                ... ox_es1_A_orca0031.scfp
The origin for moment calculation is the CENTER OF MASS  = ( 0.103724, -0.049255 -0.051385)

-------------
DIPOLE MOMENT
-------------
                                X             Y             Z
Electronic contribution:      0.24508       1.67902       0.17724
Nuclear contribution   :     -0.21912      -2.32857      -0.11653
                        -----------------------------------------
Total Dipole Moment    :      0.02596      -0.64955       0.06071
                        -----------------------------------------
Magnitude (a.u.)       :      0.65290
Magnitude (Debye)      :      1.65954



--------------------
Rotational spectrum 
--------------------
 
Rotational constants in cm-1:     0.894928     0.808171     0.514632 
Rotational constants in MHz : 26829.269011 24228.352885 15428.293268 

 Dipole components along the rotational axes: 
x,y,z [a.u.] :    -0.108495    -0.642980     0.032948 
x,y,z [Debye]:    -0.275771    -1.634325     0.083747 

 

                        *** CIS RELAXED DENSITY ***

------------------------------------------------------------------------------
                       ORCA ELECTRIC PROPERTIES CALCULATION
------------------------------------------------------------------------------

Dipole Moment Calculation                       ... on
Quadrupole Moment Calculation                   ... off
Polarizability Calculation                      ... off
GBWName                                         ... ox_es1_A_orca0031.gbw
Electron density                                ... ox_es1_A_orca0031.cisp
The origin for moment calculation is the CENTER OF MASS  = ( 0.103724, -0.049255 -0.051385)

-------------
DIPOLE MOMENT
-------------
                                X             Y             Z
Electronic contribution:      0.21059       2.28308       1.07033
Nuclear contribution   :     -0.21912      -2.32857      -0.11653
                        -----------------------------------------
Total Dipole Moment    :     -0.00853      -0.04549       0.95380
                        -----------------------------------------
Magnitude (a.u.)       :      0.95492
Magnitude (Debye)      :      2.42721



--------------------
Rotational spectrum 
--------------------
 
Rotational constants in cm-1:     0.894928     0.808171     0.514632 
Rotational constants in MHz : 26829.269011 24228.352885 15428.293268 

 Dipole components along the rotational axes: 
x,y,z [a.u.] :    -0.045202    -0.079331     0.950543 
x,y,z [Debye]:    -0.114893    -0.201644     2.416088 

 

Timings for individual modules:

Sum of individual times         ...        8.062 sec (=   0.134 min)
GTO integral calculation        ...        0.315 sec (=   0.005 min)   3.9 %
SCF iterations                  ...        1.229 sec (=   0.020 min)  15.2 %
CIS module                      ...        1.002 sec (=   0.017 min)  12.4 %
SCF Gradient evaluation         ...        5.515 sec (=   0.092 min)  68.4 %
                             ****ORCA TERMINATED NORMALLY****
TOTAL RUN TIME: 0 days 0 hours 0 minutes 8 seconds 466 msec
