
                                 *****************
                                 * O   R   C   A *
                                 *****************

                                            #,                                       
                                            ###                                      
                                            ####                                     
                                            #####                                    
                                            ######                                   
                                           ########,                                 
                                     ,,################,,,,,                         
                               ,,#################################,,                 
                          ,,##########################################,,             
                       ,#########################################, ''#####,          
                    ,#############################################,,   '####,        
                  ,##################################################,,,,####,       
                ,###########''''           ''''###############################       
              ,#####''   ,,,,##########,,,,          '''####'''          '####       
            ,##' ,,,,###########################,,,                        '##       
           ' ,,###''''                  '''############,,,                           
         ,,##''                                '''############,,,,        ,,,,,,###''
      ,#''                                            '''#######################'''  
     '                                                          ''''####''''         
             ,#######,   #######,   ,#######,      ##                                
            ,#'     '#,  ##    ##  ,#'     '#,    #''#        ######   ,####,        
            ##       ##  ##   ,#'  ##            #'  '#       #        #'  '#        
            ##       ##  #######   ##           ,######,      #####,   #    #        
            '#,     ,#'  ##    ##  '#,     ,#' ,#      #,         ##   #,  ,#        
             '#######'   ##     ##  '#######'  #'      '#     #####' # '####'        



                  #######################################################
                  #                        -***-                        #
                  #          Department of theory and spectroscopy      #
                  #    Directorship and core code : Frank Neese         #
                  #        Max Planck Institute fuer Kohlenforschung    #
                  #                Kaiser Wilhelm Platz 1               #
                  #                 D-45470 Muelheim/Ruhr               #
                  #                      Germany                        #
                  #                                                     #
                  #                  All rights reserved                #
                  #                        -***-                        #
                  #######################################################


                         Program Version 5.0.2 -  RELEASE  -


 With contributions from (in alphabetic order):
   Daniel Aravena         : Magnetic Suceptibility
   Michael Atanasov       : Ab Initio Ligand Field Theory (pilot matlab implementation)
   Alexander A. Auer      : GIAO ZORA, VPT2 properties, NMR spectrum
   Ute Becker             : Parallelization
   Giovanni Bistoni       : ED, misc. LED, open-shell LED, HFLD
   Martin Brehm           : Molecular dynamics
   Dmytro Bykov           : SCF Hessian
   Vijay G. Chilkuri      : MRCI spin determinant printing, contributions to CSF-ICE
   Dipayan Datta          : RHF DLPNO-CCSD density
   Achintya Kumar Dutta   : EOM-CC, STEOM-CC
   Dmitry Ganyushin       : Spin-Orbit,Spin-Spin,Magnetic field MRCI
   Miquel Garcia          : C-PCM and meta-GGA Hessian, CC/C-PCM, Gaussian charge scheme
   Yang Guo               : DLPNO-NEVPT2, F12-NEVPT2, CIM, IAO-localization
   Andreas Hansen         : Spin unrestricted coupled pair/coupled cluster methods
   Benjamin Helmich-Paris : MC-RPA, TRAH-SCF, COSX integrals
   Lee Huntington         : MR-EOM, pCC
   Robert Izsak           : Overlap fitted RIJCOSX, COSX-SCS-MP3, EOM
   Marcus Kettner         : VPT2
   Christian Kollmar      : KDIIS, OOCD, Brueckner-CCSD(T), CCSD density, CASPT2, CASPT2-K
   Simone Kossmann        : Meta GGA functionals, TD-DFT gradient, OOMP2, MP2 Hessian
   Martin Krupicka        : Initial AUTO-CI
   Lucas Lang             : DCDCAS
   Marvin Lechner         : AUTO-CI (C++ implementation), FIC-MRCC
   Dagmar Lenk            : GEPOL surface, SMD
   Dimitrios Liakos       : Extrapolation schemes; Compound Job, initial MDCI parallelization
   Dimitrios Manganas     : Further ROCIS development; embedding schemes
   Dimitrios Pantazis     : SARC Basis sets
   Anastasios Papadopoulos: AUTO-CI, single reference methods and gradients
   Taras Petrenko         : DFT Hessian,TD-DFT gradient, ASA, ECA, R-Raman, ABS, FL, XAS/XES, NRVS
   Peter Pinski           : DLPNO-MP2, DLPNO-MP2 Gradient
   Christoph Reimann      : Effective Core Potentials
   Marius Retegan         : Local ZFS, SOC
   Christoph Riplinger    : Optimizer, TS searches, QM/MM, DLPNO-CCSD(T), (RO)-DLPNO pert. Triples
   Tobias Risthaus        : Range-separated hybrids, TD-DFT gradient, RPA, STAB
   Michael Roemelt        : Original ROCIS implementation
   Masaaki Saitow         : Open-shell DLPNO-CCSD energy and density
   Barbara Sandhoefer     : DKH picture change effects
   Avijit Sen             : IP-ROCIS
   Kantharuban Sivalingam : CASSCF convergence, NEVPT2, FIC-MRCI
   Bernardo de Souza      : ESD, SOC TD-DFT
   Georgi Stoychev        : AutoAux, RI-MP2 NMR, DLPNO-MP2 response
   Willem Van den Heuvel  : Paramagnetic NMR
   Boris Wezisla          : Elementary symmetry handling
   Frank Wennmohs         : Technical directorship


 We gratefully acknowledge several colleagues who have allowed us to
 interface, adapt or use parts of their codes:
   Stefan Grimme, W. Hujo, H. Kruse, P. Pracht,  : VdW corrections, initial TS optimization,
                  C. Bannwarth, S. Ehlert          DFT functionals, gCP, sTDA/sTD-DF
   Ed Valeev, F. Pavosevic, A. Kumar             : LibInt (2-el integral package), F12 methods
   Garnet Chan, S. Sharma, J. Yang, R. Olivares  : DMRG
   Ulf Ekstrom                                   : XCFun DFT Library
   Mihaly Kallay                                 : mrcc  (arbitrary order and MRCC methods)
   Jiri Pittner, Ondrej Demel                    : Mk-CCSD
   Frank Weinhold                                : gennbo (NPA and NBO analysis)
   Christopher J. Cramer and Donald G. Truhlar   : smd solvation model
   Lars Goerigk                                  : TD-DFT with DH, B97 family of functionals
   V. Asgeirsson, H. Jonsson                     : NEB implementation
   FAccTs GmbH                                   : IRC, NEB, NEB-TS, DLPNO-Multilevel, CI-OPT
                                                   MM, QMMM, 2- and 3-layer-ONIOM, Crystal-QMMM,
                                                   LR-CPCM, SF, NACMEs, symmetry and pop. for TD-DFT,
                                                   nearIR, NL-DFT gradient (VV10), updates on ESD,
                                                   ML-optimized integration grids
   S Lehtola, MJT Oliveira, MAL Marques          : LibXC Library
   Liviu Ungur et al                             : ANISO software


 Your calculation uses the libint2 library for the computation of 2-el integrals
 For citations please refer to: http://libint.valeyev.net

 Your ORCA version has been built with support for libXC version: 5.1.0
 For citations please refer to: https://tddft.org/programs/libxc/

 This ORCA versions uses:
   CBLAS   interface :  Fast vector & matrix operations
   LAPACKE interface :  Fast linear algebra routines
   SCALAPACK package :  Parallel linear algebra routines
   Shared memory     :  Shared parallel matrices
   BLAS/LAPACK       :  OpenBLAS 0.3.15  USE64BITINT DYNAMIC_ARCH NO_AFFINITY SkylakeX SINGLE_THREADED
        Core in use  :  SkylakeX
   Copyright (c) 2011-2014, The OpenBLAS Project


Your calculation utilizes the atom-pairwise dispersion correction
with the Becke-Johnson damping scheme (D3BJ)
Cite in your paper:
S.Grimme, S.Ehrlich, L.Goerigk, J Comput Chem, (2011), 32, 1456–1465 
S.Grimme, J.Antony, S.Ehrlich and H.Krieg, J.Chem.Phys., 132, (2010), 154104 
   

================================================================================

----- Orbital basis set information -----
Your calculation utilizes the basis: def2-TZVP
   F. Weigend and R. Ahlrichs, Phys. Chem. Chem. Phys. 7, 3297 (2005).

----- AuxJ basis set information -----
Your calculation utilizes the auxiliary basis: def2/J
   F. Weigend, Phys. Chem. Chem. Phys. 8, 1057 (2006).

================================================================================
                                        WARNINGS
                       Please study these warnings very carefully!
================================================================================

INFO   : Checking CIS options ...

WARNING: CIS/ROCIS methods need fully converged wavefunctions
  ===> : Setting SCFConvForced true
         You can overwrite this default with %scf ConvForced false 


INFO   : the flag for use of the SHARK integral package has been found!

================================================================================
                                       INPUT FILE
================================================================================
NAME = ox_es1_G_orca0005.inp
|  1> ! engrad PBE0 D3BJ def2-TZVP  
|  2> %pal nprocs 8 end
|  3> %maxcore 3000
|  4> 
|  5> %tddft
|  6>   nroots 1
|  7>   tda true
|  8>   Iroot 1
|  9>   end 
| 10> *xyz 0 1 
| 11> O   -1.4911584237449411 0.8184344141699287 -0.02555341392420105
| 12> C   -0.7195048714647962 -0.4079624462374166 -0.003941161803605556
| 13> C   0.714908502173482 -0.5033134834371278 -0.030033509613540146
| 14> H   -1.2508724457871538 -0.6970964389528842 0.9268392624892083
| 15> H   -1.3062237491574344 -0.7027476765450035 -0.9388053153640997
| 16> H   1.3002565468029739 -0.6842774548779222 -0.9434854681006525
| 17> H   1.3021206003901733 -0.5944101792197387 0.9497804627166908
| 18> *
| 19> 
| 20>                          ****END OF INPUT****
================================================================================

                     *******************************
                     * Energy+Gradient Calculation *
                     *******************************

---------------------------------
CARTESIAN COORDINATES (ANGSTROEM)
---------------------------------
  O     -1.491158    0.818434   -0.025553
  C     -0.719505   -0.407962   -0.003941
  C      0.714909   -0.503313   -0.030034
  H     -1.250872   -0.697096    0.926839
  H     -1.306224   -0.702748   -0.938805
  H      1.300257   -0.684277   -0.943485
  H      1.302121   -0.594410    0.949780

----------------------------
CARTESIAN COORDINATES (A.U.)
----------------------------
  NO LB      ZA    FRAG     MASS         X           Y           Z
   0 O     8.0000    0    15.999   -2.817881    1.546617   -0.048289
   1 C     6.0000    0    12.011   -1.359667   -0.770937   -0.007448
   2 C     6.0000    0    12.011    1.350981   -0.951125   -0.056755
   3 H     1.0000    0     1.008   -2.363806   -1.317321    1.751472
   4 H     1.0000    0     1.008   -2.468405   -1.328001   -1.774085
   5 H     1.0000    0     1.008    2.457129   -1.293097   -1.782929
   6 H     1.0000    0     1.008    2.460651   -1.123272    1.794825

--------------------------------
INTERNAL COORDINATES (ANGSTROEM)
--------------------------------
 O      0   0   0     0.000000000000     0.00000000     0.00000000
 C      1   0   0     1.449125789366     0.00000000     0.00000000
 C      2   1   0     1.437815828742   125.95070322     0.00000000
 H      2   1   3     1.110091060693    88.74181942   124.85998701
 H      2   1   3     1.142413392368    86.14075302   236.91634776
 H      3   2   1     1.099897619224   123.84214666   262.88449026
 H      3   2   1     1.145928477981   120.06460317    94.81273586

---------------------------
INTERNAL COORDINATES (A.U.)
---------------------------
 O      0   0   0     0.000000000000     0.00000000     0.00000000
 C      1   0   0     2.738450875504     0.00000000     0.00000000
 C      2   1   0     2.717078147340   125.95070322     0.00000000
 H      2   1   3     2.097768088425    88.74181942   124.85998701
 H      2   1   3     2.158848443299    86.14075302   236.91634776
 H      3   2   1     2.078505275686   123.84214666   262.88449026
 H      3   2   1     2.165490992446   120.06460317    94.81273586

---------------------
BASIS SET INFORMATION
---------------------
There are 3 groups of distinct atoms

 Group   1 Type O   : 11s6p2d1f contracted to 5s3p2d1f pattern {62111/411/11/1}
 Group   2 Type C   : 11s6p2d1f contracted to 5s3p2d1f pattern {62111/411/11/1}
 Group   3 Type H   : 5s1p contracted to 3s1p pattern {311/1}

Atom   0O    basis set group =>   1
Atom   1C    basis set group =>   2
Atom   2C    basis set group =>   2
Atom   3H    basis set group =>   3
Atom   4H    basis set group =>   3
Atom   5H    basis set group =>   3
Atom   6H    basis set group =>   3
---------------------------------
AUXILIARY/J BASIS SET INFORMATION
---------------------------------
There are 3 groups of distinct atoms

 Group   1 Type O   : 12s5p4d2f1g contracted to 6s4p3d1f1g pattern {711111/2111/211/2/1}
 Group   2 Type C   : 12s5p4d2f1g contracted to 6s4p3d1f1g pattern {711111/2111/211/2/1}
 Group   3 Type H   : 5s2p1d contracted to 3s1p1d pattern {311/2/1}

Atom   0O    basis set group =>   1
Atom   1C    basis set group =>   2
Atom   2C    basis set group =>   2
Atom   3H    basis set group =>   3
Atom   4H    basis set group =>   3
Atom   5H    basis set group =>   3
Atom   6H    basis set group =>   3

Checking for AutoStart:
The File: ox_es1_G_orca0005.gbw exists
Trying to determine its content:
     ... Fine, the file contains calculation information
     ... Fine, the calculation information was read
     ... Fine, the file contains a basis set
     ... Fine, the basis set was read
     ... Fine, the file contains a geometry
     ... Fine, the geometry was read
     ... Fine, the file contains a set of orbitals
     ... Fine, the orbitals can be read
     => possible old guess file was deleted
     => GBW file was renamed to GES file
     => GES file is set as startup file
     => Guess is set to MORead
     ... now leaving AutoStart



           ************************************************************
           *        Program running with 8 parallel MPI-processes     *
           *              working on a common directory               *
           ************************************************************
------------------------------------------------------------------------------
                           ORCA GTO INTEGRAL CALCULATION
                           -- RI-GTO INTEGRALS CHOSEN --
------------------------------------------------------------------------------
------------------------------------------------------------------------------
                   ___                                                        
                  /   \      - P O W E R E D   B Y -                         
                 /     \                                                     
                 |  |  |   _    _      __       _____    __    __             
                 |  |  |  | |  | |    /  \     |  _  \  |  |  /  |          
                  \  \/   | |  | |   /    \    | | | |  |  | /  /          
                 / \  \   | |__| |  /  /\  \   | |_| |  |  |/  /          
                |  |  |   |  __  | /  /__\  \  |    /   |      \           
                |  |  |   | |  | | |   __   |  |    \   |  |\   \          
                \     /   | |  | | |  |  |  |  | |\  \  |  | \   \       
                 \___/    |_|  |_| |__|  |__|  |_| \__\ |__|  \__/        
                                                                              
                      - O R C A' S   B I G   F R I E N D -                    
                                      &                                       
                       - I N T E G R A L  F E E D E R -                       
                                                                              
 v1 FN, 2020, v2 2021                                                         
------------------------------------------------------------------------------


Reading SHARK input file ox_es1_G_orca0005.SHARKINP.tmp ... ok
----------------------
SHARK INTEGRAL PACKAGE
----------------------

Number of atoms                             ...      7
Number of basis functions                   ...    117
Number of shells                            ...     49
Maximum angular momentum                    ...      3
Integral batch strategy                     ... SHARK/LIBINT Hybrid
RI-J (if used) integral strategy            ... SPLIT-RIJ (Revised 2003 algorithm where possible)
Printlevel                                  ...      1
Contraction scheme used                     ... SEGMENTED contraction
Coulomb Range Separation                    ... NOT USED
Exchange Range Separation                   ... NOT USED
Finite Nucleus Model                        ... NOT USED
Auxiliary Coulomb fitting basis             ... AVAILABLE
   # of basis functions in Aux-J            ...    191
   # of shells in Aux-J                     ...     65
   Maximum angular momentum in Aux-J        ...      4
Auxiliary J/K fitting basis                 ... NOT available
Auxiliary Correlation fitting basis         ... NOT available
Auxiliary 'external' fitting basis          ... NOT available
Integral threshold                          ...     2.500000e-11
Primitive cut-off                           ...     2.500000e-12
Primitive pair pre-selection threshold      ...     2.500000e-12

Calculating pre-screening integrals         ... done (  0.0 sec) Dimension = 49
Organizing shell pair data                  ... done (  0.0 sec)
Shell pair information
Total number of shell pairs                 ...      1225
Shell pairs after pre-screening             ...      1208
Total number of primitive shell pairs       ...      3648
Primitive shell pairs kept                  ...      3043
          la=0 lb=0:    367 shell pairs
          la=1 lb=0:    348 shell pairs
          la=1 lb=1:     91 shell pairs
          la=2 lb=0:    159 shell pairs
          la=2 lb=1:     78 shell pairs
          la=2 lb=2:     21 shell pairs
          la=3 lb=0:     81 shell pairs
          la=3 lb=1:     39 shell pairs
          la=3 lb=2:     18 shell pairs
          la=3 lb=3:      6 shell pairs

Calculating one electron integrals          ... done (  0.0 sec)
Calculating RI/J V-Matrix + Cholesky decomp.... done (  0.0 sec)
Calculating Nuclear repulsion               ... done (  0.0 sec) ENN=     66.250438038451 Eh

SHARK setup successfully completed in   0.1 seconds

Maximum memory used throughout the entire GTOINT-calculation: 14.9 MB


           ************************************************************
           *        Program running with 8 parallel MPI-processes     *
           *              working on a common directory               *
           ************************************************************
-------------------------------------------------------------------------------
                                 ORCA SCF
-------------------------------------------------------------------------------

------------
SCF SETTINGS
------------
Hamiltonian:
 Density Functional     Method          .... DFT(GTOs)
 Exchange Functional    Exchange        .... PBE
   PBE kappa parameter   XKappa         ....  0.804000
   PBE mue parameter    XMuePBE         ....  0.219520
 Correlation Functional Correlation     .... PBE
   PBE beta parameter  CBetaPBE         ....  0.066725
 LDA part of GGA corr.  LDAOpt          .... PW91-LDA
 Gradients option       PostSCFGGA      .... off
 Hybrid DFT is turned on
   Fraction HF Exchange ScalHFX         ....  0.250000
   Scaling of DF-GGA-X  ScalDFX         ....  0.750000
   Scaling of DF-GGA-C  ScalDFC         ....  1.000000
   Scaling of DF-LDA-C  ScalLDAC        ....  1.000000
   Perturbative correction              ....  0.000000
   Density functional embedding theory  .... OFF
   NL short-range parameter             ....  6.900000
 RI-approximation to the Coulomb term is turned on
   Number of AuxJ basis functions       .... 191
   RIJ-COSX (HFX calculated with COS-X)).... on


General Settings:
 Integral files         IntName         .... ox_es1_G_orca0005
 Hartree-Fock type      HFTyp           .... RHF
 Total Charge           Charge          ....    0
 Multiplicity           Mult            ....    1
 Number of Electrons    NEL             ....   24
 Basis Dimension        Dim             ....  117
 Nuclear Repulsion      ENuc            ....     66.2504380385 Eh

Convergence Acceleration:
 DIIS                   CNVDIIS         .... on
   Start iteration      DIISMaxIt       ....    12
   Startup error        DIISStart       ....  0.200000
   # of expansion vecs  DIISMaxEq       ....     5
   Bias factor          DIISBfac        ....   1.050
   Max. coefficient     DIISMaxC        ....  10.000
 Trust-Rad. Augm. Hess. CNVTRAH         .... auto
   Auto Start mean grad. ratio tolernc. ....  1.125000
   Auto Start start iteration           ....     1
   Auto Start num. interpolation iter.  ....    10
   Max. Number of Micro iterations      ....    16
   Max. Number of Macro iterations      .... Maxiter - #DIIS iter
   Number of Davidson start vectors     ....     2
   Converg. threshold I  (grad. norm)   ....   1.000e-05
   Converg. threshold II (energy diff.) ....   1.000e-08
   Grad. Scal. Fac. for Micro threshold ....   0.100
   Minimum threshold for Micro iter.    ....   0.010
   NR start threshold (gradient norm)   ....   0.001
   Initial trust radius                 ....   0.400
   Minimum AH scaling param. (alpha)    ....   1.000
   Maximum AH scaling param. (alpha)    .... 1000.000
   Orbital update algorithm             .... Taylor
   White noise on init. David. guess    .... on
   Maximum white noise                  ....   0.010
   Quad. conv. algorithm                .... NR
 SOSCF                  CNVSOSCF        .... on
   Start iteration      SOSCFMaxIt      ....   150
   Startup grad/error   SOSCFStart      ....  0.003300
 Level Shifting         CNVShift        .... on
   Level shift para.    LevelShift      ....    0.2500
   Turn off err/grad.   ShiftErr        ....    0.0010
 Zerner damping         CNVZerner       .... off
 Static damping         CNVDamp         .... on
   Fraction old density DampFac         ....    0.7000
   Max. Damping (<1)    DampMax         ....    0.9800
   Min. Damping (>=0)   DampMin         ....    0.0000
   Turn off err/grad.   DampErr         ....    0.1000
 Fernandez-Rico         CNVRico         .... off

SCF Procedure:
 Maximum # iterations   MaxIter         ....   125
 SCF integral mode      SCFMode         .... Direct
   Integral package                     .... SHARK and LIBINT hybrid scheme
 Reset frequency        DirectResetFreq ....    20
 Integral Threshold     Thresh          ....  2.500e-11 Eh
 Primitive CutOff       TCut            ....  2.500e-12 Eh

Convergence Tolerance:
 Convergence Check Mode ConvCheckMode   .... Total+1el-Energy
 Convergence forced     ConvForced      .... 1
 Energy Change          TolE            ....  1.000e-08 Eh
 1-El. energy change                    ....  1.000e-05 Eh
 Orbital Gradient       TolG            ....  1.000e-05
 Orbital Rotation angle TolX            ....  1.000e-05
 DIIS Error             TolErr          ....  5.000e-07


Diagonalization of the overlap matrix:
Smallest eigenvalue                        ... 4.064e-04
Time for diagonalization                   ...    0.001 sec
Threshold for overlap eigenvalues          ... 1.000e-08
Number of eigenvalues below threshold      ... 0
Time for construction of square roots      ...    0.001 sec
Total time needed                          ...    0.003 sec

---------------------
INITIAL GUESS: MOREAD
---------------------
Guess MOs are being read from file: ox_es1_G_orca0005.ges
Input Geometry matches current geometry (good)
Input basis set matches current basis set (good)
MOs were renormalized
MOs were reorthogonalized (Cholesky)
                      ------------------
                      INITIAL GUESS DONE (   0.0 sec)
                      ------------------
-------------------
DFT GRID GENERATION
-------------------

General Integration Accuracy     IntAcc      ... 4.388
Radial Grid Type                 RadialGrid  ... OptM3 with GC (2021)
Angular Grid (max. ang.)         AngularGrid ... 4 (Lebedev-302)
Angular grid pruning method      GridPruning ... 4 (adaptive)
Weight generation scheme         WeightScheme... Becke
Basis function cutoff            BFCut       ... 1.0000e-11
Integration weight cutoff        WCut        ... 1.0000e-14
Angular grids for H and He will be reduced by one unit
Partially contracted basis set               ... off
Rotationally invariant grid construction     ... off

Total number of grid points                  ...    31357
Total number of batches                      ...      494
Average number of points per batch           ...       63
Average number of grid points per atom       ...     4480
Time for grid setup =    0.130 sec

--------------------
COSX GRID GENERATION
--------------------

GRIDX 1
-------
General Integration Accuracy     IntAcc      ... 3.816
Radial Grid Type                 RadialGrid  ... OptM3 with GC (2021)
Angular Grid (max. ang.)         AngularGrid ... 1 (Lebedev-50)
Angular grid pruning method      GridPruning ... 4 (adaptive)
Weight generation scheme         WeightScheme... Becke
Basis function cutoff            BFCut       ... 1.0000e-11
Integration weight cutoff        WCut        ... 1.0000e-14
Angular grids for H and He will be reduced by one unit
Partially contracted basis set               ... on
Rotationally invariant grid construction     ... off

Total number of grid points                  ...     4043
Total number of batches                      ...       68
Average number of points per batch           ...       59
Average number of grid points per atom       ...      578
UseSFitting                                  ... on

GRIDX 2
-------
General Integration Accuracy     IntAcc      ... 4.020
Radial Grid Type                 RadialGrid  ... OptM3 with GC (2021)
Angular Grid (max. ang.)         AngularGrid ... 2 (Lebedev-110)
Angular grid pruning method      GridPruning ... 4 (adaptive)
Weight generation scheme         WeightScheme... Becke
Basis function cutoff            BFCut       ... 1.0000e-11
Integration weight cutoff        WCut        ... 1.0000e-14
Angular grids for H and He will be reduced by one unit
Partially contracted basis set               ... on
Rotationally invariant grid construction     ... off

Total number of grid points                  ...     8751
Total number of batches                      ...      140
Average number of points per batch           ...       62
Average number of grid points per atom       ...     1250
UseSFitting                                  ... on

GRIDX 3
-------
General Integration Accuracy     IntAcc      ... 4.338
Radial Grid Type                 RadialGrid  ... OptM3 with GC (2021)
Angular Grid (max. ang.)         AngularGrid ... 3 (Lebedev-194)
Angular grid pruning method      GridPruning ... 4 (adaptive)
Weight generation scheme         WeightScheme... Becke
Basis function cutoff            BFCut       ... 1.0000e-11
Integration weight cutoff        WCut        ... 1.0000e-14
Angular grids for H and He will be reduced by one unit
Partially contracted basis set               ... on
Rotationally invariant grid construction     ... off

Total number of grid points                  ...    19288
Total number of batches                      ...      306
Average number of points per batch           ...       63
Average number of grid points per atom       ...     2755
UseSFitting                                  ... on

Time for X-Grid setup             =    0.082 sec

--------------
SCF ITERATIONS
--------------
ITER       Energy         Delta-E        Max-DP      RMS-DP      [F,P]     Damp
               ***  Starting incremental Fock matrix formation  ***
                      *** Initiating the SOSCF procedure ***
                      *** Re-Reading the Fockian *** 
                      *** Removing any level shift *** 
ITER      Energy       Delta-E        Grad      Rot      Max-DP    RMS-DP
  0   -153.48832556 -153.4883255575  0.000002  0.000002  0.000004  0.000000
               *** Restarting incremental Fock matrix formation ***
                  ***Gradient check signals convergence***
              ***Rediagonalizing the Fockian in SOSCF/NRSCF***

               *****************************************************
               *                     SUCCESS                       *
               *           SCF CONVERGED AFTER   1 CYCLES          *
               *****************************************************

Old exchange energy                            =     -4.938409215 Eh
New exchange energy                            =     -4.938418567 Eh
Exchange energy change after final integration =     -0.000009353 Eh
Total energy after final integration           =   -153.488334910 Eh
Final COS-X integration done in                =     0.297 sec

----------------
TOTAL SCF ENERGY
----------------

Total Energy       :         -153.48833491 Eh           -4176.62993 eV

Components:
Nuclear Repulsion  :           66.25043804 Eh            1802.76607 eV
Electronic Energy  :         -219.73877295 Eh           -5979.39600 eV
One Electron Energy:         -339.46674867 Eh           -9237.35985 eV
Two Electron Energy:          119.72797572 Eh            3257.96385 eV
Max COSX asymmetry :            0.00000407 Eh               0.00011 eV

Virial components:
Potential Energy   :         -306.18520652 Eh           -8331.72305 eV
Kinetic Energy     :          152.69687161 Eh            4155.09312 eV
Virial Ratio       :            2.00518323


DFT components:
N(Alpha)           :       11.999994349356 electrons
N(Beta)            :       11.999994349356 electrons
N(Total)           :       23.999988698712 electrons
E(X)               :      -14.849433082474 Eh       
E(C)               :       -0.769385523537 Eh       
E(XC)              :      -15.618818606011 Eh       
DFET-embed. en.    :        0.000000000000 Eh       

---------------
SCF CONVERGENCE
---------------

  Last Energy change         ...   -1.7522e-10  Tolerance :   1.0000e-08
  Last MAX-Density change    ...    7.7716e-16  Tolerance :   1.0000e-07
  Last RMS-Density change    ...    2.1668e-17  Tolerance :   5.0000e-09
  Last Orbital Gradient      ...    8.2418e-07  Tolerance :   1.0000e-05
  Last Orbital Rotation      ...    4.1207e-06  Tolerance :   1.0000e-05

             **** THE GBW FILE WAS UPDATED (ox_es1_G_orca0005.gbw) ****
             **** DENSITY ox_es1_G_orca0005.scfp WAS UPDATED ****
             **** ENERGY FILE WAS UPDATED (ox_es1_G_orca0005.en.tmp) ****
             **** THE GBW FILE WAS UPDATED (ox_es1_G_orca0005.gbw) ****
             **** DENSITY ox_es1_G_orca0005.scfp WAS UPDATED ****
----------------
ORBITAL ENERGIES
----------------

  NO   OCC          E(Eh)            E(eV) 
   0   2.0000     -19.171261      -521.6765 
   1   2.0000     -10.314608      -280.6748 
   2   2.0000     -10.286579      -279.9121 
   3   2.0000      -0.968909       -26.3654 
   4   2.0000      -0.785072       -21.3629 
   5   2.0000      -0.616367       -16.7722 
   6   2.0000      -0.518085       -14.0978 
   7   2.0000      -0.479516       -13.0483 
   8   2.0000      -0.425564       -11.5802 
   9   2.0000      -0.389116       -10.5884 
  10   2.0000      -0.247576        -6.7369 
  11   2.0000      -0.224739        -6.1154 
  12   0.0000      -0.166374        -4.5273 
  13   0.0000       0.042924         1.1680 
  14   0.0000       0.066979         1.8226 
  15   0.0000       0.081143         2.2080 
  16   0.0000       0.140527         3.8239 
  17   0.0000       0.140984         3.8364 
  18   0.0000       0.181887         4.9494 
  19   0.0000       0.220995         6.0136 
  20   0.0000       0.231270         6.2932 
  21   0.0000       0.234921         6.3925 
  22   0.0000       0.240060         6.5324 
  23   0.0000       0.326667         8.8891 
  24   0.0000       0.361995         9.8504 
  25   0.0000       0.390140        10.6162 
  26   0.0000       0.405922        11.0457 
  27   0.0000       0.421636        11.4733 
  28   0.0000       0.441275        12.0077 
  29   0.0000       0.465015        12.6537 
  30   0.0000       0.510440        13.8898 
  31   0.0000       0.528373        14.3778 
  32   0.0000       0.544670        14.8212 
  33   0.0000       0.601006        16.3542 
  34   0.0000       0.612359        16.6631 
  35   0.0000       0.735640        20.0178 
  36   0.0000       0.776259        21.1231 
  37   0.0000       0.835918        22.7465 
  38   0.0000       0.881531        23.9877 
  39   0.0000       0.915198        24.9038 
  40   0.0000       0.940407        25.5898 
  41   0.0000       1.007335        27.4110 
  42   0.0000       1.091209        29.6933 
  43   0.0000       1.131687        30.7948 
  44   0.0000       1.211205        32.9586 
  45   0.0000       1.349635        36.7254 
  46   0.0000       1.436656        39.0934 
  47   0.0000       1.453084        39.5404 
  48   0.0000       1.501996        40.8714 
  49   0.0000       1.546524        42.0831 
  50   0.0000       1.557493        42.3816 
  51   0.0000       1.566851        42.6362 
  52   0.0000       1.606063        43.7032 
  53   0.0000       1.618715        44.0475 
  54   0.0000       1.717631        46.7391 
  55   0.0000       1.755233        47.7623 
  56   0.0000       1.794673        48.8355 
  57   0.0000       1.838804        50.0364 
  58   0.0000       1.871752        50.9330 
  59   0.0000       1.960598        53.3506 
  60   0.0000       1.980319        53.8872 
  61   0.0000       2.036470        55.4152 
  62   0.0000       2.075203        56.4691 
  63   0.0000       2.213888        60.2430 
  64   0.0000       2.256777        61.4100 
  65   0.0000       2.305740        62.7424 
  66   0.0000       2.372163        64.5498 
  67   0.0000       2.453928        66.7748 
  68   0.0000       2.498463        67.9866 
  69   0.0000       2.526755        68.7565 
  70   0.0000       2.549178        69.3667 
  71   0.0000       2.581316        70.2412 
  72   0.0000       2.620664        71.3119 
  73   0.0000       2.678145        72.8760 
  74   0.0000       2.687572        73.1326 
  75   0.0000       2.832789        77.0841 
  76   0.0000       2.845487        77.4296 
  77   0.0000       2.889103        78.6165 
  78   0.0000       2.971317        80.8536 
  79   0.0000       2.985817        81.2482 
  80   0.0000       3.029376        82.4335 
  81   0.0000       3.040304        82.7309 
  82   0.0000       3.113000        84.7090 
  83   0.0000       3.120535        84.9141 
  84   0.0000       3.150190        85.7210 
  85   0.0000       3.268100        88.9295 
  86   0.0000       3.286561        89.4319 
  87   0.0000       3.366518        91.6076 
  88   0.0000       3.402776        92.5942 
  89   0.0000       3.408888        92.7605 
  90   0.0000       3.478854        94.6644 
  91   0.0000       3.615097        98.3718 
  92   0.0000       3.699653       100.6727 
  93   0.0000       3.845067       104.6296 
  94   0.0000       4.052784       110.2819 
  95   0.0000       4.073764       110.8528 
  96   0.0000       4.107334       111.7662 
  97   0.0000       4.258649       115.8837 
  98   0.0000       4.321554       117.5955 
  99   0.0000       4.546504       123.7167 
 100   0.0000       4.595859       125.0597 
 101   0.0000       4.709922       128.1635 
 102   0.0000       5.215318       141.9160 
 103   0.0000       5.233230       142.4034 
 104   0.0000       5.384197       146.5115 
 105   0.0000       5.418468       147.4440 
 106   0.0000       5.736483       156.0976 
 107   0.0000       5.843642       159.0136 
 108   0.0000       5.920562       161.1067 
 109   0.0000       6.389093       173.8561 
 110   0.0000       6.392740       173.9553 
 111   0.0000       6.789150       184.7422 
 112   0.0000       6.811157       185.3410 
 113   0.0000       6.984970       190.0707 
 114   0.0000      21.978621       598.0687 
 115   0.0000      22.373175       608.8050 
 116   0.0000      43.780812      1191.3365 

                    ********************************
                    * MULLIKEN POPULATION ANALYSIS *
                    ********************************

-----------------------
MULLIKEN ATOMIC CHARGES
-----------------------
   0 O :   -0.425553
   1 C :   -0.160750
   2 C :   -0.105770
   3 H :    0.131211
   4 H :    0.228075
   5 H :    0.166655
   6 H :    0.166132
Sum of atomic charges:   -0.0000000

--------------------------------
MULLIKEN REDUCED ORBITAL CHARGES
--------------------------------
  0 O s       :     3.904743  s :     3.904743
      pz      :     1.576827  p :     4.497464
      px      :     1.690254
      py      :     1.230383
      dz2     :     0.002864  d :     0.022115
      dxz     :     0.001041
      dyz     :     0.004834
      dx2y2   :     0.005030
      dxy     :     0.008345
      f0      :     0.000104  f :     0.001231
      f+1     :     0.000070
      f-1     :     0.000159
      f+2     :     0.000083
      f-2     :     0.000132
      f+3     :     0.000419
      f-3     :     0.000264
  1 C s       :     3.217990  s :     3.217990
      pz      :     1.034531  p :     2.787828
      px      :     0.905296
      py      :     0.848000
      dz2     :     0.011795  d :     0.143665
      dxz     :     0.030599
      dyz     :     0.032699
      dx2y2   :     0.042496
      dxy     :     0.026077
      f0      :     0.001164  f :     0.011268
      f+1     :     0.001214
      f-1     :     0.000398
      f+2     :     0.001089
      f-2     :     0.001145
      f+3     :     0.001718
      f-3     :     0.004540
  2 C s       :     3.295316  s :     3.295316
      pz      :     1.060792  p :     2.760512
      px      :     0.961850
      py      :     0.737869
      dz2     :     0.005010  d :     0.046160
      dxz     :     0.026195
      dyz     :     0.001342
      dx2y2   :     0.005416
      dxy     :     0.008196
      f0      :     0.000395  f :     0.003783
      f+1     :     0.001006
      f-1     :     0.000075
      f+2     :     0.000731
      f-2     :     0.000047
      f+3     :     0.000566
      f-3     :     0.000962
  3 H s       :     0.845765  s :     0.845765
      pz      :     0.010209  p :     0.023024
      px      :     0.006991
      py      :     0.005825
  4 H s       :     0.748089  s :     0.748089
      pz      :     0.009723  p :     0.023837
      px      :     0.007822
      py      :     0.006291
  5 H s       :     0.811221  s :     0.811221
      pz      :     0.011015  p :     0.022124
      px      :     0.006851
      py      :     0.004258
  6 H s       :     0.813419  s :     0.813419
      pz      :     0.010918  p :     0.020449
      px      :     0.005968
      py      :     0.003563


                     *******************************
                     * LOEWDIN POPULATION ANALYSIS *
                     *******************************

----------------------
LOEWDIN ATOMIC CHARGES
----------------------
   0 O :   -0.168515
   1 C :   -0.439042
   2 C :   -0.033983
   3 H :    0.140523
   4 H :    0.227143
   5 H :    0.129265
   6 H :    0.144609

-------------------------------
LOEWDIN REDUCED ORBITAL CHARGES
-------------------------------
  0 O s       :     3.592878  s :     3.592878
      pz      :     1.534439  p :     4.519613
      px      :     1.667834
      py      :     1.317339
      dz2     :     0.006427  d :     0.052714
      dxz     :     0.002715
      dyz     :     0.012708
      dx2y2   :     0.013840
      dxy     :     0.017024
      f0      :     0.000404  f :     0.003310
      f+1     :     0.000172
      f-1     :     0.000395
      f+2     :     0.000215
      f-2     :     0.000439
      f+3     :     0.000980
      f-3     :     0.000705
  1 C s       :     2.828148  s :     2.828148
      pz      :     1.027618  p :     2.987767
      px      :     1.047845
      py      :     0.912304
      dz2     :     0.069537  d :     0.552312
      dxz     :     0.110281
      dyz     :     0.085410
      dx2y2   :     0.166393
      dxy     :     0.120691
      f0      :     0.008406  f :     0.070816
      f+1     :     0.007389
      f-1     :     0.004513
      f+2     :     0.005747
      f-2     :     0.008938
      f+3     :     0.013919
      f-3     :     0.021905
  2 C s       :     2.942634  s :     2.942634
      pz      :     1.065265  p :     2.851031
      px      :     1.093450
      py      :     0.692316
      dz2     :     0.027402  d :     0.218716
      dxz     :     0.121655
      dyz     :     0.002912
      dx2y2   :     0.035191
      dxy     :     0.031555
      f0      :     0.003612  f :     0.021601
      f+1     :     0.003449
      f-1     :     0.000518
      f+2     :     0.004538
      f-2     :     0.000433
      f+3     :     0.004493
      f-3     :     0.004558
  3 H s       :     0.797713  s :     0.797713
      pz      :     0.029176  p :     0.061764
      px      :     0.016898
      py      :     0.015690
  4 H s       :     0.713846  s :     0.713846
      pz      :     0.026531  p :     0.059011
      px      :     0.017933
      py      :     0.014547
  5 H s       :     0.805330  s :     0.805330
      pz      :     0.033583  p :     0.065406
      px      :     0.019171
      py      :     0.012653
  6 H s       :     0.797923  s :     0.797923
      pz      :     0.031851  p :     0.057468
      px      :     0.015877
      py      :     0.009740


                      *****************************
                      * MAYER POPULATION ANALYSIS *
                      *****************************

  NA   - Mulliken gross atomic population
  ZA   - Total nuclear charge
  QA   - Mulliken gross atomic charge
  VA   - Mayer's total valence
  BVA  - Mayer's bonded valence
  FA   - Mayer's free valence

  ATOM       NA         ZA         QA         VA         BVA        FA
  0 O      8.4256     8.0000    -0.4256     1.6568     1.6568     0.0000
  1 C      6.1608     6.0000    -0.1608     4.1935     4.1935     0.0000
  2 C      6.1058     6.0000    -0.1058     3.6719     3.6719    -0.0000
  3 H      0.8688     1.0000     0.1312     0.9537     0.9537     0.0000
  4 H      0.7719     1.0000     0.2281     0.9423     0.9423     0.0000
  5 H      0.8333     1.0000     0.1667     0.9580     0.9580     0.0000
  6 H      0.8339     1.0000     0.1661     0.9557     0.9557     0.0000

  Mayer bond orders larger than 0.100000
B(  0-O ,  1-C ) :   1.1345 B(  0-O ,  2-C ) :   0.4830 B(  1-C ,  2-C ) :   1.2496 
B(  1-C ,  3-H ) :   0.9712 B(  1-C ,  4-H ) :   0.8225 B(  2-C ,  5-H ) :   0.9309 
B(  2-C ,  6-H ) :   0.9392 

-------
TIMINGS
-------

Total SCF time: 0 days 0 hours 0 min 1 sec 

Total time                  ....       1.083 sec
Sum of individual times     ....       1.014 sec  ( 93.6%)

Fock matrix formation       ....       0.789 sec  ( 72.8%)
  Split-RI-J                ....       0.127 sec  ( 16.1% of F)
  Chain of spheres X        ....       0.589 sec  ( 74.7% of F)
  XC integration            ....       0.070 sec  (  8.9% of F)
    Basis function eval.    ....       0.021 sec  ( 29.2% of XC)
    Density eval.           ....       0.015 sec  ( 21.8% of XC)
    XC-Functional eval.     ....       0.004 sec  (  6.0% of XC)
    XC-Potential eval.      ....       0.023 sec  ( 32.5% of XC)
Diagonalization             ....       0.003 sec  (  0.3%)
Density matrix formation    ....       0.000 sec  (  0.0%)
Population analysis         ....       0.003 sec  (  0.3%)
Initial guess               ....       0.004 sec  (  0.3%)
Orbital Transformation      ....       0.000 sec  (  0.0%)
Orbital Orthonormalization  ....       0.001 sec  (  0.1%)
DIIS solution               ....       0.002 sec  (  0.1%)
SOSCF solution              ....       0.003 sec  (  0.2%)
Grid generation             ....       0.211 sec  ( 19.5%)

Maximum memory used throughout the entire SCF-calculation: 61.1 MB


           ************************************************************
           *        Program running with 8 parallel MPI-processes     *
           *              working on a common directory               *
           ************************************************************
------------------------------------------------------------------------------
                        ORCA TD-DFT/TDA CALCULATION
------------------------------------------------------------------------------

Input orbitals are from        ... ox_es1_G_orca0005.gbw
CI-vector output               ... ox_es1_G_orca0005.cis
Tamm-Dancoff approximation     ... operative
CIS-Integral strategy          ... AO-integrals
Integral handling              ... AO integral Direct
Max. core memory used          ... 3000 MB
Reference state                ... RHF
Generation of triplets         ... off
Follow IRoot                   ... off
Number of operators            ... 1
Orbital ranges used for CIS calculation:
 Operator 0:  Orbitals   3... 11  to  12...116
XAS localization array:
 Operator 0:  Orbitals  -1... -1

-------------------
XC-INTEGRATION GRID
-------------------

General Integration Accuracy     IntAcc      ... 3.467
Radial Grid Type                 RadialGrid  ... OptM3 with GC (2021)
Angular Grid (max. ang.)         AngularGrid ... 1 (Lebedev-50)
Angular grid pruning method      GridPruning ... 4 (adaptive)
Weight generation scheme         WeightScheme... Becke
Basis function cutoff            BFCut       ... 1.0000e-11
Integration weight cutoff        WCut        ... 1.0000e-14
Angular grids for H and He will be reduced by one unit
Partially contracted basis set               ... off
Rotationally invariant grid construction     ... off

Total number of grid points                  ...     4555
Total number of batches                      ...       74
Average number of points per batch           ...       61
Average number of grid points per atom       ...      651

---------------------
COSX-INTEGRATION GRID
---------------------

General Integration Accuracy     IntAcc      ... 3.067
Radial Grid Type                 RadialGrid  ... OptM3 with GC (2021)
Angular Grid (max. ang.)         AngularGrid ... 1 (Lebedev-50)
Angular grid pruning method      GridPruning ... 4 (adaptive)
Weight generation scheme         WeightScheme... Becke
Basis function cutoff            BFCut       ... 1.0000e-11
Integration weight cutoff        WCut        ... 1.0000e-14
Angular grids for H and He will be reduced by one unit
Partially contracted basis set               ... on
Rotationally invariant grid construction     ... off

Total number of grid points                  ...     2088
Total number of batches                      ...       36
Average number of points per batch           ...       58
Average number of grid points per atom       ...      298

---------------
TD-DFT XC SETUP
---------------

DFT calculation                         ... on
Name of the grid file                   ... ox_es1_G_orca0005.grid_cis.tmp
Exchange functional (TD-DFT)            ... PBE
   PBE kappa parameter  XKappa (TD-DFT) ...  0.804000
   PBE mue parameter   XMuePBE (TD-DFT) ...  0.219520
Correlation functional (TD-DFT)         ... PBE
   PBE beta parameter CBetaPBE (TD-DFT) ...  0.066725
 LDA part of GGA corr.  LDAOpt (TD-DFT) ... PW91-LDA
Hybrid DFT                              ... on
   Exchange mixing (TD-DFT)             ...  0.250
   GGA exch. scaling (TD-DFT)           ...  0.750
   GGA corr. scaling (TD-DFT)           ...  1.000

Building densities             ... done
Calculating rho(r) on the grid ... done
Building xc-kernel on the grid ... done
                    *** TD-DFT CALCULATION INITIALIZED ***

------------------------
DAVIDSON-DIAGONALIZATION
------------------------

Dimension of the eigenvalue problem            ...    945
Number of roots to be determined               ...      1
Maximum size of the expansion space            ...     10
Maximum number of iterations                   ...    100
Convergence tolerance for the residual         ...    2.500e-07
Convergence tolerance for the energies         ...    2.500e-07
Orthogonality tolerance                        ...    1.000e-14
Level Shift                                    ...    0.000e+00
Constructing the preconditioner                ... o.k.
Building the initial guess                     ... o.k.
Number of trial vectors determined             ...     10


                       ****Iteration    0****

   Memory handling for direct AO based CIS:
   Memory per vector needed      ...     1 MB
   Memory needed                 ...     1 MB
   Memory available              ...  3000 MB
   Number of vectors per batch   ...  3000
   Number of batches             ...     1
   Time for densities:            0.001
   Time for RI-J (Direct):        0.016
   Time for K (COSX):             0.059
   Time for XC-Integration:       0.016
   Time for Sigma-Completion:     0.000
   Size of expansion space: 3
   Lowest Energy          :     0.002800202813
   Maximum Energy change  :     0.002800202813 (vector 0)
   Maximum residual norm  :     0.003312784636

                       ****Iteration    1****
   Time for densities:            0.000
   Time for RI-J (Direct):        0.013
   Time for K (COSX):             0.055
   Time for XC-Integration:       0.007
   Time for Sigma-Completion:     0.000
   Size of expansion space: 4
   Lowest Energy          :     0.000394774905
   Maximum Energy change  :     0.002405427908 (vector 0)
   Maximum residual norm  :     0.000265492661

                       ****Iteration    2****
   Time for densities:            0.000
   Time for RI-J (Direct):        0.013
   Time for K (COSX):             0.056
   Time for XC-Integration:       0.007
   Time for Sigma-Completion:     0.000
   Size of expansion space: 5
   Lowest Energy          :     0.000176265188
   Maximum Energy change  :     0.000218509717 (vector 0)
   Maximum residual norm  :     0.000008914377

                       ****Iteration    3****
   Time for densities:            0.000
   Time for RI-J (Direct):        0.013
   Time for K (COSX):             0.056
   Time for XC-Integration:       0.007
   Time for Sigma-Completion:     0.000
   Size of expansion space: 6
   Lowest Energy          :     0.000170334487
   Maximum Energy change  :     0.000005930700 (vector 0)
   Maximum residual norm  :     0.000000260366

                       ****Iteration    4****
   Time for densities:            0.000
   Time for RI-J (Direct):        0.013
   Time for K (COSX):             0.056
   Time for XC-Integration:       0.007
   Time for Sigma-Completion:     0.000
   Size of expansion space: 7
   Lowest Energy          :     0.000170131617
   Maximum Energy change  :     0.000000202870 (vector 0)

         *** CONVERGENCE OF ENERGIES REACHED ***

Storing the converged CI vectors               ... ox_es1_G_orca0005.cis1

                 *** DAVIDSON DONE ***

Total time for solving the CIS problem:     0.400sec

------------------------------------
TD-DFT/TDA EXCITED STATES (SINGLETS)
------------------------------------

the weight of the individual excitations are printed if larger than 1.0e-02

STATE  1:  E=   0.000170 au      0.005 eV       37.3 cm**-1 <S**2> =   0.000000
    10a ->  12a  :     0.770943 (c= -0.87803346)
    11a ->  12a  :     0.223792 (c=  0.47306615)


-----------------------------
TD-DFT/TDA-EXCITATION SPECTRA
-----------------------------

Center of mass = ( -1.0238, -0.0236, -0.0353)
Calculating the Dipole integrals                  ... done
Transforming integrals                            ... done
Calculating the Linear Momentum integrals         ... done
Transforming integrals                            ... done
Calculating angular momentum integrals            ... done
Transforming integrals                            ... done

-----------------------------------------------------------------------------
         ABSORPTION SPECTRUM VIA TRANSITION ELECTRIC DIPOLE MOMENTS
-----------------------------------------------------------------------------
State   Energy    Wavelength  fosc         T2        TX        TY        TZ  
        (cm-1)      (nm)                 (au**2)    (au)      (au)      (au) 
-----------------------------------------------------------------------------
   1      37.3   267812.4   0.000002220   0.01957  -0.12900   0.05407  -0.00279

-----------------------------------------------------------------------------
         ABSORPTION SPECTRUM VIA TRANSITION VELOCITY DIPOLE MOMENTS
-----------------------------------------------------------------------------
State   Energy    Wavelength   fosc        P2         PX        PY        PZ  
        (cm-1)      (nm)                 (au**2)     (au)      (au)      (au) 
-----------------------------------------------------------------------------
   1      37.3   267812.4   13.510665106   0.00345  -0.02482   0.05201  -0.01125

-------------------------------------------------------------------
                             CD SPECTRUM
-------------------------------------------------------------------
State  Energy     Wavelength     R         MX        MY        MZ   
       (cm-1)       (nm)     (1e40*cgs)   (au)      (au)      (au)  
-------------------------------------------------------------------
   1      37.3   267812.4     23.97393  -0.29993   0.22039  -0.08771

-------------------------------------------------------------------
         CD SPECTRUM VIA TRANSITION VELOCITY DIPOLE MOMENTS        
-------------------------------------------------------------------
State  Energy     Wavelength     R         MX        MY        MZ   
       (cm-1)       (nm)     (1e40*cgs)   (au)      (au)      (au)  
-------------------------------------------------------------------
   1      37.3   267812.4    55129.15608  -0.29993   0.22039  -0.08771

Total run time:        0.647 sec

           *** ORCA-CIS/TD-DFT FINISHED WITHOUT ERROR ***

Maximum memory used throughout the entire CIS-calculation: 49.4 MB

-----------------------
CIS/TD-DFT TOTAL ENERGY
-----------------------

    E(SCF)  =   -153.488334910 Eh
    DE(CIS) =      0.000170132 Eh (Root  1)
    ----------------------------- ---------
    E(tot)  =   -153.488164779 Eh



-------------------------------------------------------------------------------
                          DFT DISPERSION CORRECTION                            
                                                                               
                              DFTD3 V3.1  Rev 1                                
                          USING Becke-Johnson damping                          
-------------------------------------------------------------------------------
The PBE0 functional is recognized
Active option DFTDOPT                   ...         4   

molecular C6(AA) [au] = 395.450288 


            DFT-D V3
 parameters
 s6 scaling factor         :     1.0000 
 a1 scaling factor         :     0.4145 
 s8 scaling factor         :     1.2177 
 a2 scaling factor         :     4.8593 
 ad hoc parameters k1-k3   :    16.0000     1.3333    -4.0000 

 Edisp/kcal,au: -1.611885170354  -0.002568702251 
 E6   /kcal   :  -1.051250822 
 E8   /kcal   :  -0.560634348 
 % E8         :  34.781283328 

-------------------------   ----------------
Dispersion correction           -0.002568702
-------------------------   ----------------


-------------------------   --------------------
FINAL SINGLE POINT ENERGY      -153.490733480814
-------------------------   --------------------



           ************************************************************
           *        Program running with 8 parallel MPI-processes     *
           *              working on a common directory               *
           ************************************************************
------------------------------------------------------------------------------
                         ORCA SCF GRADIENT CALCULATION
------------------------------------------------------------------------------


------------------------
TD-DFT GRADIENT XC SETUP
------------------------

Building densities                     ... done
Calculating rho(r) on the grid         ... done
Building xc-kernel on the grid         ... done
Building xc 3rd derivative on the grid      ... done
                *** TD-DFT GRADIENT CALCULATION INITIALIZED ***

-------------------
TD-DFT/TDA GRADIENT
-------------------

Reference wavefunction             ... RHF
State of interest                  ... 1
Basis dimension                    ... 117
DFT-XC contribution needed         ... YES
RI-approximation                   ... ON
CIS-vectors being read from        ... ox_es1_G_orca0005.cis

 => Number of Vectors found: 1
 => Orbital Window: 3...11 -> 12...116

Reading the CIS file                     ... done
Norm of the CI vector                    ... 1.000000000
Making the CIS (pseudo)densities         ... done
Making operators G(D) and Q(T)           ... done
Transforming the Fock operators          ... done
Making the frozen-core relaxed density   ... done
Constructing the G(H) operator           ... done
Transforming the G(H) operator           ... done
Calculating the CIS Lagrangian           ... done
Solving the Z-vector equations           ... done
Finalizing the relaxed density           ... done
Storing the relaxed density              ... done
Constructing the G(Z) operator           ... done
Transforming the G(Z) operator           ... done
Making the W-matrix                      ... done
Finalizing the W-matrix                  ... done
Transforming the W-matrix                ... done
Nuclear repulsion gradient               ... done
One-Electron gradient                    ... done
Dispersion correction                    ... done
Prescreening matrices                    ... done
COSX-gradient                            ... done
Coulomb gradient (RI)                    ... done
Exchange-Correlation gradient            ... done

                 ---------------------------
                 EXCITED STATE GRADIENT DONE
                 ---------------------------

------------------
CARTESIAN GRADIENT
------------------

   1   O   :    0.038521491   -0.019868047   -0.033652607
   2   C   :   -0.012409465   -0.036583776    0.073847679
   3   C   :    0.001416134    0.028850091   -0.040517867
   4   H   :   -0.020012449    0.000480388   -0.008715479
   5   H   :   -0.039458789    0.020717268   -0.012656877
   6   H   :    0.012816866    0.011311866   -0.007592156
   7   H   :    0.019174583   -0.004874781    0.029268023

Difference to translation invariance:
           :    0.0000483720    0.0000330081   -0.0000192849

Difference to rotation invariance:
           :    0.0000247368   -0.0002220635   -0.0002214736

Norm of the cartesian gradient     ...    0.1290504671
RMS gradient                       ...    0.0281611207
MAX gradient                       ...    0.0738476785

------------------------------------------------------------------------------
                  RELAXED CIS/TDA DENSITY POPULATION ANALYSIS
                                   IROOT 1
------------------------------------------------------------------------------
------------------------------------------------------------------------------
                           ORCA POPULATION ANALYSIS
------------------------------------------------------------------------------
Input electron density              ... ox_es1_G_orca0005.cisp
BaseName (.gbw .S,...)              ... ox_es1_G_orca0005

                    ********************************
                    * MULLIKEN POPULATION ANALYSIS *
                    ********************************

-----------------------
MULLIKEN ATOMIC CHARGES
-----------------------
   0 O :   -0.443879
   1 C :   -0.086965
   2 C :   -0.180767
   3 H :    0.221543
   4 H :    0.157606
   5 H :    0.170397
   6 H :    0.162066
Sum of atomic charges:   -0.0000000

--------------------------------
MULLIKEN REDUCED ORBITAL CHARGES
--------------------------------
  0 O s       :     3.906938  s :     3.906938
      pz      :     2.552857  p :     4.513968
      px      :     1.470999
      py      :     0.490111
      dz2     :     0.002803  d :     0.021820
      dxz     :     0.000895
      dyz     :     0.004044
      dx2y2   :     0.005477
      dxy     :     0.008602
      f0      :     0.000148  f :     0.001152
      f+1     :     0.000132
      f-1     :     0.000251
      f+2     :     0.000050
      f-2     :     0.000050
      f+3     :     0.000326
      f-3     :     0.000195
  1 C s       :     3.160257  s :     3.160257
      pz      :     1.038991  p :     2.782858
      px      :     0.917009
      py      :     0.826858
      dz2     :     0.002492  d :     0.130410
      dxz     :     0.032752
      dyz     :     0.054485
      dx2y2   :     0.045793
      dxy     :    -0.005111
      f0      :     0.001871  f :     0.013440
      f+1     :     0.000746
      f-1     :     0.000539
      f+2     :     0.001467
      f-2     :     0.002591
      f+3     :     0.001503
      f-3     :     0.004722
  2 C s       :     3.329318  s :     3.329318
      pz      :     1.067969  p :     2.801470
      px      :     0.905551
      py      :     0.827951
      dz2     :     0.005313  d :     0.046122
      dxz     :     0.026924
      dyz     :     0.001844
      dx2y2   :     0.004154
      dxy     :     0.007887
      f0      :     0.000356  f :     0.003857
      f+1     :     0.001005
      f-1     :     0.000082
      f+2     :     0.000776
      f-2     :     0.000046
      f+3     :     0.000626
      f-3     :     0.000966
  3 H s       :     0.753575  s :     0.753575
      pz      :     0.010976  p :     0.024883
      px      :     0.007907
      py      :     0.006000
  4 H s       :     0.819410  s :     0.819410
      pz      :     0.009995  p :     0.022984
      px      :     0.007617
      py      :     0.005372
  5 H s       :     0.807383  s :     0.807383
      pz      :     0.011094  p :     0.022220
      px      :     0.006463
      py      :     0.004663
  6 H s       :     0.817435  s :     0.817435
      pz      :     0.010720  p :     0.020499
      px      :     0.005741
      py      :     0.004038


                     *******************************
                     * LOEWDIN POPULATION ANALYSIS *
                     *******************************

----------------------
LOEWDIN ATOMIC CHARGES
----------------------
   0 O :   -0.196911
   1 C :   -0.397448
   2 C :   -0.069001
   3 H :    0.219665
   4 H :    0.171123
   5 H :    0.131134
   6 H :    0.141437

-------------------------------
LOEWDIN REDUCED ORBITAL CHARGES
-------------------------------
  0 O s       :     3.589837  s :     3.589837
      pz      :     2.467284  p :     4.549788
      px      :     1.453849
      py      :     0.628655
      dz2     :     0.006394  d :     0.053989
      dxz     :     0.002761
      dyz     :     0.014156
      dx2y2   :     0.013424
      dxy     :     0.017254
      f0      :     0.000374  f :     0.003297
      f+1     :     0.000189
      f-1     :     0.000513
      f+2     :     0.000191
      f-2     :     0.000467
      f+3     :     0.000921
      f-3     :     0.000641
  1 C s       :     2.817521  s :     2.817521
      pz      :     1.068614  p :     2.997033
      px      :     1.048536
      py      :     0.879883
      dz2     :     0.047788  d :     0.498754
      dxz     :     0.111877
      dyz     :     0.147004
      dx2y2   :     0.149963
      dxy     :     0.042122
      f0      :     0.012790  f :     0.084140
      f+1     :     0.005055
      f-1     :     0.004464
      f+2     :     0.007420
      f-2     :     0.017318
      f+3     :     0.012952
      f-3     :     0.024141
  2 C s       :     2.933356  s :     2.933356
      pz      :     1.063060  p :     2.891783
      px      :     1.036922
      py      :     0.791800
      dz2     :     0.027915  d :     0.222021
      dxz     :     0.127215
      dyz     :     0.003199
      dx2y2   :     0.033829
      dxy     :     0.029862
      f0      :     0.003883  f :     0.021841
      f+1     :     0.003498
      f-1     :     0.000532
      f+2     :     0.004821
      f-2     :     0.000426
      f+3     :     0.004654
      f-3     :     0.004028
  3 H s       :     0.716870  s :     0.716870
      pz      :     0.030806  p :     0.063465
      px      :     0.018941
      py      :     0.013718
  4 H s       :     0.770234  s :     0.770234
      pz      :     0.028008  p :     0.058643
      px      :     0.017620
      py      :     0.013015
  5 H s       :     0.803993  s :     0.803993
      pz      :     0.033403  p :     0.064873
      px      :     0.017388
      py      :     0.014081
  6 H s       :     0.800556  s :     0.800556
      pz      :     0.031391  p :     0.058007
      px      :     0.014872
      py      :     0.011744


                      *****************************
                      * MAYER POPULATION ANALYSIS *
                      *****************************

  NA   - Mulliken gross atomic population
  ZA   - Total nuclear charge
  QA   - Mulliken gross atomic charge
  VA   - Mayer's total valence
  BVA  - Mayer's bonded valence
  FA   - Mayer's free valence

  ATOM       NA         ZA         QA         VA         BVA        FA
  0 O      8.4439     8.0000    -0.4439    -0.1821     2.8075    -2.9896
  1 C      6.0870     6.0000    -0.0870     4.1158     4.5007    -0.3849
  2 C      6.1808     6.0000    -0.1808     3.7981     4.7833    -0.9852
  3 H      0.7785     1.0000     0.2215     0.9185     1.1188    -0.2002
  4 H      0.8424     1.0000     0.1576     0.9384     1.1622    -0.2237
  5 H      0.8296     1.0000     0.1704     0.9469     0.9775    -0.0306
  6 H      0.8379     1.0000     0.1621     0.9527     0.9660    -0.0133

  Mayer bond orders larger than 0.100000
B(  0-O ,  1-C ) :   1.2315 B(  0-O ,  2-C ) :   1.2453 B(  0-O ,  3-H ) :   0.1299 
B(  0-O ,  4-H ) :   0.1654 B(  1-C ,  2-C ) :   1.4961 B(  1-C ,  3-H ) :   0.8220 
B(  1-C ,  4-H ) :   0.9411 B(  2-C ,  3-H ) :   0.1386 B(  2-C ,  5-H ) :   0.9500 
B(  2-C ,  6-H ) :   0.9317 


-------
TIMINGS
-------

Total TD-DFT gradient time         ...        6.573 sec

Fock matrix formation       ....       0.917 sec  ( 14.0%)
  Coulomb formation         ....       0.744 sec  ( 81.2% of F)
  RI-J                      ....       0.314 sec  ( 34.2% of F)
  Chain of spheres X        ....       0.430 sec  ( 46.9% of F)
  XC integration            ....       0.173 sec  ( 18.8% of F)
Z-vector equation           ....       2.783 sec  ( 42.3%)
One electron gradient       ....       0.035 sec  (  0.5%)
Prescreening matrices       ....       0.164 sec  (  2.5%)
RI-J Coulomb gradient       ....       0.289 sec  (  4.4%)
COSX gradient               ....       0.386 sec  (  5.9%)
XC gradient                 ....       1.681 sec  ( 25.6%)

Maximum memory used throughout the entire SCFGRAD-calculation: 130.2 MB

                            ***************************************
                            *     ORCA property calculations      *
                            ***************************************

                                    ---------------------
                                    Active property flags
                                    ---------------------
   (+) Dipole Moment


------------------------------------------------------------------------------
                       ORCA ELECTRIC PROPERTIES CALCULATION
------------------------------------------------------------------------------

Dipole Moment Calculation                       ... on
Quadrupole Moment Calculation                   ... off
Polarizability Calculation                      ... off
GBWName                                         ... ox_es1_G_orca0005.gbw
Electron density                                ... ox_es1_G_orca0005.scfp
The origin for moment calculation is the CENTER OF MASS  = (-1.023798, -0.023643 -0.035287)

-------------
DIPOLE MOMENT
-------------
                                X             Y             Z
Electronic contribution:     -0.87687       1.35724      -0.09541
Nuclear contribution   :      2.06155      -2.45369       0.06465
                        -----------------------------------------
Total Dipole Moment    :      1.18467      -1.09646      -0.03075
                        -----------------------------------------
Magnitude (a.u.)       :      1.61450
Magnitude (Debye)      :      4.10373



--------------------
Rotational spectrum 
--------------------
 
Rotational constants in cm-1:     1.789205     0.295798     0.284377 
Rotational constants in MHz : 53639.006010  8867.809322  8525.404047 

 Dipole components along the rotational axes: 
x,y,z [a.u.] :    -1.572580    -0.363604    -0.037309 
x,y,z [Debye]:    -3.997179    -0.924208    -0.094832 

 

                        *** CIS RELAXED DENSITY ***

------------------------------------------------------------------------------
                       ORCA ELECTRIC PROPERTIES CALCULATION
------------------------------------------------------------------------------

Dipole Moment Calculation                       ... on
Quadrupole Moment Calculation                   ... off
Polarizability Calculation                      ... off
GBWName                                         ... ox_es1_G_orca0005.gbw
Electron density                                ... ox_es1_G_orca0005.cisp
The origin for moment calculation is the CENTER OF MASS  = (-1.023798, -0.023643 -0.035287)

-------------
DIPOLE MOMENT
-------------
                                X             Y             Z
Electronic contribution:     -0.85849       1.47747      -0.02922
Nuclear contribution   :      2.06155      -2.45369       0.06465
                        -----------------------------------------
Total Dipole Moment    :      1.20306      -0.97622       0.03543
                        -----------------------------------------
Magnitude (a.u.)       :      1.54972
Magnitude (Debye)      :      3.93907



--------------------
Rotational spectrum 
--------------------
 
Rotational constants in cm-1:     1.789205     0.295798     0.284377 
Rotational constants in MHz : 53639.006010  8867.809322  8525.404047 

 Dipole components along the rotational axes: 
x,y,z [a.u.] :    -1.528938    -0.251072     0.030557 
x,y,z [Debye]:    -3.886252    -0.638174     0.077671 

 

Timings for individual modules:

Sum of individual times         ...        9.069 sec (=   0.151 min)
GTO integral calculation        ...        0.258 sec (=   0.004 min)   2.8 %
SCF iterations                  ...        1.249 sec (=   0.021 min)  13.8 %
CIS module                      ...        0.830 sec (=   0.014 min)   9.2 %
SCF Gradient evaluation         ...        6.733 sec (=   0.112 min)  74.2 %
                             ****ORCA TERMINATED NORMALLY****
TOTAL RUN TIME: 0 days 0 hours 0 minutes 9 seconds 360 msec
