
                                 *****************
                                 * O   R   C   A *
                                 *****************

                                            #,                                       
                                            ###                                      
                                            ####                                     
                                            #####                                    
                                            ######                                   
                                           ########,                                 
                                     ,,################,,,,,                         
                               ,,#################################,,                 
                          ,,##########################################,,             
                       ,#########################################, ''#####,          
                    ,#############################################,,   '####,        
                  ,##################################################,,,,####,       
                ,###########''''           ''''###############################       
              ,#####''   ,,,,##########,,,,          '''####'''          '####       
            ,##' ,,,,###########################,,,                        '##       
           ' ,,###''''                  '''############,,,                           
         ,,##''                                '''############,,,,        ,,,,,,###''
      ,#''                                            '''#######################'''  
     '                                                          ''''####''''         
             ,#######,   #######,   ,#######,      ##                                
            ,#'     '#,  ##    ##  ,#'     '#,    #''#        ######   ,####,        
            ##       ##  ##   ,#'  ##            #'  '#       #        #'  '#        
            ##       ##  #######   ##           ,######,      #####,   #    #        
            '#,     ,#'  ##    ##  '#,     ,#' ,#      #,         ##   #,  ,#        
             '#######'   ##     ##  '#######'  #'      '#     #####' # '####'        



                  #######################################################
                  #                        -***-                        #
                  #          Department of theory and spectroscopy      #
                  #    Directorship and core code : Frank Neese         #
                  #        Max Planck Institute fuer Kohlenforschung    #
                  #                Kaiser Wilhelm Platz 1               #
                  #                 D-45470 Muelheim/Ruhr               #
                  #                      Germany                        #
                  #                                                     #
                  #                  All rights reserved                #
                  #                        -***-                        #
                  #######################################################


                         Program Version 5.0.2 -  RELEASE  -


 With contributions from (in alphabetic order):
   Daniel Aravena         : Magnetic Suceptibility
   Michael Atanasov       : Ab Initio Ligand Field Theory (pilot matlab implementation)
   Alexander A. Auer      : GIAO ZORA, VPT2 properties, NMR spectrum
   Ute Becker             : Parallelization
   Giovanni Bistoni       : ED, misc. LED, open-shell LED, HFLD
   Martin Brehm           : Molecular dynamics
   Dmytro Bykov           : SCF Hessian
   Vijay G. Chilkuri      : MRCI spin determinant printing, contributions to CSF-ICE
   Dipayan Datta          : RHF DLPNO-CCSD density
   Achintya Kumar Dutta   : EOM-CC, STEOM-CC
   Dmitry Ganyushin       : Spin-Orbit,Spin-Spin,Magnetic field MRCI
   Miquel Garcia          : C-PCM and meta-GGA Hessian, CC/C-PCM, Gaussian charge scheme
   Yang Guo               : DLPNO-NEVPT2, F12-NEVPT2, CIM, IAO-localization
   Andreas Hansen         : Spin unrestricted coupled pair/coupled cluster methods
   Benjamin Helmich-Paris : MC-RPA, TRAH-SCF, COSX integrals
   Lee Huntington         : MR-EOM, pCC
   Robert Izsak           : Overlap fitted RIJCOSX, COSX-SCS-MP3, EOM
   Marcus Kettner         : VPT2
   Christian Kollmar      : KDIIS, OOCD, Brueckner-CCSD(T), CCSD density, CASPT2, CASPT2-K
   Simone Kossmann        : Meta GGA functionals, TD-DFT gradient, OOMP2, MP2 Hessian
   Martin Krupicka        : Initial AUTO-CI
   Lucas Lang             : DCDCAS
   Marvin Lechner         : AUTO-CI (C++ implementation), FIC-MRCC
   Dagmar Lenk            : GEPOL surface, SMD
   Dimitrios Liakos       : Extrapolation schemes; Compound Job, initial MDCI parallelization
   Dimitrios Manganas     : Further ROCIS development; embedding schemes
   Dimitrios Pantazis     : SARC Basis sets
   Anastasios Papadopoulos: AUTO-CI, single reference methods and gradients
   Taras Petrenko         : DFT Hessian,TD-DFT gradient, ASA, ECA, R-Raman, ABS, FL, XAS/XES, NRVS
   Peter Pinski           : DLPNO-MP2, DLPNO-MP2 Gradient
   Christoph Reimann      : Effective Core Potentials
   Marius Retegan         : Local ZFS, SOC
   Christoph Riplinger    : Optimizer, TS searches, QM/MM, DLPNO-CCSD(T), (RO)-DLPNO pert. Triples
   Tobias Risthaus        : Range-separated hybrids, TD-DFT gradient, RPA, STAB
   Michael Roemelt        : Original ROCIS implementation
   Masaaki Saitow         : Open-shell DLPNO-CCSD energy and density
   Barbara Sandhoefer     : DKH picture change effects
   Avijit Sen             : IP-ROCIS
   Kantharuban Sivalingam : CASSCF convergence, NEVPT2, FIC-MRCI
   Bernardo de Souza      : ESD, SOC TD-DFT
   Georgi Stoychev        : AutoAux, RI-MP2 NMR, DLPNO-MP2 response
   Willem Van den Heuvel  : Paramagnetic NMR
   Boris Wezisla          : Elementary symmetry handling
   Frank Wennmohs         : Technical directorship


 We gratefully acknowledge several colleagues who have allowed us to
 interface, adapt or use parts of their codes:
   Stefan Grimme, W. Hujo, H. Kruse, P. Pracht,  : VdW corrections, initial TS optimization,
                  C. Bannwarth, S. Ehlert          DFT functionals, gCP, sTDA/sTD-DF
   Ed Valeev, F. Pavosevic, A. Kumar             : LibInt (2-el integral package), F12 methods
   Garnet Chan, S. Sharma, J. Yang, R. Olivares  : DMRG
   Ulf Ekstrom                                   : XCFun DFT Library
   Mihaly Kallay                                 : mrcc  (arbitrary order and MRCC methods)
   Jiri Pittner, Ondrej Demel                    : Mk-CCSD
   Frank Weinhold                                : gennbo (NPA and NBO analysis)
   Christopher J. Cramer and Donald G. Truhlar   : smd solvation model
   Lars Goerigk                                  : TD-DFT with DH, B97 family of functionals
   V. Asgeirsson, H. Jonsson                     : NEB implementation
   FAccTs GmbH                                   : IRC, NEB, NEB-TS, DLPNO-Multilevel, CI-OPT
                                                   MM, QMMM, 2- and 3-layer-ONIOM, Crystal-QMMM,
                                                   LR-CPCM, SF, NACMEs, symmetry and pop. for TD-DFT,
                                                   nearIR, NL-DFT gradient (VV10), updates on ESD,
                                                   ML-optimized integration grids
   S Lehtola, MJT Oliveira, MAL Marques          : LibXC Library
   Liviu Ungur et al                             : ANISO software


 Your calculation uses the libint2 library for the computation of 2-el integrals
 For citations please refer to: http://libint.valeyev.net

 Your ORCA version has been built with support for libXC version: 5.1.0
 For citations please refer to: https://tddft.org/programs/libxc/

 This ORCA versions uses:
   CBLAS   interface :  Fast vector & matrix operations
   LAPACKE interface :  Fast linear algebra routines
   SCALAPACK package :  Parallel linear algebra routines
   Shared memory     :  Shared parallel matrices
   BLAS/LAPACK       :  OpenBLAS 0.3.15  USE64BITINT DYNAMIC_ARCH NO_AFFINITY SkylakeX SINGLE_THREADED
        Core in use  :  SkylakeX
   Copyright (c) 2011-2014, The OpenBLAS Project


Your calculation utilizes the atom-pairwise dispersion correction
with the Becke-Johnson damping scheme (D3BJ)
Cite in your paper:
S.Grimme, S.Ehrlich, L.Goerigk, J Comput Chem, (2011), 32, 1456–1465 
S.Grimme, J.Antony, S.Ehrlich and H.Krieg, J.Chem.Phys., 132, (2010), 154104 
   

================================================================================

----- Orbital basis set information -----
Your calculation utilizes the basis: def2-TZVP
   F. Weigend and R. Ahlrichs, Phys. Chem. Chem. Phys. 7, 3297 (2005).

----- AuxJ basis set information -----
Your calculation utilizes the auxiliary basis: def2/J
   F. Weigend, Phys. Chem. Chem. Phys. 8, 1057 (2006).

================================================================================
                                        WARNINGS
                       Please study these warnings very carefully!
================================================================================

INFO   : Checking CIS options ...

WARNING: CIS/ROCIS methods need fully converged wavefunctions
  ===> : Setting SCFConvForced true
         You can overwrite this default with %scf ConvForced false 


INFO   : the flag for use of the SHARK integral package has been found!

================================================================================
                                       INPUT FILE
================================================================================
NAME = ox_es1_B_orca0000.inp
|  1> ! engrad PBE0 D3BJ def2-TZVP  
|  2> %pal nprocs 8 end
|  3> %maxcore 3000
|  4> 
|  5> %tddft
|  6>   nroots 1
|  7>   tda true
|  8>   Iroot 1
|  9>   end 
| 10> *xyz 0 1 
| 11> O   -0.22103106658483984 0.823997677270794 0.07163546898886669
| 12> C   -0.7445221848045857 -0.4830499266682506 0.04435814701538693
| 13> C   0.7718689606858707 -0.47884666522086744 0.0007848186057214459
| 14> H   -1.37595717770927 -0.6107690237640091 0.9695735211171339
| 15> H   -1.2161565635943785 -0.7693336510097486 -0.9366800882904048
| 16> H   1.2639287382341742 -0.6479981894214905 -0.9055216229509983
| 17> H   1.3298807796064693 -0.745616087661462 0.9098438537685409
| 18> *
| 19> 
| 20>                          ****END OF INPUT****
================================================================================

                     *******************************
                     * Energy+Gradient Calculation *
                     *******************************

---------------------------------
CARTESIAN COORDINATES (ANGSTROEM)
---------------------------------
  O     -0.221031    0.823998    0.071635
  C     -0.744522   -0.483050    0.044358
  C      0.771869   -0.478847    0.000785
  H     -1.375957   -0.610769    0.969574
  H     -1.216157   -0.769334   -0.936680
  H      1.263929   -0.647998   -0.905522
  H      1.329881   -0.745616    0.909844

----------------------------
CARTESIAN COORDINATES (A.U.)
----------------------------
  NO LB      ZA    FRAG     MASS         X           Y           Z
   0 O     8.0000    0    15.999   -0.417688    1.557130    0.135371
   1 C     6.0000    0    12.011   -1.406943   -0.912832    0.083825
   2 C     6.0000    0    12.011    1.458621   -0.904889    0.001483
   3 H     1.0000    0     1.008   -2.600182   -1.154186    1.832228
   4 H     1.0000    0     1.008   -2.298203   -1.453830   -1.770069
   5 H     1.0000    0     1.008    2.388479   -1.224539   -1.711188
   6 H     1.0000    0     1.008    2.513110   -1.409010    1.719356

--------------------------------
INTERNAL COORDINATES (ANGSTROEM)
--------------------------------
 O      0   0   0     0.000000000000     0.00000000     0.00000000
 C      1   0   0     1.408247294374     0.00000000     0.00000000
 C      2   1   0     1.517022876715    68.06263123     0.00000000
 H      2   1   3     1.127406673078   107.30437556   122.25244845
 H      2   1   3     1.125536928408   114.12475858   253.40196459
 H      3   2   1     1.045048529413   119.67725576   257.31533262
 H      3   2   1     1.099514185545   118.87343445   104.32067162

---------------------------
INTERNAL COORDINATES (A.U.)
---------------------------
 O      0   0   0     0.000000000000     0.00000000     0.00000000
 C      1   0   0     2.661201715203     0.00000000     0.00000000
 C      2   1   0     2.866757775885    68.06263123     0.00000000
 H      2   1   3     2.130489853673   107.30437556   122.25244845
 H      2   1   3     2.126956548307   114.12475858   253.40196459
 H      3   2   1     1.974855517247   119.67725576   257.31533262
 H      3   2   1     2.077780691042   118.87343445   104.32067162

---------------------
BASIS SET INFORMATION
---------------------
There are 3 groups of distinct atoms

 Group   1 Type O   : 11s6p2d1f contracted to 5s3p2d1f pattern {62111/411/11/1}
 Group   2 Type C   : 11s6p2d1f contracted to 5s3p2d1f pattern {62111/411/11/1}
 Group   3 Type H   : 5s1p contracted to 3s1p pattern {311/1}

Atom   0O    basis set group =>   1
Atom   1C    basis set group =>   2
Atom   2C    basis set group =>   2
Atom   3H    basis set group =>   3
Atom   4H    basis set group =>   3
Atom   5H    basis set group =>   3
Atom   6H    basis set group =>   3
---------------------------------
AUXILIARY/J BASIS SET INFORMATION
---------------------------------
There are 3 groups of distinct atoms

 Group   1 Type O   : 12s5p4d2f1g contracted to 6s4p3d1f1g pattern {711111/2111/211/2/1}
 Group   2 Type C   : 12s5p4d2f1g contracted to 6s4p3d1f1g pattern {711111/2111/211/2/1}
 Group   3 Type H   : 5s2p1d contracted to 3s1p1d pattern {311/2/1}

Atom   0O    basis set group =>   1
Atom   1C    basis set group =>   2
Atom   2C    basis set group =>   2
Atom   3H    basis set group =>   3
Atom   4H    basis set group =>   3
Atom   5H    basis set group =>   3
Atom   6H    basis set group =>   3

Checking for AutoStart:
The File: ox_es1_B_orca0000.gbw exists
Trying to determine its content:
     ... Fine, the file contains calculation information
     ... Fine, the calculation information was read
     ... Fine, the file contains a basis set
     ... Fine, the basis set was read
     ... Fine, the file contains a geometry
     ... Fine, the geometry was read
     ... Fine, the file contains a set of orbitals
     ... Fine, the orbitals can be read
     => possible old guess file was deleted
     => GBW file was renamed to GES file
     => GES file is set as startup file
     => Guess is set to MORead
     ... now leaving AutoStart



           ************************************************************
           *        Program running with 8 parallel MPI-processes     *
           *              working on a common directory               *
           ************************************************************
------------------------------------------------------------------------------
                           ORCA GTO INTEGRAL CALCULATION
                           -- RI-GTO INTEGRALS CHOSEN --
------------------------------------------------------------------------------
------------------------------------------------------------------------------
                   ___                                                        
                  /   \      - P O W E R E D   B Y -                         
                 /     \                                                     
                 |  |  |   _    _      __       _____    __    __             
                 |  |  |  | |  | |    /  \     |  _  \  |  |  /  |          
                  \  \/   | |  | |   /    \    | | | |  |  | /  /          
                 / \  \   | |__| |  /  /\  \   | |_| |  |  |/  /          
                |  |  |   |  __  | /  /__\  \  |    /   |      \           
                |  |  |   | |  | | |   __   |  |    \   |  |\   \          
                \     /   | |  | | |  |  |  |  | |\  \  |  | \   \       
                 \___/    |_|  |_| |__|  |__|  |_| \__\ |__|  \__/        
                                                                              
                      - O R C A' S   B I G   F R I E N D -                    
                                      &                                       
                       - I N T E G R A L  F E E D E R -                       
                                                                              
 v1 FN, 2020, v2 2021                                                         
------------------------------------------------------------------------------


Reading SHARK input file ox_es1_B_orca0000.SHARKINP.tmp ... ok
----------------------
SHARK INTEGRAL PACKAGE
----------------------

Number of atoms                             ...      7
Number of basis functions                   ...    117
Number of shells                            ...     49
Maximum angular momentum                    ...      3
Integral batch strategy                     ... SHARK/LIBINT Hybrid
RI-J (if used) integral strategy            ... SPLIT-RIJ (Revised 2003 algorithm where possible)
Printlevel                                  ...      1
Contraction scheme used                     ... SEGMENTED contraction
Coulomb Range Separation                    ... NOT USED
Exchange Range Separation                   ... NOT USED
Finite Nucleus Model                        ... NOT USED
Auxiliary Coulomb fitting basis             ... AVAILABLE
   # of basis functions in Aux-J            ...    191
   # of shells in Aux-J                     ...     65
   Maximum angular momentum in Aux-J        ...      4
Auxiliary J/K fitting basis                 ... NOT available
Auxiliary Correlation fitting basis         ... NOT available
Auxiliary 'external' fitting basis          ... NOT available
Integral threshold                          ...     2.500000e-11
Primitive cut-off                           ...     2.500000e-12
Primitive pair pre-selection threshold      ...     2.500000e-12

Calculating pre-screening integrals         ... done (  0.0 sec) Dimension = 49
Organizing shell pair data                  ... done (  0.0 sec)
Shell pair information
Total number of shell pairs                 ...      1225
Shell pairs after pre-screening             ...      1220
Total number of primitive shell pairs       ...      3648
Primitive shell pairs kept                  ...      3139
          la=0 lb=0:    373 shell pairs
          la=1 lb=0:    351 shell pairs
          la=1 lb=1:     91 shell pairs
          la=2 lb=0:    162 shell pairs
          la=2 lb=1:     78 shell pairs
          la=2 lb=2:     21 shell pairs
          la=3 lb=0:     81 shell pairs
          la=3 lb=1:     39 shell pairs
          la=3 lb=2:     18 shell pairs
          la=3 lb=3:      6 shell pairs

Calculating one electron integrals          ... done (  0.0 sec)
Calculating RI/J V-Matrix + Cholesky decomp.... done (  0.0 sec)
Calculating Nuclear repulsion               ... done (  0.0 sec) ENN=     72.241415273663 Eh

SHARK setup successfully completed in   0.1 seconds

Maximum memory used throughout the entire GTOINT-calculation: 14.9 MB


           ************************************************************
           *        Program running with 8 parallel MPI-processes     *
           *              working on a common directory               *
           ************************************************************
-------------------------------------------------------------------------------
                                 ORCA SCF
-------------------------------------------------------------------------------

------------
SCF SETTINGS
------------
Hamiltonian:
 Density Functional     Method          .... DFT(GTOs)
 Exchange Functional    Exchange        .... PBE
   PBE kappa parameter   XKappa         ....  0.804000
   PBE mue parameter    XMuePBE         ....  0.219520
 Correlation Functional Correlation     .... PBE
   PBE beta parameter  CBetaPBE         ....  0.066725
 LDA part of GGA corr.  LDAOpt          .... PW91-LDA
 Gradients option       PostSCFGGA      .... off
 Hybrid DFT is turned on
   Fraction HF Exchange ScalHFX         ....  0.250000
   Scaling of DF-GGA-X  ScalDFX         ....  0.750000
   Scaling of DF-GGA-C  ScalDFC         ....  1.000000
   Scaling of DF-LDA-C  ScalLDAC        ....  1.000000
   Perturbative correction              ....  0.000000
   Density functional embedding theory  .... OFF
   NL short-range parameter             ....  6.900000
 RI-approximation to the Coulomb term is turned on
   Number of AuxJ basis functions       .... 191
   RIJ-COSX (HFX calculated with COS-X)).... on


General Settings:
 Integral files         IntName         .... ox_es1_B_orca0000
 Hartree-Fock type      HFTyp           .... RHF
 Total Charge           Charge          ....    0
 Multiplicity           Mult            ....    1
 Number of Electrons    NEL             ....   24
 Basis Dimension        Dim             ....  117
 Nuclear Repulsion      ENuc            ....     72.2414152737 Eh

Convergence Acceleration:
 DIIS                   CNVDIIS         .... on
   Start iteration      DIISMaxIt       ....    12
   Startup error        DIISStart       ....  0.200000
   # of expansion vecs  DIISMaxEq       ....     5
   Bias factor          DIISBfac        ....   1.050
   Max. coefficient     DIISMaxC        ....  10.000
 Trust-Rad. Augm. Hess. CNVTRAH         .... auto
   Auto Start mean grad. ratio tolernc. ....  1.125000
   Auto Start start iteration           ....     1
   Auto Start num. interpolation iter.  ....    10
   Max. Number of Micro iterations      ....    16
   Max. Number of Macro iterations      .... Maxiter - #DIIS iter
   Number of Davidson start vectors     ....     2
   Converg. threshold I  (grad. norm)   ....   1.000e-05
   Converg. threshold II (energy diff.) ....   1.000e-08
   Grad. Scal. Fac. for Micro threshold ....   0.100
   Minimum threshold for Micro iter.    ....   0.010
   NR start threshold (gradient norm)   ....   0.001
   Initial trust radius                 ....   0.400
   Minimum AH scaling param. (alpha)    ....   1.000
   Maximum AH scaling param. (alpha)    .... 1000.000
   Orbital update algorithm             .... Taylor
   White noise on init. David. guess    .... on
   Maximum white noise                  ....   0.010
   Quad. conv. algorithm                .... NR
 SOSCF                  CNVSOSCF        .... on
   Start iteration      SOSCFMaxIt      ....   150
   Startup grad/error   SOSCFStart      ....  0.003300
 Level Shifting         CNVShift        .... on
   Level shift para.    LevelShift      ....    0.2500
   Turn off err/grad.   ShiftErr        ....    0.0010
 Zerner damping         CNVZerner       .... off
 Static damping         CNVDamp         .... on
   Fraction old density DampFac         ....    0.7000
   Max. Damping (<1)    DampMax         ....    0.9800
   Min. Damping (>=0)   DampMin         ....    0.0000
   Turn off err/grad.   DampErr         ....    0.1000
 Fernandez-Rico         CNVRico         .... off

SCF Procedure:
 Maximum # iterations   MaxIter         ....   125
 SCF integral mode      SCFMode         .... Direct
   Integral package                     .... SHARK and LIBINT hybrid scheme
 Reset frequency        DirectResetFreq ....    20
 Integral Threshold     Thresh          ....  2.500e-11 Eh
 Primitive CutOff       TCut            ....  2.500e-12 Eh

Convergence Tolerance:
 Convergence Check Mode ConvCheckMode   .... Total+1el-Energy
 Convergence forced     ConvForced      .... 1
 Energy Change          TolE            ....  1.000e-08 Eh
 1-El. energy change                    ....  1.000e-05 Eh
 Orbital Gradient       TolG            ....  1.000e-05
 Orbital Rotation angle TolX            ....  1.000e-05
 DIIS Error             TolErr          ....  5.000e-07


Diagonalization of the overlap matrix:
Smallest eigenvalue                        ... 5.669e-04
Time for diagonalization                   ...    0.001 sec
Threshold for overlap eigenvalues          ... 1.000e-08
Number of eigenvalues below threshold      ... 0
Time for construction of square roots      ...    0.001 sec
Total time needed                          ...    0.003 sec

---------------------
INITIAL GUESS: MOREAD
---------------------
Guess MOs are being read from file: ox_es1_B_orca0000.ges
Input Geometry matches current geometry (good)
Input basis set matches current basis set (good)
MOs were renormalized
MOs were reorthogonalized (Cholesky)
                      ------------------
                      INITIAL GUESS DONE (   0.0 sec)
                      ------------------
-------------------
DFT GRID GENERATION
-------------------

General Integration Accuracy     IntAcc      ... 4.388
Radial Grid Type                 RadialGrid  ... OptM3 with GC (2021)
Angular Grid (max. ang.)         AngularGrid ... 4 (Lebedev-302)
Angular grid pruning method      GridPruning ... 4 (adaptive)
Weight generation scheme         WeightScheme... Becke
Basis function cutoff            BFCut       ... 1.0000e-11
Integration weight cutoff        WCut        ... 1.0000e-14
Angular grids for H and He will be reduced by one unit
Partially contracted basis set               ... off
Rotationally invariant grid construction     ... off

Total number of grid points                  ...    31337
Total number of batches                      ...      493
Average number of points per batch           ...       63
Average number of grid points per atom       ...     4477
Time for grid setup =    0.117 sec

--------------------
COSX GRID GENERATION
--------------------

GRIDX 1
-------
General Integration Accuracy     IntAcc      ... 3.816
Radial Grid Type                 RadialGrid  ... OptM3 with GC (2021)
Angular Grid (max. ang.)         AngularGrid ... 1 (Lebedev-50)
Angular grid pruning method      GridPruning ... 4 (adaptive)
Weight generation scheme         WeightScheme... Becke
Basis function cutoff            BFCut       ... 1.0000e-11
Integration weight cutoff        WCut        ... 1.0000e-14
Angular grids for H and He will be reduced by one unit
Partially contracted basis set               ... on
Rotationally invariant grid construction     ... off

Total number of grid points                  ...     4036
Total number of batches                      ...       68
Average number of points per batch           ...       59
Average number of grid points per atom       ...      577
UseSFitting                                  ... on

GRIDX 2
-------
General Integration Accuracy     IntAcc      ... 4.020
Radial Grid Type                 RadialGrid  ... OptM3 with GC (2021)
Angular Grid (max. ang.)         AngularGrid ... 2 (Lebedev-110)
Angular grid pruning method      GridPruning ... 4 (adaptive)
Weight generation scheme         WeightScheme... Becke
Basis function cutoff            BFCut       ... 1.0000e-11
Integration weight cutoff        WCut        ... 1.0000e-14
Angular grids for H and He will be reduced by one unit
Partially contracted basis set               ... on
Rotationally invariant grid construction     ... off

Total number of grid points                  ...     8733
Total number of batches                      ...      141
Average number of points per batch           ...       61
Average number of grid points per atom       ...     1248
UseSFitting                                  ... on

GRIDX 3
-------
General Integration Accuracy     IntAcc      ... 4.338
Radial Grid Type                 RadialGrid  ... OptM3 with GC (2021)
Angular Grid (max. ang.)         AngularGrid ... 3 (Lebedev-194)
Angular grid pruning method      GridPruning ... 4 (adaptive)
Weight generation scheme         WeightScheme... Becke
Basis function cutoff            BFCut       ... 1.0000e-11
Integration weight cutoff        WCut        ... 1.0000e-14
Angular grids for H and He will be reduced by one unit
Partially contracted basis set               ... on
Rotationally invariant grid construction     ... off

Total number of grid points                  ...    19265
Total number of batches                      ...      304
Average number of points per batch           ...       63
Average number of grid points per atom       ...     2752
UseSFitting                                  ... on

Time for X-Grid setup             =    0.072 sec

--------------
SCF ITERATIONS
--------------
ITER       Energy         Delta-E        Max-DP      RMS-DP      [F,P]     Damp
               ***  Starting incremental Fock matrix formation  ***
                      *** Initiating the SOSCF procedure ***
                      *** Re-Reading the Fockian *** 
                      *** Removing any level shift *** 
ITER      Energy       Delta-E        Grad      Rot      Max-DP    RMS-DP
  0   -153.64610275 -153.6461027488  0.000001  0.000001  0.000002  0.000000
               *** Restarting incremental Fock matrix formation ***
                  ***Gradient check signals convergence***
              ***Rediagonalizing the Fockian in SOSCF/NRSCF***

               *****************************************************
               *                     SUCCESS                       *
               *           SCF CONVERGED AFTER   1 CYCLES          *
               *****************************************************

Old exchange energy                            =     -4.969420597 Eh
New exchange energy                            =     -4.969425922 Eh
Exchange energy change after final integration =     -0.000005325 Eh
Total energy after final integration           =   -153.646108074 Eh
Final COS-X integration done in                =     0.247 sec

----------------
TOTAL SCF ENERGY
----------------

Total Energy       :         -153.64610807 Eh           -4180.92315 eV

Components:
Nuclear Repulsion  :           72.24141527 Eh            1965.78885 eV
Electronic Energy  :         -225.88752335 Eh           -6146.71200 eV
One Electron Energy:         -351.31587188 Eh           -9559.79088 eV
Two Electron Energy:          125.42834854 Eh            3413.07888 eV
Max COSX asymmetry :            0.00000221 Eh               0.00006 eV

Virial components:
Potential Energy   :         -306.29317284 Eh           -8334.66096 eV
Kinetic Energy     :          152.64706476 Eh            4153.73780 eV
Virial Ratio       :            2.00654479


DFT components:
N(Alpha)           :       12.000002106216 electrons
N(Beta)            :       12.000002106216 electrons
N(Total)           :       24.000004212432 electrons
E(X)               :      -14.893684465532 Eh       
E(C)               :       -0.782397890137 Eh       
E(XC)              :      -15.676082355669 Eh       
DFET-embed. en.    :        0.000000000000 Eh       

---------------
SCF CONVERGENCE
---------------

  Last Energy change         ...   -7.3186e-11  Tolerance :   1.0000e-08
  Last MAX-Density change    ...    4.4409e-16  Tolerance :   1.0000e-07
  Last RMS-Density change    ...    1.1984e-17  Tolerance :   5.0000e-09
  Last Orbital Gradient      ...    6.8402e-07  Tolerance :   1.0000e-05
  Last Orbital Rotation      ...    1.2670e-06  Tolerance :   1.0000e-05

             **** THE GBW FILE WAS UPDATED (ox_es1_B_orca0000.gbw) ****
             **** DENSITY ox_es1_B_orca0000.scfp WAS UPDATED ****
             **** ENERGY FILE WAS UPDATED (ox_es1_B_orca0000.en.tmp) ****
             **** THE GBW FILE WAS UPDATED (ox_es1_B_orca0000.gbw) ****
             **** DENSITY ox_es1_B_orca0000.scfp WAS UPDATED ****
----------------
ORBITAL ENERGIES
----------------

  NO   OCC          E(Eh)            E(eV) 
   0   2.0000     -19.222695      -523.0761 
   1   2.0000     -10.290412      -280.0164 
   2   2.0000     -10.286348      -279.9058 
   3   2.0000      -1.058538       -28.8043 
   4   2.0000      -0.715969       -19.4825 
   5   2.0000      -0.640257       -17.4223 
   6   2.0000      -0.515958       -14.0399 
   7   2.0000      -0.488737       -13.2992 
   8   2.0000      -0.413332       -11.2473 
   9   2.0000      -0.393105       -10.6969 
  10   2.0000      -0.323726        -8.8090 
  11   2.0000      -0.283355        -7.7105 
  12   0.0000       0.013982         0.3805 
  13   0.0000       0.063122         1.7176 
  14   0.0000       0.072761         1.9799 
  15   0.0000       0.093956         2.5567 
  16   0.0000       0.108479         2.9519 
  17   0.0000       0.148519         4.0414 
  18   0.0000       0.187884         5.1126 
  19   0.0000       0.198369         5.3979 
  20   0.0000       0.255541         6.9536 
  21   0.0000       0.268000         7.2927 
  22   0.0000       0.281077         7.6485 
  23   0.0000       0.310479         8.4486 
  24   0.0000       0.388835        10.5807 
  25   0.0000       0.395494        10.7619 
  26   0.0000       0.406390        11.0584 
  27   0.0000       0.409969        11.1558 
  28   0.0000       0.443814        12.0768 
  29   0.0000       0.474766        12.9190 
  30   0.0000       0.484440        13.1823 
  31   0.0000       0.510556        13.8929 
  32   0.0000       0.534207        14.5365 
  33   0.0000       0.670971        18.2580 
  34   0.0000       0.697989        18.9933 
  35   0.0000       0.739862        20.1327 
  36   0.0000       0.810471        22.0540 
  37   0.0000       0.848271        23.0826 
  38   0.0000       0.886671        24.1276 
  39   0.0000       0.925961        25.1967 
  40   0.0000       0.983802        26.7706 
  41   0.0000       1.028961        27.9995 
  42   0.0000       1.053150        28.6577 
  43   0.0000       1.081780        29.4367 
  44   0.0000       1.151711        31.3396 
  45   0.0000       1.355603        36.8878 
  46   0.0000       1.452375        39.5211 
  47   0.0000       1.471292        40.0359 
  48   0.0000       1.506231        40.9866 
  49   0.0000       1.513319        41.1795 
  50   0.0000       1.585050        43.1314 
  51   0.0000       1.625445        44.2306 
  52   0.0000       1.642587        44.6971 
  53   0.0000       1.679834        45.7106 
  54   0.0000       1.750834        47.6426 
  55   0.0000       1.793397        48.8008 
  56   0.0000       1.846285        50.2400 
  57   0.0000       1.871330        50.9215 
  58   0.0000       1.925472        52.3948 
  59   0.0000       1.953242        53.1504 
  60   0.0000       2.094824        57.0030 
  61   0.0000       2.095792        57.0294 
  62   0.0000       2.160525        58.7909 
  63   0.0000       2.219047        60.3833 
  64   0.0000       2.260269        61.5050 
  65   0.0000       2.353465        64.0410 
  66   0.0000       2.428689        66.0880 
  67   0.0000       2.458502        66.8992 
  68   0.0000       2.501719        68.0752 
  69   0.0000       2.531011        68.8723 
  70   0.0000       2.567515        69.8656 
  71   0.0000       2.602903        70.8286 
  72   0.0000       2.649888        72.1071 
  73   0.0000       2.710210        73.7486 
  74   0.0000       2.716830        73.9287 
  75   0.0000       2.774487        75.4976 
  76   0.0000       2.858527        77.7845 
  77   0.0000       2.952900        80.3525 
  78   0.0000       2.980980        81.1166 
  79   0.0000       3.037795        82.6626 
  80   0.0000       3.053995        83.1034 
  81   0.0000       3.092008        84.1378 
  82   0.0000       3.133300        85.2614 
  83   0.0000       3.190887        86.8284 
  84   0.0000       3.246710        88.3475 
  85   0.0000       3.270319        88.9899 
  86   0.0000       3.330022        90.6145 
  87   0.0000       3.345788        91.0435 
  88   0.0000       3.501687        95.2857 
  89   0.0000       3.548906        96.5707 
  90   0.0000       3.638600        99.0113 
  91   0.0000       3.651409        99.3599 
  92   0.0000       3.838932       104.4627 
  93   0.0000       3.968256       107.9817 
  94   0.0000       4.010350       109.1272 
  95   0.0000       4.092195       111.3543 
  96   0.0000       4.128719       112.3482 
  97   0.0000       4.215230       114.7022 
  98   0.0000       4.310287       117.2889 
  99   0.0000       4.555997       123.9750 
 100   0.0000       4.617993       125.6620 
 101   0.0000       4.838098       131.6513 
 102   0.0000       5.278543       143.6365 
 103   0.0000       5.322186       144.8240 
 104   0.0000       5.467579       148.7804 
 105   0.0000       5.652682       153.8173 
 106   0.0000       5.743623       156.2919 
 107   0.0000       5.781506       157.3228 
 108   0.0000       5.985237       162.8666 
 109   0.0000       6.517226       177.3427 
 110   0.0000       6.560307       178.5150 
 111   0.0000       6.772564       184.2908 
 112   0.0000       6.948157       189.0690 
 113   0.0000       7.138723       194.2545 
 114   0.0000      22.209666       604.3557 
 115   0.0000      22.267694       605.9348 
 116   0.0000      43.771026      1191.0702 

                    ********************************
                    * MULLIKEN POPULATION ANALYSIS *
                    ********************************

-----------------------
MULLIKEN ATOMIC CHARGES
-----------------------
   0 O :   -0.321149
   1 C :   -0.038351
   2 C :   -0.142831
   3 H :    0.123559
   4 H :    0.102384
   5 H :    0.139838
   6 H :    0.136549
Sum of atomic charges:   -0.0000000

--------------------------------
MULLIKEN REDUCED ORBITAL CHARGES
--------------------------------
  0 O s       :     3.879111  s :     3.879111
      pz      :     1.865223  p :     4.405821
      px      :     1.311096
      py      :     1.229502
      dz2     :     0.004826  d :     0.034517
      dxz     :     0.001670
      dyz     :     0.005569
      dx2y2   :     0.009723
      dxy     :     0.012729
      f0      :     0.000196  f :     0.001700
      f+1     :     0.000147
      f-1     :     0.000399
      f+2     :     0.000092
      f-2     :     0.000124
      f+3     :     0.000378
      f-3     :     0.000364
  1 C s       :     3.228145  s :     3.228145
      pz      :     1.039726  p :     2.673239
      px      :     0.899659
      py      :     0.733854
      dz2     :     0.007081  d :     0.125493
      dxz     :     0.024002
      dyz     :     0.038000
      dx2y2   :     0.030930
      dxy     :     0.025479
      f0      :     0.001663  f :     0.011474
      f+1     :     0.001307
      f-1     :     0.000747
      f+2     :     0.001861
      f-2     :     0.001101
      f+3     :     0.001748
      f-3     :     0.003047
  2 C s       :     3.267127  s :     3.267127
      pz      :     1.044655  p :     2.784685
      px      :     0.927984
      py      :     0.812046
      dz2     :     0.008350  d :     0.082653
      dxz     :     0.021319
      dyz     :     0.016815
      dx2y2   :     0.018011
      dxy     :     0.018158
      f0      :     0.000916  f :     0.008366
      f+1     :     0.001309
      f-1     :     0.000360
      f+2     :     0.000802
      f-2     :     0.001073
      f+3     :     0.001979
      f-3     :     0.001927
  3 H s       :     0.856445  s :     0.856445
      pz      :     0.010092  p :     0.019996
      px      :     0.006631
      py      :     0.003273
  4 H s       :     0.877773  s :     0.877773
      pz      :     0.010923  p :     0.019842
      px      :     0.005315
      py      :     0.003604
  5 H s       :     0.836970  s :     0.836970
      pz      :     0.011709  p :     0.023192
      px      :     0.006915
      py      :     0.004569
  6 H s       :     0.841819  s :     0.841819
      pz      :     0.010515  p :     0.021632
      px      :     0.006721
      py      :     0.004395


                     *******************************
                     * LOEWDIN POPULATION ANALYSIS *
                     *******************************

----------------------
LOEWDIN ATOMIC CHARGES
----------------------
   0 O :    0.040635
   1 C :   -0.350620
   2 C :   -0.163823
   3 H :    0.123109
   4 H :    0.117959
   5 H :    0.108860
   6 H :    0.123880

-------------------------------
LOEWDIN REDUCED ORBITAL CHARGES
-------------------------------
  0 O s       :     3.467688  s :     3.467688
      pz      :     1.771499  p :     4.412822
      px      :     1.295886
      py      :     1.345437
      dz2     :     0.010243  d :     0.074002
      dxz     :     0.004708
      dyz     :     0.012539
      dx2y2   :     0.023907
      dxy     :     0.022606
      f0      :     0.000446  f :     0.004853
      f+1     :     0.000200
      f-1     :     0.000764
      f+2     :     0.000307
      f-2     :     0.000542
      f+3     :     0.001118
      f-3     :     0.001475
  1 C s       :     2.853456  s :     2.853456
      pz      :     1.051132  p :     2.904922
      px      :     1.021273
      py      :     0.832518
      dz2     :     0.057853  d :     0.517211
      dxz     :     0.117406
      dyz     :     0.105186
      dx2y2   :     0.126462
      dxy     :     0.110304
      f0      :     0.010467  f :     0.075031
      f+1     :     0.004988
      f-1     :     0.006806
      f+2     :     0.011852
      f-2     :     0.004774
      f+3     :     0.014212
      f-3     :     0.021931
  2 C s       :     2.865266  s :     2.865266
      pz      :     1.078237  p :     2.923947
      px      :     1.038329
      py      :     0.807381
      dz2     :     0.044740  d :     0.333559
      dxz     :     0.106592
      dyz     :     0.043429
      dx2y2   :     0.068991
      dxy     :     0.069807
      f0      :     0.004936  f :     0.041050
      f+1     :     0.004595
      f-1     :     0.003190
      f+2     :     0.004427
      f-2     :     0.003699
      f+3     :     0.009919
      f-3     :     0.010283
  3 H s       :     0.820679  s :     0.820679
      pz      :     0.029588  p :     0.056213
      px      :     0.017391
      py      :     0.009234
  4 H s       :     0.826191  s :     0.826191
      pz      :     0.031637  p :     0.055850
      px      :     0.014122
      py      :     0.010091
  5 H s       :     0.819471  s :     0.819471
      pz      :     0.037223  p :     0.071669
      px      :     0.020077
      py      :     0.014369
  6 H s       :     0.813627  s :     0.813627
      pz      :     0.031629  p :     0.062493
      px      :     0.018049
      py      :     0.012815


                      *****************************
                      * MAYER POPULATION ANALYSIS *
                      *****************************

  NA   - Mulliken gross atomic population
  ZA   - Total nuclear charge
  QA   - Mulliken gross atomic charge
  VA   - Mayer's total valence
  BVA  - Mayer's bonded valence
  FA   - Mayer's free valence

  ATOM       NA         ZA         QA         VA         BVA        FA
  0 O      8.3211     8.0000    -0.3211     1.9746     1.9746    -0.0000
  1 C      6.0384     6.0000    -0.0384     3.9712     3.9712    -0.0000
  2 C      6.1428     6.0000    -0.1428     3.9335     3.9335     0.0000
  3 H      0.8764     1.0000     0.1236     0.9625     0.9625    -0.0000
  4 H      0.8976     1.0000     0.1024     0.9557     0.9557     0.0000
  5 H      0.8602     1.0000     0.1398     0.9595     0.9595    -0.0000
  6 H      0.8635     1.0000     0.1365     0.9599     0.9599    -0.0000

  Mayer bond orders larger than 0.100000
B(  0-O ,  1-C ) :   1.0010 B(  0-O ,  2-C ) :   0.9569 B(  1-C ,  2-C ) :   1.0597 
B(  1-C ,  3-H ) :   0.9538 B(  1-C ,  4-H ) :   0.9453 B(  2-C ,  5-H ) :   0.9517 
B(  2-C ,  6-H ) :   0.9501 

-------
TIMINGS
-------

Total SCF time: 0 days 0 hours 0 min 0 sec 

Total time                  ....       0.988 sec
Sum of individual times     ....       0.892 sec  ( 90.3%)

Fock matrix formation       ....       0.686 sec  ( 69.4%)
  Split-RI-J                ....       0.112 sec  ( 16.4% of F)
  Chain of spheres X        ....       0.510 sec  ( 74.3% of F)
  XC integration            ....       0.062 sec  (  9.0% of F)
    Basis function eval.    ....       0.017 sec  ( 27.5% of XC)
    Density eval.           ....       0.013 sec  ( 21.5% of XC)
    XC-Functional eval.     ....       0.004 sec  (  5.9% of XC)
    XC-Potential eval.      ....       0.020 sec  ( 32.5% of XC)
Diagonalization             ....       0.002 sec  (  0.2%)
Density matrix formation    ....       0.000 sec  (  0.0%)
Population analysis         ....       0.003 sec  (  0.3%)
Initial guess               ....       0.009 sec  (  0.9%)
Orbital Transformation      ....       0.000 sec  (  0.0%)
Orbital Orthonormalization  ....       0.001 sec  (  0.1%)
DIIS solution               ....       0.001 sec  (  0.1%)
SOSCF solution              ....       0.002 sec  (  0.2%)
Grid generation             ....       0.189 sec  ( 19.1%)

Maximum memory used throughout the entire SCF-calculation: 61.1 MB


           ************************************************************
           *        Program running with 8 parallel MPI-processes     *
           *              working on a common directory               *
           ************************************************************
------------------------------------------------------------------------------
                        ORCA TD-DFT/TDA CALCULATION
------------------------------------------------------------------------------

Input orbitals are from        ... ox_es1_B_orca0000.gbw
CI-vector output               ... ox_es1_B_orca0000.cis
Tamm-Dancoff approximation     ... operative
CIS-Integral strategy          ... AO-integrals
Integral handling              ... AO integral Direct
Max. core memory used          ... 3000 MB
Reference state                ... RHF
Generation of triplets         ... off
Follow IRoot                   ... off
Number of operators            ... 1
Orbital ranges used for CIS calculation:
 Operator 0:  Orbitals   3... 11  to  12...116
XAS localization array:
 Operator 0:  Orbitals  -1... -1

-------------------
XC-INTEGRATION GRID
-------------------

General Integration Accuracy     IntAcc      ... 3.467
Radial Grid Type                 RadialGrid  ... OptM3 with GC (2021)
Angular Grid (max. ang.)         AngularGrid ... 1 (Lebedev-50)
Angular grid pruning method      GridPruning ... 4 (adaptive)
Weight generation scheme         WeightScheme... Becke
Basis function cutoff            BFCut       ... 1.0000e-11
Integration weight cutoff        WCut        ... 1.0000e-14
Angular grids for H and He will be reduced by one unit
Partially contracted basis set               ... off
Rotationally invariant grid construction     ... off

Total number of grid points                  ...     4543
Total number of batches                      ...       75
Average number of points per batch           ...       60
Average number of grid points per atom       ...      649

---------------------
COSX-INTEGRATION GRID
---------------------

General Integration Accuracy     IntAcc      ... 3.067
Radial Grid Type                 RadialGrid  ... OptM3 with GC (2021)
Angular Grid (max. ang.)         AngularGrid ... 1 (Lebedev-50)
Angular grid pruning method      GridPruning ... 4 (adaptive)
Weight generation scheme         WeightScheme... Becke
Basis function cutoff            BFCut       ... 1.0000e-11
Integration weight cutoff        WCut        ... 1.0000e-14
Angular grids for H and He will be reduced by one unit
Partially contracted basis set               ... on
Rotationally invariant grid construction     ... off

Total number of grid points                  ...     2087
Total number of batches                      ...       37
Average number of points per batch           ...       56
Average number of grid points per atom       ...      298

---------------
TD-DFT XC SETUP
---------------

DFT calculation                         ... on
Name of the grid file                   ... ox_es1_B_orca0000.grid_cis.tmp
Exchange functional (TD-DFT)            ... PBE
   PBE kappa parameter  XKappa (TD-DFT) ...  0.804000
   PBE mue parameter   XMuePBE (TD-DFT) ...  0.219520
Correlation functional (TD-DFT)         ... PBE
   PBE beta parameter CBetaPBE (TD-DFT) ...  0.066725
 LDA part of GGA corr.  LDAOpt (TD-DFT) ... PW91-LDA
Hybrid DFT                              ... on
   Exchange mixing (TD-DFT)             ...  0.250
   GGA exch. scaling (TD-DFT)           ...  0.750
   GGA corr. scaling (TD-DFT)           ...  1.000

Building densities             ... done
Calculating rho(r) on the grid ... done
Building xc-kernel on the grid ... done
                    *** TD-DFT CALCULATION INITIALIZED ***

------------------------
DAVIDSON-DIAGONALIZATION
------------------------

Dimension of the eigenvalue problem            ...    945
Number of roots to be determined               ...      1
Maximum size of the expansion space            ...     10
Maximum number of iterations                   ...    100
Convergence tolerance for the residual         ...    2.500e-07
Convergence tolerance for the energies         ...    2.500e-07
Orthogonality tolerance                        ...    1.000e-14
Level Shift                                    ...    0.000e+00
Constructing the preconditioner                ... o.k.
Building the initial guess                     ... o.k.
Number of trial vectors determined             ...     10


                       ****Iteration    0****

   Memory handling for direct AO based CIS:
   Memory per vector needed      ...     1 MB
   Memory needed                 ...     1 MB
   Memory available              ...  3000 MB
   Number of vectors per batch   ...  3000
   Number of batches             ...     1
   Time for densities:            0.000
   Time for RI-J (Direct):        0.807
   Time for K (COSX):             0.071
   Time for XC-Integration:       0.015
   Time for Sigma-Completion:     0.000
   Size of expansion space: 3
   Lowest Energy          :     0.219790462591
   Maximum Energy change  :     0.219790462591 (vector 0)
   Maximum residual norm  :     0.004062469018

                       ****Iteration    1****
   Time for densities:            0.000
   Time for RI-J (Direct):        0.715
   Time for K (COSX):             0.048
   Time for XC-Integration:       0.006
   Time for Sigma-Completion:     0.000
   Size of expansion space: 4
   Lowest Energy          :     0.215977665957
   Maximum Energy change  :     0.003812796634 (vector 0)
   Maximum residual norm  :     0.000216798746

                       ****Iteration    2****
   Time for densities:            0.000
   Time for RI-J (Direct):        0.012
   Time for K (COSX):             0.048
   Time for XC-Integration:       0.006
   Time for Sigma-Completion:     0.000
   Size of expansion space: 5
   Lowest Energy          :     0.215800955352
   Maximum Energy change  :     0.000176710605 (vector 0)
   Maximum residual norm  :     0.000007328853

                       ****Iteration    3****
   Time for densities:            0.000
   Time for RI-J (Direct):        0.012
   Time for K (COSX):             0.048
   Time for XC-Integration:       0.006
   Time for Sigma-Completion:     0.000
   Size of expansion space: 6
   Lowest Energy          :     0.215789338098
   Maximum Energy change  :     0.000011617254 (vector 0)
   Maximum residual norm  :     0.000000972018

                       ****Iteration    4****
   Time for densities:            0.000
   Time for RI-J (Direct):        0.012
   Time for K (COSX):             0.048
   Time for XC-Integration:       0.006
   Time for Sigma-Completion:     0.000
   Size of expansion space: 7
   Lowest Energy          :     0.215788095261
   Maximum Energy change  :     0.000001242836 (vector 0)
   Maximum residual norm  :     0.000000137603

      *** CONVERGENCE OF RESIDUAL NORM REACHED ***

Storing the converged CI vectors               ... ox_es1_B_orca0000.cis1

                 *** DAVIDSON DONE ***

Total time for solving the CIS problem:     1.872sec

------------------------------------
TD-DFT/TDA EXCITED STATES (SINGLETS)
------------------------------------

the weight of the individual excitations are printed if larger than 1.0e-02

STATE  1:  E=   0.215788 au      5.872 eV    47360.0 cm**-1 <S**2> =   0.000000
    11a ->  12a  :     0.971171 (c=  0.98548017)


-----------------------------
TD-DFT/TDA-EXCITATION SPECTRA
-----------------------------

Center of mass = ( -0.1375, -0.0500,  0.0740)
Calculating the Dipole integrals                  ... done
Transforming integrals                            ... done
Calculating the Linear Momentum integrals         ... done
Transforming integrals                            ... done
Calculating angular momentum integrals            ... done
Transforming integrals                            ... done

-----------------------------------------------------------------------------
         ABSORPTION SPECTRUM VIA TRANSITION ELECTRIC DIPOLE MOMENTS
-----------------------------------------------------------------------------
State   Energy    Wavelength  fosc         T2        TX        TY        TZ  
        (cm-1)      (nm)                 (au**2)    (au)      (au)      (au) 
-----------------------------------------------------------------------------
   1   47360.0    211.1   0.004210221   0.02927  -0.05329   0.02898  -0.15996

-----------------------------------------------------------------------------
         ABSORPTION SPECTRUM VIA TRANSITION VELOCITY DIPOLE MOMENTS
-----------------------------------------------------------------------------
State   Energy    Wavelength   fosc        P2         PX        PY        PZ  
        (cm-1)      (nm)                 (au**2)     (au)      (au)      (au) 
-----------------------------------------------------------------------------
   1   47360.0    211.1   0.014805765   0.00479   0.00230  -0.00459   0.06904

-------------------------------------------------------------------
                             CD SPECTRUM
-------------------------------------------------------------------
State  Energy     Wavelength     R         MX        MY        MZ   
       (cm-1)       (nm)     (1e40*cgs)   (au)      (au)      (au)  
-------------------------------------------------------------------
   1   47360.0    211.1      4.88629  -0.06435   0.20812  -0.00566

-------------------------------------------------------------------
         CD SPECTRUM VIA TRANSITION VELOCITY DIPOLE MOMENTS        
-------------------------------------------------------------------
State  Energy     Wavelength     R         MX        MY        MZ   
       (cm-1)       (nm)     (1e40*cgs)   (au)      (au)      (au)  
-------------------------------------------------------------------
   1   47360.0    211.1     -3.26236  -0.06435   0.20812  -0.00566

Total run time:        2.240 sec

           *** ORCA-CIS/TD-DFT FINISHED WITHOUT ERROR ***

Maximum memory used throughout the entire CIS-calculation: 49.4 MB

-----------------------
CIS/TD-DFT TOTAL ENERGY
-----------------------

    E(SCF)  =   -153.646108074 Eh
    DE(CIS) =      0.215788095 Eh (Root  1)
    ----------------------------- ---------
    E(tot)  =   -153.430319978 Eh



-------------------------------------------------------------------------------
                          DFT DISPERSION CORRECTION                            
                                                                               
                              DFTD3 V3.1  Rev 1                                
                          USING Becke-Johnson damping                          
-------------------------------------------------------------------------------
The PBE0 functional is recognized
Active option DFTDOPT                   ...         4   

molecular C6(AA) [au] = 352.215552 


            DFT-D V3
 parameters
 s6 scaling factor         :     1.0000 
 a1 scaling factor         :     0.4145 
 s8 scaling factor         :     1.2177 
 a2 scaling factor         :     4.8593 
 ad hoc parameters k1-k3   :    16.0000     1.3333    -4.0000 

 Edisp/kcal,au: -1.503918152480  -0.002396645874 
 E6   /kcal   :  -0.984934850 
 E8   /kcal   :  -0.518983302 
 % E8         :  34.508746461 

-------------------------   ----------------
Dispersion correction           -0.002396646
-------------------------   ----------------


-------------------------   --------------------
FINAL SINGLE POINT ENERGY      -153.432716624160
-------------------------   --------------------



           ************************************************************
           *        Program running with 8 parallel MPI-processes     *
           *              working on a common directory               *
           ************************************************************
------------------------------------------------------------------------------
                         ORCA SCF GRADIENT CALCULATION
------------------------------------------------------------------------------


------------------------
TD-DFT GRADIENT XC SETUP
------------------------

Building densities                     ... done
Calculating rho(r) on the grid         ... done
Building xc-kernel on the grid         ... done
Building xc 3rd derivative on the grid      ... done
                *** TD-DFT GRADIENT CALCULATION INITIALIZED ***

-------------------
TD-DFT/TDA GRADIENT
-------------------

Reference wavefunction             ... RHF
State of interest                  ... 1
Basis dimension                    ... 117
DFT-XC contribution needed         ... YES
RI-approximation                   ... ON
CIS-vectors being read from        ... ox_es1_B_orca0000.cis

 => Number of Vectors found: 1
 => Orbital Window: 3...11 -> 12...116

Reading the CIS file                     ... done
Norm of the CI vector                    ... 1.000000000
Making the CIS (pseudo)densities         ... done
Making operators G(D) and Q(T)           ... done
Transforming the Fock operators          ... done
Making the frozen-core relaxed density   ... done
Constructing the G(H) operator           ... done
Transforming the G(H) operator           ... done
Calculating the CIS Lagrangian           ... done
Solving the Z-vector equations           ... done
Finalizing the relaxed density           ... done
Storing the relaxed density              ... done
Constructing the G(Z) operator           ... done
Transforming the G(Z) operator           ... done
Making the W-matrix                      ... done
Finalizing the W-matrix                  ... done
Transforming the W-matrix                ... done
Nuclear repulsion gradient               ... done
One-Electron gradient                    ... done
Dispersion correction                    ... done
Prescreening matrices                    ... done
COSX-gradient                            ... done
Coulomb gradient (RI)                    ... done
Exchange-Correlation gradient            ... done

                 ---------------------------
                 EXCITED STATE GRADIENT DONE
                 ---------------------------

------------------
CARTESIAN GRADIENT
------------------

   1   O   :    0.101881820   -0.102747958   -0.000074194
   2   C   :   -0.056507925   -0.016128572    0.006429423
   3   C   :   -0.033908581    0.124437418   -0.042274530
   4   H   :   -0.009524823    0.004863760    0.019069474
   5   H   :    0.003058963   -0.009316163   -0.018687016
   6   H   :   -0.009088373    0.004780166    0.026606080
   7   H   :    0.004157810   -0.005839342    0.008949538

Difference to translation invariance:
           :    0.0000688907    0.0000493086    0.0000187756

Difference to rotation invariance:
           :    0.0001315472    0.0001149370   -0.0001040614

Norm of the cartesian gradient     ...    0.2114744761
RMS gradient                       ...    0.0461475140
MAX gradient                       ...    0.1244374183

------------------------------------------------------------------------------
                  RELAXED CIS/TDA DENSITY POPULATION ANALYSIS
                                   IROOT 1
------------------------------------------------------------------------------
------------------------------------------------------------------------------
                           ORCA POPULATION ANALYSIS
------------------------------------------------------------------------------
Input electron density              ... ox_es1_B_orca0000.cisp
BaseName (.gbw .S,...)              ... ox_es1_B_orca0000

                    ********************************
                    * MULLIKEN POPULATION ANALYSIS *
                    ********************************

-----------------------
MULLIKEN ATOMIC CHARGES
-----------------------
   0 O :    0.004504
   1 C :   -0.088388
   2 C :   -0.530152
   3 H :    0.164935
   4 H :    0.161972
   5 H :    0.149126
   6 H :    0.138002
Sum of atomic charges:   -0.0000000

--------------------------------
MULLIKEN REDUCED ORBITAL CHARGES
--------------------------------
  0 O s       :     3.818362  s :     3.818362
      pz      :     1.092411  p :     4.143651
      px      :     1.646379
      py      :     1.404862
      dz2     :     0.003310  d :     0.032363
      dxz     :     0.001859
      dyz     :     0.005706
      dx2y2   :     0.009173
      dxy     :     0.012315
      f0      :     0.000041  f :     0.001120
      f+1     :    -0.000069
      f-1     :     0.000116
      f+2     :     0.000108
      f-2     :     0.000123
      f+3     :     0.000448
      f-3     :     0.000354
  1 C s       :     3.238042  s :     3.238042
      pz      :     1.014327  p :     2.739391
      px      :     0.988771
      py      :     0.736293
      dz2     :     0.006934  d :     0.100340
      dxz     :     0.021797
      dyz     :     0.016183
      dx2y2   :     0.029952
      dxy     :     0.025473
      f0      :     0.000936  f :     0.010615
      f+1     :     0.001391
      f-1     :     0.000592
      f+2     :     0.001089
      f-2     :     0.000767
      f+3     :     0.002849
      f-3     :     0.002991
  2 C s       :     3.319388  s :     3.319388
      pz      :     1.061053  p :     3.129015
      px      :     0.846521
      py      :     1.221441
      dz2     :     0.008723  d :     0.073779
      dxz     :     0.011256
      dyz     :     0.003359
      dx2y2   :     0.022274
      dxy     :     0.028167
      f0      :     0.000638  f :     0.007970
      f+1     :     0.001158
      f-1     :     0.000687
      f+2     :     0.000672
      f-2     :     0.000614
      f+3     :     0.002613
      f-3     :     0.001588
  3 H s       :     0.814388  s :     0.814388
      pz      :     0.010506  p :     0.020677
      px      :     0.007029
      py      :     0.003142
  4 H s       :     0.817269  s :     0.817269
      pz      :     0.011212  p :     0.020759
      px      :     0.005805
      py      :     0.003742
  5 H s       :     0.823893  s :     0.823893
      pz      :     0.010485  p :     0.026981
      px      :     0.006690
      py      :     0.009806
  6 H s       :     0.836920  s :     0.836920
      pz      :     0.009404  p :     0.025077
      px      :     0.006512
      py      :     0.009161


                     *******************************
                     * LOEWDIN POPULATION ANALYSIS *
                     *******************************

----------------------
LOEWDIN ATOMIC CHARGES
----------------------
   0 O :    0.261784
   1 C :   -0.327162
   2 C :   -0.464681
   3 H :    0.154785
   4 H :    0.160548
   5 H :    0.101250
   6 H :    0.113476

-------------------------------
LOEWDIN REDUCED ORBITAL CHARGES
-------------------------------
  0 O s       :     3.510243  s :     3.510243
      pz      :     1.048217  p :     4.131223
      px      :     1.599768
      py      :     1.483237
      dz2     :     0.012691  d :     0.091902
      dxz     :     0.005053
      dyz     :     0.012236
      dx2y2   :     0.024069
      dxy     :     0.037852
      f0      :     0.000452  f :     0.004849
      f+1     :     0.000142
      f-1     :     0.000603
      f+2     :     0.000275
      f-2     :     0.000523
      f+3     :     0.001408
      f-3     :     0.001446
  1 C s       :     2.857639  s :     2.857639
      pz      :     1.013999  p :     2.948889
      px      :     1.082990
      py      :     0.851900
      dz2     :     0.057217  d :     0.445877
      dxz     :     0.104438
      dyz     :     0.049351
      dx2y2   :     0.127473
      dxy     :     0.107397
      f0      :     0.006701  f :     0.074757
      f+1     :     0.005088
      f-1     :     0.006915
      f+2     :     0.007743
      f-2     :     0.003354
      f+3     :     0.023307
      f-3     :     0.021650
  2 C s       :     2.887297  s :     2.887297
      pz      :     1.077984  p :     3.137751
      px      :     0.993654
      py      :     1.066114
      dz2     :     0.055697  d :     0.390158
      dxz     :     0.092348
      dyz     :     0.018375
      dx2y2   :     0.087876
      dxy     :     0.135862
      f0      :     0.004226  f :     0.049475
      f+1     :     0.005599
      f-1     :     0.005876
      f+2     :     0.003448
      f-2     :     0.002595
      f+3     :     0.017452
      f-3     :     0.010280
  3 H s       :     0.787631  s :     0.787631
      pz      :     0.030125  p :     0.057584
      px      :     0.018552
      py      :     0.008907
  4 H s       :     0.781503  s :     0.781503
      pz      :     0.031995  p :     0.057949
      px      :     0.015695
      py      :     0.010259
  5 H s       :     0.816637  s :     0.816637
      pz      :     0.034417  p :     0.082113
      px      :     0.019707
      py      :     0.027989
  6 H s       :     0.815017  s :     0.815017
      pz      :     0.028882  p :     0.071506
      px      :     0.017682
      py      :     0.024942


                      *****************************
                      * MAYER POPULATION ANALYSIS *
                      *****************************

  NA   - Mulliken gross atomic population
  ZA   - Total nuclear charge
  QA   - Mulliken gross atomic charge
  VA   - Mayer's total valence
  BVA  - Mayer's bonded valence
  FA   - Mayer's free valence

  ATOM       NA         ZA         QA         VA         BVA        FA
  0 O      7.9955     8.0000     0.0045     1.8798     1.0754     0.8044
  1 C      6.0884     6.0000    -0.0884     3.9019     3.8130     0.0889
  2 C      6.5302     6.0000    -0.5302     3.9170     3.0761     0.8409
  3 H      0.8351     1.0000     0.1649     0.9578     0.9158     0.0420
  4 H      0.8380     1.0000     0.1620     0.9601     0.9043     0.0558
  5 H      0.8509     1.0000     0.1491     0.9853     0.9646     0.0207
  6 H      0.8620     1.0000     0.1380     0.9867     0.9663     0.0203

  Mayer bond orders larger than 0.100000
B(  0-O ,  1-C ) :   0.9747 B(  1-C ,  2-C ) :   1.0619 B(  1-C ,  3-H ) :   0.8951 
B(  1-C ,  4-H ) :   0.8886 B(  2-C ,  5-H ) :   0.9586 B(  2-C ,  6-H ) :   0.9597 



-------
TIMINGS
-------

Total TD-DFT gradient time         ...        5.074 sec

Fock matrix formation       ....       0.824 sec  ( 16.2%)
  Coulomb formation         ....       0.669 sec  ( 81.2% of F)
  RI-J                      ....       0.299 sec  ( 36.3% of F)
  Chain of spheres X        ....       0.369 sec  ( 44.8% of F)
  XC integration            ....       0.155 sec  ( 18.8% of F)
Z-vector equation           ....       1.381 sec  ( 27.2%)
One electron gradient       ....       0.033 sec  (  0.7%)
Prescreening matrices       ....       0.154 sec  (  3.0%)
RI-J Coulomb gradient       ....       0.262 sec  (  5.2%)
COSX gradient               ....       0.331 sec  (  6.5%)
XC gradient                 ....       1.655 sec  ( 32.6%)

Maximum memory used throughout the entire SCFGRAD-calculation: 130.3 MB

                            ***************************************
                            *     ORCA property calculations      *
                            ***************************************

                                    ---------------------
                                    Active property flags
                                    ---------------------
   (+) Dipole Moment


------------------------------------------------------------------------------
                       ORCA ELECTRIC PROPERTIES CALCULATION
------------------------------------------------------------------------------

Dipole Moment Calculation                       ... on
Quadrupole Moment Calculation                   ... off
Polarizability Calculation                      ... off
GBWName                                         ... ox_es1_B_orca0000.gbw
Electron density                                ... ox_es1_B_orca0000.scfp
The origin for moment calculation is the CENTER OF MASS  = (-0.137531, -0.050022  0.074032)

-------------
DIPOLE MOMENT
-------------
                                X             Y             Z
Electronic contribution:     -0.11126       1.63059       0.07422
Nuclear contribution   :      0.27251      -2.49032      -0.11162
                        -----------------------------------------
Total Dipole Moment    :      0.16126      -0.85973      -0.03740
                        -----------------------------------------
Magnitude (a.u.)       :      0.87552
Magnitude (Debye)      :      2.22539



--------------------
Rotational spectrum 
--------------------
 
Rotational constants in cm-1:     0.852173     0.630751     0.426208 
Rotational constants in MHz : 25547.500545 18909.440037 12777.407593 

 Dipole components along the rotational axes: 
x,y,z [a.u.] :    -0.605806    -0.632057     0.006245 
x,y,z [Debye]:    -1.539835    -1.606561     0.015873 

 

                        *** CIS RELAXED DENSITY ***

------------------------------------------------------------------------------
                       ORCA ELECTRIC PROPERTIES CALCULATION
------------------------------------------------------------------------------

Dipole Moment Calculation                       ... on
Quadrupole Moment Calculation                   ... off
Polarizability Calculation                      ... off
GBWName                                         ... ox_es1_B_orca0000.gbw
Electron density                                ... ox_es1_B_orca0000.cisp
The origin for moment calculation is the CENTER OF MASS  = (-0.137531, -0.050022  0.074032)

-------------
DIPOLE MOMENT
-------------
                                X             Y             Z
Electronic contribution:     -0.97403       2.19098       0.08279
Nuclear contribution   :      0.27251      -2.49032      -0.11162
                        -----------------------------------------
Total Dipole Moment    :     -0.70151      -0.29934      -0.02883
                        -----------------------------------------
Magnitude (a.u.)       :      0.76325
Magnitude (Debye)      :      1.94003



--------------------
Rotational spectrum 
--------------------
 
Rotational constants in cm-1:     0.852173     0.630751     0.426208 
Rotational constants in MHz : 25547.500545 18909.440037 12777.407593 

 Dipole components along the rotational axes: 
x,y,z [a.u.] :     0.422180    -0.634885    -0.035196 
x,y,z [Debye]:     1.073097    -1.613748    -0.089462 

 

Timings for individual modules:

Sum of individual times         ...        9.168 sec (=   0.153 min)
GTO integral calculation        ...        0.253 sec (=   0.004 min)   2.8 %
SCF iterations                  ...        1.151 sec (=   0.019 min)  12.6 %
CIS module                      ...        2.497 sec (=   0.042 min)  27.2 %
SCF Gradient evaluation         ...        5.266 sec (=   0.088 min)  57.4 %
                             ****ORCA TERMINATED NORMALLY****
TOTAL RUN TIME: 0 days 0 hours 0 minutes 9 seconds 567 msec
