
                                 *****************
                                 * O   R   C   A *
                                 *****************

                                            #,                                       
                                            ###                                      
                                            ####                                     
                                            #####                                    
                                            ######                                   
                                           ########,                                 
                                     ,,################,,,,,                         
                               ,,#################################,,                 
                          ,,##########################################,,             
                       ,#########################################, ''#####,          
                    ,#############################################,,   '####,        
                  ,##################################################,,,,####,       
                ,###########''''           ''''###############################       
              ,#####''   ,,,,##########,,,,          '''####'''          '####       
            ,##' ,,,,###########################,,,                        '##       
           ' ,,###''''                  '''############,,,                           
         ,,##''                                '''############,,,,        ,,,,,,###''
      ,#''                                            '''#######################'''  
     '                                                          ''''####''''         
             ,#######,   #######,   ,#######,      ##                                
            ,#'     '#,  ##    ##  ,#'     '#,    #''#        ######   ,####,        
            ##       ##  ##   ,#'  ##            #'  '#       #        #'  '#        
            ##       ##  #######   ##           ,######,      #####,   #    #        
            '#,     ,#'  ##    ##  '#,     ,#' ,#      #,         ##   #,  ,#        
             '#######'   ##     ##  '#######'  #'      '#     #####' # '####'        



                  #######################################################
                  #                        -***-                        #
                  #          Department of theory and spectroscopy      #
                  #    Directorship and core code : Frank Neese         #
                  #        Max Planck Institute fuer Kohlenforschung    #
                  #                Kaiser Wilhelm Platz 1               #
                  #                 D-45470 Muelheim/Ruhr               #
                  #                      Germany                        #
                  #                                                     #
                  #                  All rights reserved                #
                  #                        -***-                        #
                  #######################################################


                         Program Version 5.0.2 -  RELEASE  -


 With contributions from (in alphabetic order):
   Daniel Aravena         : Magnetic Suceptibility
   Michael Atanasov       : Ab Initio Ligand Field Theory (pilot matlab implementation)
   Alexander A. Auer      : GIAO ZORA, VPT2 properties, NMR spectrum
   Ute Becker             : Parallelization
   Giovanni Bistoni       : ED, misc. LED, open-shell LED, HFLD
   Martin Brehm           : Molecular dynamics
   Dmytro Bykov           : SCF Hessian
   Vijay G. Chilkuri      : MRCI spin determinant printing, contributions to CSF-ICE
   Dipayan Datta          : RHF DLPNO-CCSD density
   Achintya Kumar Dutta   : EOM-CC, STEOM-CC
   Dmitry Ganyushin       : Spin-Orbit,Spin-Spin,Magnetic field MRCI
   Miquel Garcia          : C-PCM and meta-GGA Hessian, CC/C-PCM, Gaussian charge scheme
   Yang Guo               : DLPNO-NEVPT2, F12-NEVPT2, CIM, IAO-localization
   Andreas Hansen         : Spin unrestricted coupled pair/coupled cluster methods
   Benjamin Helmich-Paris : MC-RPA, TRAH-SCF, COSX integrals
   Lee Huntington         : MR-EOM, pCC
   Robert Izsak           : Overlap fitted RIJCOSX, COSX-SCS-MP3, EOM
   Marcus Kettner         : VPT2
   Christian Kollmar      : KDIIS, OOCD, Brueckner-CCSD(T), CCSD density, CASPT2, CASPT2-K
   Simone Kossmann        : Meta GGA functionals, TD-DFT gradient, OOMP2, MP2 Hessian
   Martin Krupicka        : Initial AUTO-CI
   Lucas Lang             : DCDCAS
   Marvin Lechner         : AUTO-CI (C++ implementation), FIC-MRCC
   Dagmar Lenk            : GEPOL surface, SMD
   Dimitrios Liakos       : Extrapolation schemes; Compound Job, initial MDCI parallelization
   Dimitrios Manganas     : Further ROCIS development; embedding schemes
   Dimitrios Pantazis     : SARC Basis sets
   Anastasios Papadopoulos: AUTO-CI, single reference methods and gradients
   Taras Petrenko         : DFT Hessian,TD-DFT gradient, ASA, ECA, R-Raman, ABS, FL, XAS/XES, NRVS
   Peter Pinski           : DLPNO-MP2, DLPNO-MP2 Gradient
   Christoph Reimann      : Effective Core Potentials
   Marius Retegan         : Local ZFS, SOC
   Christoph Riplinger    : Optimizer, TS searches, QM/MM, DLPNO-CCSD(T), (RO)-DLPNO pert. Triples
   Tobias Risthaus        : Range-separated hybrids, TD-DFT gradient, RPA, STAB
   Michael Roemelt        : Original ROCIS implementation
   Masaaki Saitow         : Open-shell DLPNO-CCSD energy and density
   Barbara Sandhoefer     : DKH picture change effects
   Avijit Sen             : IP-ROCIS
   Kantharuban Sivalingam : CASSCF convergence, NEVPT2, FIC-MRCI
   Bernardo de Souza      : ESD, SOC TD-DFT
   Georgi Stoychev        : AutoAux, RI-MP2 NMR, DLPNO-MP2 response
   Willem Van den Heuvel  : Paramagnetic NMR
   Boris Wezisla          : Elementary symmetry handling
   Frank Wennmohs         : Technical directorship


 We gratefully acknowledge several colleagues who have allowed us to
 interface, adapt or use parts of their codes:
   Stefan Grimme, W. Hujo, H. Kruse, P. Pracht,  : VdW corrections, initial TS optimization,
                  C. Bannwarth, S. Ehlert          DFT functionals, gCP, sTDA/sTD-DF
   Ed Valeev, F. Pavosevic, A. Kumar             : LibInt (2-el integral package), F12 methods
   Garnet Chan, S. Sharma, J. Yang, R. Olivares  : DMRG
   Ulf Ekstrom                                   : XCFun DFT Library
   Mihaly Kallay                                 : mrcc  (arbitrary order and MRCC methods)
   Jiri Pittner, Ondrej Demel                    : Mk-CCSD
   Frank Weinhold                                : gennbo (NPA and NBO analysis)
   Christopher J. Cramer and Donald G. Truhlar   : smd solvation model
   Lars Goerigk                                  : TD-DFT with DH, B97 family of functionals
   V. Asgeirsson, H. Jonsson                     : NEB implementation
   FAccTs GmbH                                   : IRC, NEB, NEB-TS, DLPNO-Multilevel, CI-OPT
                                                   MM, QMMM, 2- and 3-layer-ONIOM, Crystal-QMMM,
                                                   LR-CPCM, SF, NACMEs, symmetry and pop. for TD-DFT,
                                                   nearIR, NL-DFT gradient (VV10), updates on ESD,
                                                   ML-optimized integration grids
   S Lehtola, MJT Oliveira, MAL Marques          : LibXC Library
   Liviu Ungur et al                             : ANISO software


 Your calculation uses the libint2 library for the computation of 2-el integrals
 For citations please refer to: http://libint.valeyev.net

 Your ORCA version has been built with support for libXC version: 5.1.0
 For citations please refer to: https://tddft.org/programs/libxc/

 This ORCA versions uses:
   CBLAS   interface :  Fast vector & matrix operations
   LAPACKE interface :  Fast linear algebra routines
   SCALAPACK package :  Parallel linear algebra routines
   Shared memory     :  Shared parallel matrices
   BLAS/LAPACK       :  OpenBLAS 0.3.15  USE64BITINT DYNAMIC_ARCH NO_AFFINITY SkylakeX SINGLE_THREADED
        Core in use  :  SkylakeX
   Copyright (c) 2011-2014, The OpenBLAS Project


Your calculation utilizes the atom-pairwise dispersion correction
with the Becke-Johnson damping scheme (D3BJ)
Cite in your paper:
S.Grimme, S.Ehrlich, L.Goerigk, J Comput Chem, (2011), 32, 1456–1465 
S.Grimme, J.Antony, S.Ehrlich and H.Krieg, J.Chem.Phys., 132, (2010), 154104 
   

================================================================================

----- Orbital basis set information -----
Your calculation utilizes the basis: def2-TZVP
   F. Weigend and R. Ahlrichs, Phys. Chem. Chem. Phys. 7, 3297 (2005).

----- AuxJ basis set information -----
Your calculation utilizes the auxiliary basis: def2/J
   F. Weigend, Phys. Chem. Chem. Phys. 8, 1057 (2006).

================================================================================
                                        WARNINGS
                       Please study these warnings very carefully!
================================================================================

INFO   : Checking CIS options ...

WARNING: CIS/ROCIS methods need fully converged wavefunctions
  ===> : Setting SCFConvForced true
         You can overwrite this default with %scf ConvForced false 


INFO   : the flag for use of the SHARK integral package has been found!

================================================================================
                                       INPUT FILE
================================================================================
NAME = ox_es1_A_orca0046.inp
|  1> ! engrad PBE0 D3BJ def2-TZVP  
|  2> %pal nprocs 8 end
|  3> %maxcore 3000
|  4> 
|  5> %tddft
|  6>   nroots 1
|  7>   tda true
|  8>   Iroot 1
|  9>   end 
| 10> *xyz 0 1 
| 11> O   -0.03381956510296349 0.8569713316455408 -0.0020077875322171705
| 12> C   -0.8004283451059024 -0.44061526925446054 -0.03405258287374404
| 13> C   0.7709217174494362 -0.47965168896511956 -0.022309171660738987
| 14> H   -1.3582999665472764 -0.6908861259624538 0.7987822536685522
| 15> H   -1.3430179111742861 -0.6302501771927852 -0.8806862120674583
| 16> H   1.285095698089248 -0.7166196671564606 -0.922361787807099
| 17> H   1.2636427430454715 -0.7261890444596272 0.9951460850883576
| 18> *
| 19> 
| 20>                          ****END OF INPUT****
================================================================================

                     *******************************
                     * Energy+Gradient Calculation *
                     *******************************

---------------------------------
CARTESIAN COORDINATES (ANGSTROEM)
---------------------------------
  O     -0.033820    0.856971   -0.002008
  C     -0.800428   -0.440615   -0.034053
  C      0.770922   -0.479652   -0.022309
  H     -1.358300   -0.690886    0.798782
  H     -1.343018   -0.630250   -0.880686
  H      1.285096   -0.716620   -0.922362
  H      1.263643   -0.726189    0.995146

----------------------------
CARTESIAN COORDINATES (A.U.)
----------------------------
  NO LB      ZA    FRAG     MASS         X           Y           Z
   0 O     8.0000    0    15.999   -0.063910    1.619441   -0.003794
   1 C     6.0000    0    12.011   -1.512590   -0.832642   -0.064350
   2 C     6.0000    0    12.011    1.456831   -0.906410   -0.042158
   3 H     1.0000    0     1.008   -2.566815   -1.305586    1.509480
   4 H     1.0000    0     1.008   -2.537936   -1.191000   -1.664256
   5 H     1.0000    0     1.008    2.428479   -1.354215   -1.743011
   6 H     1.0000    0     1.008    2.387939   -1.372298    1.880554

--------------------------------
INTERNAL COORDINATES (ANGSTROEM)
--------------------------------
 O      0   0   0     0.000000000000     0.00000000     0.00000000
 C      1   0   0     1.507463723385     0.00000000     0.00000000
 C      1   2   0     1.560314640471    61.61692362     0.00000000
 H      2   1   3     1.033184452402   117.77246182   112.90463804
 H      2   1   3     1.023305104843   116.53524902   246.30417390
 H      3   1   2     1.063307771479   116.82854410   108.61668303
 H      3   1   2     1.157052235729   112.99904115   252.94109155

---------------------------
INTERNAL COORDINATES (A.U.)
---------------------------
 O      0   0   0     0.000000000000     0.00000000     0.00000000
 C      1   0   0     2.848693594019     0.00000000     0.00000000
 C      1   2   0     2.948567353238    61.61692362     0.00000000
 H      2   1   3     1.952435660865   117.77246182   112.90463804
 H      2   1   3     1.933766399596   116.53524902   246.30417390
 H      3   1   2     2.009360484165   116.82854410   108.61668303
 H      3   1   2     2.186511848169   112.99904115   252.94109155

---------------------
BASIS SET INFORMATION
---------------------
There are 3 groups of distinct atoms

 Group   1 Type O   : 11s6p2d1f contracted to 5s3p2d1f pattern {62111/411/11/1}
 Group   2 Type C   : 11s6p2d1f contracted to 5s3p2d1f pattern {62111/411/11/1}
 Group   3 Type H   : 5s1p contracted to 3s1p pattern {311/1}

Atom   0O    basis set group =>   1
Atom   1C    basis set group =>   2
Atom   2C    basis set group =>   2
Atom   3H    basis set group =>   3
Atom   4H    basis set group =>   3
Atom   5H    basis set group =>   3
Atom   6H    basis set group =>   3
---------------------------------
AUXILIARY/J BASIS SET INFORMATION
---------------------------------
There are 3 groups of distinct atoms

 Group   1 Type O   : 12s5p4d2f1g contracted to 6s4p3d1f1g pattern {711111/2111/211/2/1}
 Group   2 Type C   : 12s5p4d2f1g contracted to 6s4p3d1f1g pattern {711111/2111/211/2/1}
 Group   3 Type H   : 5s2p1d contracted to 3s1p1d pattern {311/2/1}

Atom   0O    basis set group =>   1
Atom   1C    basis set group =>   2
Atom   2C    basis set group =>   2
Atom   3H    basis set group =>   3
Atom   4H    basis set group =>   3
Atom   5H    basis set group =>   3
Atom   6H    basis set group =>   3

Checking for AutoStart:
The File: ox_es1_A_orca0046.gbw exists
Trying to determine its content:
     ... Fine, the file contains calculation information
     ... Fine, the calculation information was read
     ... Fine, the file contains a basis set
     ... Fine, the basis set was read
     ... Fine, the file contains a geometry
     ... Fine, the geometry was read
     ... Fine, the file contains a set of orbitals
     ... Fine, the orbitals can be read
     => possible old guess file was deleted
     => GBW file was renamed to GES file
     => GES file is set as startup file
     => Guess is set to MORead
     ... now leaving AutoStart



           ************************************************************
           *        Program running with 8 parallel MPI-processes     *
           *              working on a common directory               *
           ************************************************************
------------------------------------------------------------------------------
                           ORCA GTO INTEGRAL CALCULATION
                           -- RI-GTO INTEGRALS CHOSEN --
------------------------------------------------------------------------------
------------------------------------------------------------------------------
                   ___                                                        
                  /   \      - P O W E R E D   B Y -                         
                 /     \                                                     
                 |  |  |   _    _      __       _____    __    __             
                 |  |  |  | |  | |    /  \     |  _  \  |  |  /  |          
                  \  \/   | |  | |   /    \    | | | |  |  | /  /          
                 / \  \   | |__| |  /  /\  \   | |_| |  |  |/  /          
                |  |  |   |  __  | /  /__\  \  |    /   |      \           
                |  |  |   | |  | | |   __   |  |    \   |  |\   \          
                \     /   | |  | | |  |  |  |  | |\  \  |  | \   \       
                 \___/    |_|  |_| |__|  |__|  |_| \__\ |__|  \__/        
                                                                              
                      - O R C A' S   B I G   F R I E N D -                    
                                      &                                       
                       - I N T E G R A L  F E E D E R -                       
                                                                              
 v1 FN, 2020, v2 2021                                                         
------------------------------------------------------------------------------


Reading SHARK input file ox_es1_A_orca0046.SHARKINP.tmp ... ok
----------------------
SHARK INTEGRAL PACKAGE
----------------------

Number of atoms                             ...      7
Number of basis functions                   ...    117
Number of shells                            ...     49
Maximum angular momentum                    ...      3
Integral batch strategy                     ... SHARK/LIBINT Hybrid
RI-J (if used) integral strategy            ... SPLIT-RIJ (Revised 2003 algorithm where possible)
Printlevel                                  ...      1
Contraction scheme used                     ... SEGMENTED contraction
Coulomb Range Separation                    ... NOT USED
Exchange Range Separation                   ... NOT USED
Finite Nucleus Model                        ... NOT USED
Auxiliary Coulomb fitting basis             ... AVAILABLE
   # of basis functions in Aux-J            ...    191
   # of shells in Aux-J                     ...     65
   Maximum angular momentum in Aux-J        ...      4
Auxiliary J/K fitting basis                 ... NOT available
Auxiliary Correlation fitting basis         ... NOT available
Auxiliary 'external' fitting basis          ... NOT available
Integral threshold                          ...     2.500000e-11
Primitive cut-off                           ...     2.500000e-12
Primitive pair pre-selection threshold      ...     2.500000e-12

Calculating pre-screening integrals         ... done (  0.0 sec) Dimension = 49
Organizing shell pair data                  ... done (  0.0 sec)
Shell pair information
Total number of shell pairs                 ...      1225
Shell pairs after pre-screening             ...      1220
Total number of primitive shell pairs       ...      3648
Primitive shell pairs kept                  ...      3134
          la=0 lb=0:    373 shell pairs
          la=1 lb=0:    351 shell pairs
          la=1 lb=1:     91 shell pairs
          la=2 lb=0:    162 shell pairs
          la=2 lb=1:     78 shell pairs
          la=2 lb=2:     21 shell pairs
          la=3 lb=0:     81 shell pairs
          la=3 lb=1:     39 shell pairs
          la=3 lb=2:     18 shell pairs
          la=3 lb=3:      6 shell pairs

Calculating one electron integrals          ... done (  0.0 sec)
Calculating RI/J V-Matrix + Cholesky decomp.... done (  0.0 sec)
Calculating Nuclear repulsion               ... done (  0.0 sec) ENN=     71.638653225865 Eh

SHARK setup successfully completed in   0.1 seconds

Maximum memory used throughout the entire GTOINT-calculation: 14.9 MB


           ************************************************************
           *        Program running with 8 parallel MPI-processes     *
           *              working on a common directory               *
           ************************************************************
-------------------------------------------------------------------------------
                                 ORCA SCF
-------------------------------------------------------------------------------

------------
SCF SETTINGS
------------
Hamiltonian:
 Density Functional     Method          .... DFT(GTOs)
 Exchange Functional    Exchange        .... PBE
   PBE kappa parameter   XKappa         ....  0.804000
   PBE mue parameter    XMuePBE         ....  0.219520
 Correlation Functional Correlation     .... PBE
   PBE beta parameter  CBetaPBE         ....  0.066725
 LDA part of GGA corr.  LDAOpt          .... PW91-LDA
 Gradients option       PostSCFGGA      .... off
 Hybrid DFT is turned on
   Fraction HF Exchange ScalHFX         ....  0.250000
   Scaling of DF-GGA-X  ScalDFX         ....  0.750000
   Scaling of DF-GGA-C  ScalDFC         ....  1.000000
   Scaling of DF-LDA-C  ScalLDAC        ....  1.000000
   Perturbative correction              ....  0.000000
   Density functional embedding theory  .... OFF
   NL short-range parameter             ....  6.900000
 RI-approximation to the Coulomb term is turned on
   Number of AuxJ basis functions       .... 191
   RIJ-COSX (HFX calculated with COS-X)).... on


General Settings:
 Integral files         IntName         .... ox_es1_A_orca0046
 Hartree-Fock type      HFTyp           .... RHF
 Total Charge           Charge          ....    0
 Multiplicity           Mult            ....    1
 Number of Electrons    NEL             ....   24
 Basis Dimension        Dim             ....  117
 Nuclear Repulsion      ENuc            ....     71.6386532259 Eh

Convergence Acceleration:
 DIIS                   CNVDIIS         .... on
   Start iteration      DIISMaxIt       ....    12
   Startup error        DIISStart       ....  0.200000
   # of expansion vecs  DIISMaxEq       ....     5
   Bias factor          DIISBfac        ....   1.050
   Max. coefficient     DIISMaxC        ....  10.000
 Trust-Rad. Augm. Hess. CNVTRAH         .... auto
   Auto Start mean grad. ratio tolernc. ....  1.125000
   Auto Start start iteration           ....     1
   Auto Start num. interpolation iter.  ....    10
   Max. Number of Micro iterations      ....    16
   Max. Number of Macro iterations      .... Maxiter - #DIIS iter
   Number of Davidson start vectors     ....     2
   Converg. threshold I  (grad. norm)   ....   1.000e-05
   Converg. threshold II (energy diff.) ....   1.000e-08
   Grad. Scal. Fac. for Micro threshold ....   0.100
   Minimum threshold for Micro iter.    ....   0.010
   NR start threshold (gradient norm)   ....   0.001
   Initial trust radius                 ....   0.400
   Minimum AH scaling param. (alpha)    ....   1.000
   Maximum AH scaling param. (alpha)    .... 1000.000
   Orbital update algorithm             .... Taylor
   White noise on init. David. guess    .... on
   Maximum white noise                  ....   0.010
   Quad. conv. algorithm                .... NR
 SOSCF                  CNVSOSCF        .... on
   Start iteration      SOSCFMaxIt      ....   150
   Startup grad/error   SOSCFStart      ....  0.003300
 Level Shifting         CNVShift        .... on
   Level shift para.    LevelShift      ....    0.2500
   Turn off err/grad.   ShiftErr        ....    0.0010
 Zerner damping         CNVZerner       .... off
 Static damping         CNVDamp         .... on
   Fraction old density DampFac         ....    0.7000
   Max. Damping (<1)    DampMax         ....    0.9800
   Min. Damping (>=0)   DampMin         ....    0.0000
   Turn off err/grad.   DampErr         ....    0.1000
 Fernandez-Rico         CNVRico         .... off

SCF Procedure:
 Maximum # iterations   MaxIter         ....   125
 SCF integral mode      SCFMode         .... Direct
   Integral package                     .... SHARK and LIBINT hybrid scheme
 Reset frequency        DirectResetFreq ....    20
 Integral Threshold     Thresh          ....  2.500e-11 Eh
 Primitive CutOff       TCut            ....  2.500e-12 Eh

Convergence Tolerance:
 Convergence Check Mode ConvCheckMode   .... Total+1el-Energy
 Convergence forced     ConvForced      .... 1
 Energy Change          TolE            ....  1.000e-08 Eh
 1-El. energy change                    ....  1.000e-05 Eh
 Orbital Gradient       TolG            ....  1.000e-05
 Orbital Rotation angle TolX            ....  1.000e-05
 DIIS Error             TolErr          ....  5.000e-07


Diagonalization of the overlap matrix:
Smallest eigenvalue                        ... 8.092e-04
Time for diagonalization                   ...    0.001 sec
Threshold for overlap eigenvalues          ... 1.000e-08
Number of eigenvalues below threshold      ... 0
Time for construction of square roots      ...    0.001 sec
Total time needed                          ...    0.003 sec

---------------------
INITIAL GUESS: MOREAD
---------------------
Guess MOs are being read from file: ox_es1_A_orca0046.ges
Input Geometry matches current geometry (good)
Input basis set matches current basis set (good)
MOs were renormalized
MOs were reorthogonalized (Cholesky)
                      ------------------
                      INITIAL GUESS DONE (   0.0 sec)
                      ------------------
-------------------
DFT GRID GENERATION
-------------------

General Integration Accuracy     IntAcc      ... 4.388
Radial Grid Type                 RadialGrid  ... OptM3 with GC (2021)
Angular Grid (max. ang.)         AngularGrid ... 4 (Lebedev-302)
Angular grid pruning method      GridPruning ... 4 (adaptive)
Weight generation scheme         WeightScheme... Becke
Basis function cutoff            BFCut       ... 1.0000e-11
Integration weight cutoff        WCut        ... 1.0000e-14
Angular grids for H and He will be reduced by one unit
Partially contracted basis set               ... off
Rotationally invariant grid construction     ... off

Total number of grid points                  ...    31331
Total number of batches                      ...      494
Average number of points per batch           ...       63
Average number of grid points per atom       ...     4476
Time for grid setup =    0.120 sec

--------------------
COSX GRID GENERATION
--------------------

GRIDX 1
-------
General Integration Accuracy     IntAcc      ... 3.816
Radial Grid Type                 RadialGrid  ... OptM3 with GC (2021)
Angular Grid (max. ang.)         AngularGrid ... 1 (Lebedev-50)
Angular grid pruning method      GridPruning ... 4 (adaptive)
Weight generation scheme         WeightScheme... Becke
Basis function cutoff            BFCut       ... 1.0000e-11
Integration weight cutoff        WCut        ... 1.0000e-14
Angular grids for H and He will be reduced by one unit
Partially contracted basis set               ... on
Rotationally invariant grid construction     ... off

Total number of grid points                  ...     4041
Total number of batches                      ...       68
Average number of points per batch           ...       59
Average number of grid points per atom       ...      577
UseSFitting                                  ... on

GRIDX 2
-------
General Integration Accuracy     IntAcc      ... 4.020
Radial Grid Type                 RadialGrid  ... OptM3 with GC (2021)
Angular Grid (max. ang.)         AngularGrid ... 2 (Lebedev-110)
Angular grid pruning method      GridPruning ... 4 (adaptive)
Weight generation scheme         WeightScheme... Becke
Basis function cutoff            BFCut       ... 1.0000e-11
Integration weight cutoff        WCut        ... 1.0000e-14
Angular grids for H and He will be reduced by one unit
Partially contracted basis set               ... on
Rotationally invariant grid construction     ... off

Total number of grid points                  ...     8726
Total number of batches                      ...      140
Average number of points per batch           ...       62
Average number of grid points per atom       ...     1247
UseSFitting                                  ... on

GRIDX 3
-------
General Integration Accuracy     IntAcc      ... 4.338
Radial Grid Type                 RadialGrid  ... OptM3 with GC (2021)
Angular Grid (max. ang.)         AngularGrid ... 3 (Lebedev-194)
Angular grid pruning method      GridPruning ... 4 (adaptive)
Weight generation scheme         WeightScheme... Becke
Basis function cutoff            BFCut       ... 1.0000e-11
Integration weight cutoff        WCut        ... 1.0000e-14
Angular grids for H and He will be reduced by one unit
Partially contracted basis set               ... on
Rotationally invariant grid construction     ... off

Total number of grid points                  ...    19261
Total number of batches                      ...      305
Average number of points per batch           ...       63
Average number of grid points per atom       ...     2752
UseSFitting                                  ... on

Time for X-Grid setup             =    0.073 sec

--------------
SCF ITERATIONS
--------------
ITER       Energy         Delta-E        Max-DP      RMS-DP      [F,P]     Damp
               ***  Starting incremental Fock matrix formation  ***
                      *** Initiating the SOSCF procedure ***
                      *** Re-Reading the Fockian *** 
                      *** Removing any level shift *** 
ITER      Energy       Delta-E        Grad      Rot      Max-DP    RMS-DP
  0   -153.64526807 -153.6452680713  0.000001  0.000001  0.000002  0.000000
               *** Restarting incremental Fock matrix formation ***
                  ***Gradient check signals convergence***
              ***Rediagonalizing the Fockian in SOSCF/NRSCF***

               *****************************************************
               *                     SUCCESS                       *
               *           SCF CONVERGED AFTER   1 CYCLES          *
               *****************************************************

Old exchange energy                            =     -4.971039621 Eh
New exchange energy                            =     -4.971043524 Eh
Exchange energy change after final integration =     -0.000003902 Eh
Total energy after final integration           =   -153.645271974 Eh
Final COS-X integration done in                =     0.311 sec

----------------
TOTAL SCF ENERGY
----------------

Total Energy       :         -153.64527197 Eh           -4180.90040 eV

Components:
Nuclear Repulsion  :           71.63865323 Eh            1949.38686 eV
Electronic Energy  :         -225.28392520 Eh           -6130.28726 eV
One Electron Energy:         -350.13440435 Eh           -9527.64152 eV
Two Electron Energy:          124.85047915 Eh            3397.35426 eV
Max COSX asymmetry :            0.00000249 Eh               0.00007 eV

Virial components:
Potential Energy   :         -306.29571015 Eh           -8334.73000 eV
Kinetic Energy     :          152.65043818 Eh            4153.82960 eV
Virial Ratio       :            2.00651707


DFT components:
N(Alpha)           :       12.000000117744 electrons
N(Beta)            :       12.000000117744 electrons
N(Total)           :       24.000000235488 electrons
E(X)               :      -14.898521883139 Eh       
E(C)               :       -0.781421684231 Eh       
E(XC)              :      -15.679943567370 Eh       
DFET-embed. en.    :        0.000000000000 Eh       

---------------
SCF CONVERGENCE
---------------

  Last Energy change         ...   -8.1286e-11  Tolerance :   1.0000e-08
  Last MAX-Density change    ...    8.8818e-16  Tolerance :   1.0000e-07
  Last RMS-Density change    ...    1.9976e-17  Tolerance :   5.0000e-09
  Last Orbital Gradient      ...    8.1417e-07  Tolerance :   1.0000e-05
  Last Orbital Rotation      ...    1.2135e-06  Tolerance :   1.0000e-05

             **** THE GBW FILE WAS UPDATED (ox_es1_A_orca0046.gbw) ****
             **** DENSITY ox_es1_A_orca0046.scfp WAS UPDATED ****
             **** ENERGY FILE WAS UPDATED (ox_es1_A_orca0046.en.tmp) ****
             **** THE GBW FILE WAS UPDATED (ox_es1_A_orca0046.gbw) ****
             **** DENSITY ox_es1_A_orca0046.scfp WAS UPDATED ****
----------------
ORBITAL ENERGIES
----------------

  NO   OCC          E(Eh)            E(eV) 
   0   2.0000     -19.225233      -523.1452 
   1   2.0000     -10.296394      -280.1791 
   2   2.0000     -10.274908      -279.5945 
   3   2.0000      -1.040185       -28.3049 
   4   2.0000      -0.708173       -19.2704 
   5   2.0000      -0.661424       -17.9983 
   6   2.0000      -0.511664       -13.9231 
   7   2.0000      -0.482938       -13.1414 
   8   2.0000      -0.411721       -11.2035 
   9   2.0000      -0.393553       -10.7091 
  10   2.0000      -0.322230        -8.7683 
  11   2.0000      -0.289500        -7.8777 
  12   0.0000       0.045347         1.2339 
  13   0.0000       0.057208         1.5567 
  14   0.0000       0.069143         1.8815 
  15   0.0000       0.089716         2.4413 
  16   0.0000       0.104207         2.8356 
  17   0.0000       0.152952         4.1620 
  18   0.0000       0.189351         5.1525 
  19   0.0000       0.201554         5.4846 
  20   0.0000       0.261317         7.1108 
  21   0.0000       0.267974         7.2919 
  22   0.0000       0.280793         7.6408 
  23   0.0000       0.289326         7.8730 
  24   0.0000       0.355654         9.6778 
  25   0.0000       0.393182        10.6990 
  26   0.0000       0.401994        10.9388 
  27   0.0000       0.413948        11.2641 
  28   0.0000       0.448868        12.2143 
  29   0.0000       0.466553        12.6956 
  30   0.0000       0.509731        13.8705 
  31   0.0000       0.518893        14.1198 
  32   0.0000       0.530020        14.4226 
  33   0.0000       0.687255        18.7012 
  34   0.0000       0.704163        19.1612 
  35   0.0000       0.719177        19.5698 
  36   0.0000       0.812934        22.1211 
  37   0.0000       0.849576        23.1181 
  38   0.0000       0.896872        24.4051 
  39   0.0000       0.921776        25.0828 
  40   0.0000       0.981787        26.7158 
  41   0.0000       1.004243        27.3268 
  42   0.0000       1.070371        29.1263 
  43   0.0000       1.074756        29.2456 
  44   0.0000       1.132752        30.8238 
  45   0.0000       1.344312        36.5806 
  46   0.0000       1.456690        39.6385 
  47   0.0000       1.474781        40.1308 
  48   0.0000       1.488644        40.5081 
  49   0.0000       1.492873        40.6231 
  50   0.0000       1.575808        42.8799 
  51   0.0000       1.622647        44.1545 
  52   0.0000       1.646839        44.8128 
  53   0.0000       1.717598        46.7382 
  54   0.0000       1.754750        47.7492 
  55   0.0000       1.830015        49.7972 
  56   0.0000       1.841528        50.1105 
  57   0.0000       1.876640        51.0660 
  58   0.0000       1.904739        51.8306 
  59   0.0000       1.930593        52.5341 
  60   0.0000       2.145886        58.3925 
  61   0.0000       2.155794        58.6621 
  62   0.0000       2.173712        59.1497 
  63   0.0000       2.194009        59.7020 
  64   0.0000       2.204566        59.9893 
  65   0.0000       2.365422        64.3664 
  66   0.0000       2.433720        66.2249 
  67   0.0000       2.467120        67.1338 
  68   0.0000       2.513988        68.4091 
  69   0.0000       2.581957        70.2586 
  70   0.0000       2.603103        70.8340 
  71   0.0000       2.616342        71.1943 
  72   0.0000       2.639485        71.8240 
  73   0.0000       2.648733        72.0757 
  74   0.0000       2.718525        73.9748 
  75   0.0000       2.781603        75.6913 
  76   0.0000       2.816210        76.6330 
  77   0.0000       2.919678        79.4485 
  78   0.0000       2.963116        80.6305 
  79   0.0000       3.009374        81.8892 
  80   0.0000       3.056393        83.1687 
  81   0.0000       3.114842        84.7592 
  82   0.0000       3.150068        85.7177 
  83   0.0000       3.162505        86.0561 
  84   0.0000       3.216769        87.5327 
  85   0.0000       3.272856        89.0589 
  86   0.0000       3.330407        90.6250 
  87   0.0000       3.391940        92.2994 
  88   0.0000       3.490003        94.9678 
  89   0.0000       3.548949        96.5718 
  90   0.0000       3.615750        98.3896 
  91   0.0000       3.648064        99.2689 
  92   0.0000       3.800447       103.4154 
  93   0.0000       3.929833       106.9362 
  94   0.0000       3.988169       108.5236 
  95   0.0000       4.171277       113.5062 
  96   0.0000       4.182189       113.8031 
  97   0.0000       4.286744       116.6482 
  98   0.0000       4.354243       118.4850 
  99   0.0000       4.538074       123.4873 
 100   0.0000       4.701943       127.9464 
 101   0.0000       4.757093       129.4471 
 102   0.0000       5.250216       142.8656 
 103   0.0000       5.368909       146.0954 
 104   0.0000       5.540717       150.7706 
 105   0.0000       5.639089       153.4474 
 106   0.0000       5.645537       153.6229 
 107   0.0000       5.724793       155.7795 
 108   0.0000       5.910995       160.8464 
 109   0.0000       6.543940       178.0697 
 110   0.0000       6.552976       178.3155 
 111   0.0000       6.714042       182.6984 
 112   0.0000       6.946278       189.0178 
 113   0.0000       7.182535       195.4467 
 114   0.0000      22.091839       601.1495 
 115   0.0000      22.393725       609.3642 
 116   0.0000      43.750691      1190.5168 

                    ********************************
                    * MULLIKEN POPULATION ANALYSIS *
                    ********************************

-----------------------
MULLIKEN ATOMIC CHARGES
-----------------------
   0 O :   -0.319276
   1 C :   -0.085465
   2 C :   -0.107353
   3 H :    0.121461
   4 H :    0.122411
   5 H :    0.136606
   6 H :    0.131615
Sum of atomic charges:   -0.0000000

--------------------------------
MULLIKEN REDUCED ORBITAL CHARGES
--------------------------------
  0 O s       :     3.878368  s :     3.878368
      pz      :     1.878946  p :     4.406570
      px      :     1.313932
      py      :     1.213692
      dz2     :     0.004832  d :     0.032800
      dxz     :     0.001683
      dyz     :     0.004668
      dx2y2   :     0.009141
      dxy     :     0.012476
      f0      :     0.000171  f :     0.001538
      f+1     :     0.000157
      f-1     :     0.000375
      f+2     :     0.000051
      f-2     :     0.000125
      f+3     :     0.000298
      f-3     :     0.000362
  1 C s       :     3.226119  s :     3.226119
      pz      :     1.066443  p :     2.749925
      px      :     0.902775
      py      :     0.780707
      dz2     :     0.005806  d :     0.099721
      dxz     :     0.022937
      dyz     :     0.026068
      dx2y2   :     0.025908
      dxy     :     0.019002
      f0      :     0.001108  f :     0.009700
      f+1     :     0.001330
      f-1     :     0.000567
      f+2     :     0.001038
      f-2     :     0.001319
      f+3     :     0.002029
      f-3     :     0.002309
  2 C s       :     3.266612  s :     3.266612
      pz      :     1.036354  p :     2.738305
      px      :     0.917993
      py      :     0.783958
      dz2     :     0.008771  d :     0.093497
      dxz     :     0.020375
      dyz     :     0.023761
      dx2y2   :     0.022476
      dxy     :     0.018113
      f0      :     0.001136  f :     0.008939
      f+1     :     0.001262
      f-1     :     0.000518
      f+2     :     0.000849
      f-2     :     0.001134
      f+3     :     0.001981
      f-3     :     0.002058
  3 H s       :     0.855619  s :     0.855619
      pz      :     0.010491  p :     0.022919
      px      :     0.007728
      py      :     0.004700
  4 H s       :     0.854403  s :     0.854403
      pz      :     0.010899  p :     0.023186
      px      :     0.007710
      py      :     0.004577
  5 H s       :     0.840770  s :     0.840770
      pz      :     0.011327  p :     0.022624
      px      :     0.006882
      py      :     0.004414
  6 H s       :     0.848985  s :     0.848985
      pz      :     0.010921  p :     0.019400
      px      :     0.005107
      py      :     0.003372


                     *******************************
                     * LOEWDIN POPULATION ANALYSIS *
                     *******************************

----------------------
LOEWDIN ATOMIC CHARGES
----------------------
   0 O :    0.009779
   1 C :   -0.233829
   2 C :   -0.211786
   3 H :    0.098365
   4 H :    0.095375
   5 H :    0.108430
   6 H :    0.133666

-------------------------------
LOEWDIN REDUCED ORBITAL CHARGES
-------------------------------
  0 O s       :     3.490794  s :     3.490794
      pz      :     1.791911  p :     4.427138
      px      :     1.313818
      py      :     1.321409
      dz2     :     0.010219  d :     0.068188
      dxz     :     0.004957
      dyz     :     0.009289
      dx2y2   :     0.022497
      dxy     :     0.021227
      f0      :     0.000342  f :     0.004101
      f+1     :     0.000194
      f-1     :     0.000696
      f+2     :     0.000101
      f-2     :     0.000550
      f+3     :     0.000884
      f-3     :     0.001334
  1 C s       :     2.832880  s :     2.832880
      pz      :     1.096283  p :     2.929972
      px      :     1.006756
      py      :     0.826933
      dz2     :     0.047136  d :     0.416496
      dxz     :     0.113417
      dyz     :     0.071453
      dx2y2   :     0.097497
      dxy     :     0.086992
      f0      :     0.005928  f :     0.054480
      f+1     :     0.005239
      f-1     :     0.005044
      f+2     :     0.006380
      f-2     :     0.005496
      f+3     :     0.012969
      f-3     :     0.013423
  2 C s       :     2.884886  s :     2.884886
      pz      :     1.072134  p :     2.912025
      px      :     1.021809
      py      :     0.818082
      dz2     :     0.050116  d :     0.368117
      dxz     :     0.096205
      dyz     :     0.063089
      dx2y2   :     0.083643
      dxy     :     0.075065
      f0      :     0.006257  f :     0.046758
      f+1     :     0.004208
      f-1     :     0.004121
      f+2     :     0.004907
      f-2     :     0.004152
      f+3     :     0.011619
      f-3     :     0.011493
  3 H s       :     0.829607  s :     0.829607
      pz      :     0.034365  p :     0.072028
      px      :     0.022461
      py      :     0.015202
  4 H s       :     0.830701  s :     0.830701
      pz      :     0.036048  p :     0.073924
      px      :     0.022786
      py      :     0.015090
  5 H s       :     0.822847  s :     0.822847
      pz      :     0.035577  p :     0.068723
      px      :     0.019558
      py      :     0.013588
  6 H s       :     0.812531  s :     0.812531
      pz      :     0.031078  p :     0.053803
      px      :     0.013252
      py      :     0.009473


                      *****************************
                      * MAYER POPULATION ANALYSIS *
                      *****************************

  NA   - Mulliken gross atomic population
  ZA   - Total nuclear charge
  QA   - Mulliken gross atomic charge
  VA   - Mayer's total valence
  BVA  - Mayer's bonded valence
  FA   - Mayer's free valence

  ATOM       NA         ZA         QA         VA         BVA        FA
  0 O      8.3193     8.0000    -0.3193     1.9807     1.9807     0.0000
  1 C      6.0855     6.0000    -0.0855     3.9719     3.9719    -0.0000
  2 C      6.1074     6.0000    -0.1074     3.9372     3.9372     0.0000
  3 H      0.8785     1.0000     0.1215     0.9568     0.9568     0.0000
  4 H      0.8776     1.0000     0.1224     0.9577     0.9577     0.0000
  5 H      0.8634     1.0000     0.1366     0.9557     0.9557     0.0000
  6 H      0.8684     1.0000     0.1316     0.9604     0.9604    -0.0000

  Mayer bond orders larger than 0.100000
B(  0-O ,  1-C ) :   0.9867 B(  0-O ,  2-C ) :   0.9778 B(  1-C ,  2-C ) :   1.0550 
B(  1-C ,  3-H ) :   0.9582 B(  1-C ,  4-H ) :   0.9610 B(  2-C ,  5-H ) :   0.9475 
B(  2-C ,  6-H ) :   0.9470 

-------
TIMINGS
-------

Total SCF time: 0 days 0 hours 0 min 1 sec 

Total time                  ....       1.130 sec
Sum of individual times     ....       1.028 sec  ( 91.0%)

Fock matrix formation       ....       0.814 sec  ( 72.0%)
  Split-RI-J                ....       0.130 sec  ( 16.0% of F)
  Chain of spheres X        ....       0.606 sec  ( 74.4% of F)
  XC integration            ....       0.076 sec  (  9.3% of F)
    Basis function eval.    ....       0.021 sec  ( 27.5% of XC)
    Density eval.           ....       0.016 sec  ( 20.8% of XC)
    XC-Functional eval.     ....       0.004 sec  (  5.8% of XC)
    XC-Potential eval.      ....       0.025 sec  ( 33.5% of XC)
Diagonalization             ....       0.003 sec  (  0.2%)
Density matrix formation    ....       0.000 sec  (  0.0%)
Population analysis         ....       0.003 sec  (  0.3%)
Initial guess               ....       0.011 sec  (  1.0%)
Orbital Transformation      ....       0.000 sec  (  0.0%)
Orbital Orthonormalization  ....       0.001 sec  (  0.1%)
DIIS solution               ....       0.002 sec  (  0.1%)
SOSCF solution              ....       0.003 sec  (  0.2%)
Grid generation             ....       0.193 sec  ( 17.1%)

Maximum memory used throughout the entire SCF-calculation: 61.1 MB


           ************************************************************
           *        Program running with 8 parallel MPI-processes     *
           *              working on a common directory               *
           ************************************************************
------------------------------------------------------------------------------
                        ORCA TD-DFT/TDA CALCULATION
------------------------------------------------------------------------------

Input orbitals are from        ... ox_es1_A_orca0046.gbw
CI-vector output               ... ox_es1_A_orca0046.cis
Tamm-Dancoff approximation     ... operative
CIS-Integral strategy          ... AO-integrals
Integral handling              ... AO integral Direct
Max. core memory used          ... 3000 MB
Reference state                ... RHF
Generation of triplets         ... off
Follow IRoot                   ... off
Number of operators            ... 1
Orbital ranges used for CIS calculation:
 Operator 0:  Orbitals   3... 11  to  12...116
XAS localization array:
 Operator 0:  Orbitals  -1... -1

-------------------
XC-INTEGRATION GRID
-------------------

General Integration Accuracy     IntAcc      ... 3.467
Radial Grid Type                 RadialGrid  ... OptM3 with GC (2021)
Angular Grid (max. ang.)         AngularGrid ... 1 (Lebedev-50)
Angular grid pruning method      GridPruning ... 4 (adaptive)
Weight generation scheme         WeightScheme... Becke
Basis function cutoff            BFCut       ... 1.0000e-11
Integration weight cutoff        WCut        ... 1.0000e-14
Angular grids for H and He will be reduced by one unit
Partially contracted basis set               ... off
Rotationally invariant grid construction     ... off

Total number of grid points                  ...     4542
Total number of batches                      ...       75
Average number of points per batch           ...       60
Average number of grid points per atom       ...      649

---------------------
COSX-INTEGRATION GRID
---------------------

General Integration Accuracy     IntAcc      ... 3.067
Radial Grid Type                 RadialGrid  ... OptM3 with GC (2021)
Angular Grid (max. ang.)         AngularGrid ... 1 (Lebedev-50)
Angular grid pruning method      GridPruning ... 4 (adaptive)
Weight generation scheme         WeightScheme... Becke
Basis function cutoff            BFCut       ... 1.0000e-11
Integration weight cutoff        WCut        ... 1.0000e-14
Angular grids for H and He will be reduced by one unit
Partially contracted basis set               ... on
Rotationally invariant grid construction     ... off

Total number of grid points                  ...     2088
Total number of batches                      ...       38
Average number of points per batch           ...       54
Average number of grid points per atom       ...      298

---------------
TD-DFT XC SETUP
---------------

DFT calculation                         ... on
Name of the grid file                   ... ox_es1_A_orca0046.grid_cis.tmp
Exchange functional (TD-DFT)            ... PBE
   PBE kappa parameter  XKappa (TD-DFT) ...  0.804000
   PBE mue parameter   XMuePBE (TD-DFT) ...  0.219520
Correlation functional (TD-DFT)         ... PBE
   PBE beta parameter CBetaPBE (TD-DFT) ...  0.066725
 LDA part of GGA corr.  LDAOpt (TD-DFT) ... PW91-LDA
Hybrid DFT                              ... on
   Exchange mixing (TD-DFT)             ...  0.250
   GGA exch. scaling (TD-DFT)           ...  0.750
   GGA corr. scaling (TD-DFT)           ...  1.000

Building densities             ... done
Calculating rho(r) on the grid ... done
Building xc-kernel on the grid ... done
                    *** TD-DFT CALCULATION INITIALIZED ***

------------------------
DAVIDSON-DIAGONALIZATION
------------------------

Dimension of the eigenvalue problem            ...    945
Number of roots to be determined               ...      1
Maximum size of the expansion space            ...     10
Maximum number of iterations                   ...    100
Convergence tolerance for the residual         ...    2.500e-07
Convergence tolerance for the energies         ...    2.500e-07
Orthogonality tolerance                        ...    1.000e-14
Level Shift                                    ...    0.000e+00
Constructing the preconditioner                ... o.k.
Building the initial guess                     ... o.k.
Number of trial vectors determined             ...     10


                       ****Iteration    0****

   Memory handling for direct AO based CIS:
   Memory per vector needed      ...     1 MB
   Memory needed                 ...     1 MB
   Memory available              ...  3000 MB
   Number of vectors per batch   ...  3000
   Number of batches             ...     1
   Time for densities:            0.001
   Time for RI-J (Direct):        0.018
   Time for K (COSX):             0.062
   Time for XC-Integration:       0.018
   Time for Sigma-Completion:     0.000
   Size of expansion space: 3
   Lowest Energy          :     0.261600978630
   Maximum Energy change  :     0.261600978630 (vector 0)
   Maximum residual norm  :     0.003841916209

                       ****Iteration    1****
   Time for densities:            0.000
   Time for RI-J (Direct):        0.014
   Time for K (COSX):             0.057
   Time for XC-Integration:       0.008
   Time for Sigma-Completion:     0.000
   Size of expansion space: 4
   Lowest Energy          :     0.257308079058
   Maximum Energy change  :     0.004292899572 (vector 0)
   Maximum residual norm  :     0.000342381227

                       ****Iteration    2****
   Time for densities:            0.000
   Time for RI-J (Direct):        0.014
   Time for K (COSX):             0.058
   Time for XC-Integration:       0.008
   Time for Sigma-Completion:     0.000
   Size of expansion space: 5
   Lowest Energy          :     0.257023276446
   Maximum Energy change  :     0.000284802612 (vector 0)
   Maximum residual norm  :     0.000088593360

                       ****Iteration    3****
   Time for densities:            0.000
   Time for RI-J (Direct):        0.015
   Time for K (COSX):             0.058
   Time for XC-Integration:       0.008
   Time for Sigma-Completion:     0.000
   Size of expansion space: 6
   Lowest Energy          :     0.256937342808
   Maximum Energy change  :     0.000085933638 (vector 0)
   Maximum residual norm  :     0.000009938063

                       ****Iteration    4****
   Time for densities:            0.000
   Time for RI-J (Direct):        0.015
   Time for K (COSX):             0.058
   Time for XC-Integration:       0.008
   Time for Sigma-Completion:     0.000
   Size of expansion space: 7
   Lowest Energy          :     0.256920827693
   Maximum Energy change  :     0.000016515116 (vector 0)
   Maximum residual norm  :     0.000003877981

                       ****Iteration    5****
   Time for densities:            0.000
   Time for RI-J (Direct):        0.015
   Time for K (COSX):             0.058
   Time for XC-Integration:       0.008
   Time for Sigma-Completion:     0.000
   Size of expansion space: 8
   Lowest Energy          :     0.256915969503
   Maximum Energy change  :     0.000004858190 (vector 0)
   Maximum residual norm  :     0.000000408367

                       ****Iteration    6****
   Time for densities:            0.000
   Time for RI-J (Direct):        0.015
   Time for K (COSX):             0.058
   Time for XC-Integration:       0.008
   Time for Sigma-Completion:     0.000
   Size of expansion space: 9
   Lowest Energy          :     0.256915490375
   Maximum Energy change  :     0.000000479128 (vector 0)
   Maximum residual norm  :     0.000000029522

      *** CONVERGENCE OF RESIDUAL NORM REACHED ***

Storing the converged CI vectors               ... ox_es1_A_orca0046.cis1

                 *** DAVIDSON DONE ***

Total time for solving the CIS problem:     0.586sec

------------------------------------
TD-DFT/TDA EXCITED STATES (SINGLETS)
------------------------------------

the weight of the individual excitations are printed if larger than 1.0e-02

STATE  1:  E=   0.256915 au      6.991 eV    56386.4 cm**-1 <S**2> =   0.000000
    11a ->  12a  :     0.894221 (c=  0.94563242)
    11a ->  13a  :     0.070009 (c=  0.26459203)
    11a ->  15a  :     0.019047 (c=  0.13801229)


-----------------------------
TD-DFT/TDA-EXCITATION SPECTRA
-----------------------------

Center of mass = ( -0.0450, -0.0055, -0.0308)
Calculating the Dipole integrals                  ... done
Transforming integrals                            ... done
Calculating the Linear Momentum integrals         ... done
Transforming integrals                            ... done
Calculating angular momentum integrals            ... done
Transforming integrals                            ... done

-----------------------------------------------------------------------------
         ABSORPTION SPECTRUM VIA TRANSITION ELECTRIC DIPOLE MOMENTS
-----------------------------------------------------------------------------
State   Energy    Wavelength  fosc         T2        TX        TY        TZ  
        (cm-1)      (nm)                 (au**2)    (au)      (au)      (au) 
-----------------------------------------------------------------------------
   1   56386.4    177.3   0.005659840   0.03304  -0.00615  -0.01619   0.18096

-----------------------------------------------------------------------------
         ABSORPTION SPECTRUM VIA TRANSITION VELOCITY DIPOLE MOMENTS
-----------------------------------------------------------------------------
State   Energy    Wavelength   fosc        P2         PX        PY        PZ  
        (cm-1)      (nm)                 (au**2)     (au)      (au)      (au) 
-----------------------------------------------------------------------------
   1   56386.4    177.3   0.017604612   0.00678  -0.00008   0.00275  -0.08232

-------------------------------------------------------------------
                             CD SPECTRUM
-------------------------------------------------------------------
State  Energy     Wavelength     R         MX        MY        MZ   
       (cm-1)       (nm)     (1e40*cgs)   (au)      (au)      (au)  
-------------------------------------------------------------------
   1   56386.4    177.3      0.20956   0.10751  -0.19043  -0.01093

-------------------------------------------------------------------
         CD SPECTRUM VIA TRANSITION VELOCITY DIPOLE MOMENTS        
-------------------------------------------------------------------
State  Energy     Wavelength     R         MX        MY        MZ   
       (cm-1)       (nm)     (1e40*cgs)   (au)      (au)      (au)  
-------------------------------------------------------------------
   1   56386.4    177.3      0.67578   0.10751  -0.19043  -0.01093

Total run time:        0.873 sec

           *** ORCA-CIS/TD-DFT FINISHED WITHOUT ERROR ***

Maximum memory used throughout the entire CIS-calculation: 49.4 MB

-----------------------
CIS/TD-DFT TOTAL ENERGY
-----------------------

    E(SCF)  =   -153.645271974 Eh
    DE(CIS) =      0.256915490 Eh (Root  1)
    ----------------------------- ---------
    E(tot)  =   -153.388356483 Eh



-------------------------------------------------------------------------------
                          DFT DISPERSION CORRECTION                            
                                                                               
                              DFTD3 V3.1  Rev 1                                
                          USING Becke-Johnson damping                          
-------------------------------------------------------------------------------
The PBE0 functional is recognized
Active option DFTDOPT                   ...         4   

molecular C6(AA) [au] = 351.574936 


            DFT-D V3
 parameters
 s6 scaling factor         :     1.0000 
 a1 scaling factor         :     0.4145 
 s8 scaling factor         :     1.2177 
 a2 scaling factor         :     4.8593 
 ad hoc parameters k1-k3   :    16.0000     1.3333    -4.0000 

 Edisp/kcal,au: -1.500249769890  -0.002390799935 
 E6   /kcal   :  -0.982388608 
 E8   /kcal   :  -0.517861161 
 % E8         :  34.518329672 

-------------------------   ----------------
Dispersion correction           -0.002390800
-------------------------   ----------------


-------------------------   --------------------
FINAL SINGLE POINT ENERGY      -153.390747283282
-------------------------   --------------------



           ************************************************************
           *        Program running with 8 parallel MPI-processes     *
           *              working on a common directory               *
           ************************************************************
------------------------------------------------------------------------------
                         ORCA SCF GRADIENT CALCULATION
------------------------------------------------------------------------------


------------------------
TD-DFT GRADIENT XC SETUP
------------------------

Building densities                     ... done
Calculating rho(r) on the grid         ... done
Building xc-kernel on the grid         ... done
Building xc 3rd derivative on the grid      ... done
                *** TD-DFT GRADIENT CALCULATION INITIALIZED ***

-------------------
TD-DFT/TDA GRADIENT
-------------------

Reference wavefunction             ... RHF
State of interest                  ... 1
Basis dimension                    ... 117
DFT-XC contribution needed         ... YES
RI-approximation                   ... ON
CIS-vectors being read from        ... ox_es1_A_orca0046.cis

 => Number of Vectors found: 1
 => Orbital Window: 3...11 -> 12...116

Reading the CIS file                     ... done
Norm of the CI vector                    ... 1.000000000
Making the CIS (pseudo)densities         ... done
Making operators G(D) and Q(T)           ... done
Transforming the Fock operators          ... done
Making the frozen-core relaxed density   ... done
Constructing the G(H) operator           ... done
Transforming the G(H) operator           ... done
Calculating the CIS Lagrangian           ... done
Solving the Z-vector equations           ... done
Finalizing the relaxed density           ... done
Storing the relaxed density              ... done
Constructing the G(Z) operator           ... done
Transforming the G(Z) operator           ... done
Making the W-matrix                      ... done
Finalizing the W-matrix                  ... done
Transforming the W-matrix                ... done
Nuclear repulsion gradient               ... done
One-Electron gradient                    ... done
Dispersion correction                    ... done
Prescreening matrices                    ... done
COSX-gradient                            ... done
Coulomb gradient (RI)                    ... done
Exchange-Correlation gradient            ... done

                 ---------------------------
                 EXCITED STATE GRADIENT DONE
                 ---------------------------

------------------
CARTESIAN GRADIENT
------------------

   1   O   :    0.102347916   -0.080826251   -0.001325907
   2   C   :   -0.119822454   -0.033786453   -0.008126630
   3   C   :   -0.028517758    0.127098491   -0.046702420
   4   H   :    0.017448476   -0.001901750   -0.042405737
   5   H   :    0.022263347   -0.002559397    0.050166779
   6   H   :   -0.008881949    0.001887913    0.009056906
   7   H   :    0.015117068   -0.009964277    0.039337456

Difference to translation invariance:
           :   -0.0000453535   -0.0000517234    0.0000004460

Difference to rotation invariance:
           :   -0.0001635594   -0.0000764918    0.0002481020

Norm of the cartesian gradient     ...    0.2426686691
RMS gradient                       ...    0.0529546450
MAX gradient                       ...    0.1270984913

------------------------------------------------------------------------------
                  RELAXED CIS/TDA DENSITY POPULATION ANALYSIS
                                   IROOT 1
------------------------------------------------------------------------------
------------------------------------------------------------------------------
                           ORCA POPULATION ANALYSIS
------------------------------------------------------------------------------
Input electron density              ... ox_es1_A_orca0046.cisp
BaseName (.gbw .S,...)              ... ox_es1_A_orca0046

                    ********************************
                    * MULLIKEN POPULATION ANALYSIS *
                    ********************************

-----------------------
MULLIKEN ATOMIC CHARGES
-----------------------
   0 O :    0.094463
   1 C :   -0.112694
   2 C :   -0.617339
   3 H :    0.147151
   4 H :    0.145908
   5 H :    0.171341
   6 H :    0.171171
Sum of atomic charges:    0.0000000

--------------------------------
MULLIKEN REDUCED ORBITAL CHARGES
--------------------------------
  0 O s       :     3.797043  s :     3.797043
      pz      :     1.067857  p :     4.078280
      px      :     1.562738
      py      :     1.447684
      dz2     :     0.002980  d :     0.029334
      dxz     :     0.002040
      dyz     :     0.004563
      dx2y2   :     0.008599
      dxy     :     0.011152
      f0      :     0.000017  f :     0.000880
      f+1     :    -0.000056
      f-1     :     0.000079
      f+2     :     0.000058
      f-2     :     0.000140
      f+3     :     0.000272
      f-3     :     0.000369
  1 C s       :     3.227767  s :     3.227767
      pz      :     1.067074  p :     2.800214
      px      :     1.017348
      py      :     0.715792
      dz2     :     0.005553  d :     0.075750
      dxz     :     0.019797
      dyz     :     0.008023
      dx2y2   :     0.025933
      dxy     :     0.016444
      f0      :     0.000639  f :     0.008964
      f+1     :     0.001442
      f-1     :     0.000471
      f+2     :     0.000653
      f-2     :     0.000922
      f+3     :     0.002650
      f-3     :     0.002188
  2 C s       :     3.322061  s :     3.322061
      pz      :     1.056693  p :     3.206339
      px      :     0.843660
      py      :     1.305987
      dz2     :     0.010568  d :     0.080400
      dxz     :     0.009960
      dyz     :     0.003512
      dx2y2   :     0.031277
      dxy     :     0.025083
      f0      :     0.000738  f :     0.008539
      f+1     :     0.001157
      f-1     :     0.000881
      f+2     :     0.000609
      f-2     :     0.000753
      f+3     :     0.002746
      f-3     :     0.001655
  3 H s       :     0.828906  s :     0.828906
      pz      :     0.010600  p :     0.023943
      px      :     0.008845
      py      :     0.004499
  4 H s       :     0.829872  s :     0.829872
      pz      :     0.011069  p :     0.024221
      px      :     0.008865
      py      :     0.004287
  5 H s       :     0.801023  s :     0.801023
      pz      :     0.010162  p :     0.027635
      px      :     0.006674
      py      :     0.010800
  6 H s       :     0.805546  s :     0.805546
      pz      :     0.009856  p :     0.023283
      px      :     0.005114
      py      :     0.008313


                     *******************************
                     * LOEWDIN POPULATION ANALYSIS *
                     *******************************

----------------------
LOEWDIN ATOMIC CHARGES
----------------------
   0 O :    0.295628
   1 C :   -0.225453
   2 C :   -0.556967
   3 H :    0.115996
   4 H :    0.111973
   5 H :    0.113283
   6 H :    0.145540

-------------------------------
LOEWDIN REDUCED ORBITAL CHARGES
-------------------------------
  0 O s       :     3.539582  s :     3.539582
      pz      :     1.027870  p :     4.077196
      px      :     1.545184
      py      :     1.504142
      dz2     :     0.012348  d :     0.083598
      dxz     :     0.005743
      dyz     :     0.009701
      dx2y2   :     0.025314
      dxy     :     0.030491
      f0      :     0.000362  f :     0.003997
      f+1     :     0.000086
      f-1     :     0.000555
      f+2     :     0.000104
      f-2     :     0.000594
      f+3     :     0.000928
      f-3     :     0.001367
  1 C s       :     2.840931  s :     2.840931
      pz      :     1.082790  p :     2.966116
      px      :     1.077370
      py      :     0.805957
      dz2     :     0.050070  d :     0.364850
      dxz     :     0.101832
      dyz     :     0.031283
      dx2y2   :     0.098383
      dxy     :     0.083282
      f0      :     0.004234  f :     0.053556
      f+1     :     0.005645
      f-1     :     0.005309
      f+2     :     0.004421
      f-2     :     0.004092
      f+3     :     0.016459
      f-3     :     0.013395
  2 C s       :     2.890343  s :     2.890343
      pz      :     1.064389  p :     3.163663
      px      :     0.982502
      py      :     1.116772
      dz2     :     0.061623  d :     0.446145
      dxz     :     0.077003
      dyz     :     0.022998
      dx2y2   :     0.143731
      dxy     :     0.140789
      f0      :     0.004621  f :     0.056816
      f+1     :     0.004475
      f-1     :     0.007646
      f+2     :     0.003300
      f-2     :     0.002982
      f+3     :     0.022705
      f-3     :     0.011086
  3 H s       :     0.809110  s :     0.809110
      pz      :     0.034437  p :     0.074894
      px      :     0.025728
      py      :     0.014729
  4 H s       :     0.811135  s :     0.811135
      pz      :     0.036257  p :     0.076892
      px      :     0.026191
      py      :     0.014444
  5 H s       :     0.805404  s :     0.805404
      pz      :     0.032970  p :     0.081313
      px      :     0.018915
      py      :     0.029428
  6 H s       :     0.791051  s :     0.791051
      pz      :     0.028440  p :     0.063409
      px      :     0.013042
      py      :     0.021927


                      *****************************
                      * MAYER POPULATION ANALYSIS *
                      *****************************

  NA   - Mulliken gross atomic population
  ZA   - Total nuclear charge
  QA   - Mulliken gross atomic charge
  VA   - Mayer's total valence
  BVA  - Mayer's bonded valence
  FA   - Mayer's free valence

  ATOM       NA         ZA         QA         VA         BVA        FA
  0 O      7.9055     8.0000     0.0945     1.8531     1.0573     0.7957
  1 C      6.1127     6.0000    -0.1127     3.7289     3.6598     0.0691
  2 C      6.6173     6.0000    -0.6173     3.9332     3.0259     0.9073
  3 H      0.8528     1.0000     0.1472     0.9748     0.9493     0.0255
  4 H      0.8541     1.0000     0.1459     0.9752     0.9504     0.0248
  5 H      0.8287     1.0000     0.1713     0.9819     0.9574     0.0246
  6 H      0.8288     1.0000     0.1712     0.9749     0.9477     0.0272

  Mayer bond orders larger than 0.100000
B(  0-O ,  1-C ) :   0.8628 B(  0-O ,  2-C ) :   0.1721 B(  1-C ,  2-C ) :   0.9434 
B(  1-C ,  3-H ) :   0.9325 B(  1-C ,  4-H ) :   0.9333 B(  2-C ,  5-H ) :   0.9524 
B(  2-C ,  6-H ) :   0.9388 


-------
TIMINGS
-------

Total TD-DFT gradient time         ...        5.734 sec

Fock matrix formation       ....       0.952 sec  ( 16.6%)
  Coulomb formation         ....       0.766 sec  ( 80.4% of F)
  RI-J                      ....       0.333 sec  ( 35.0% of F)
  Chain of spheres X        ....       0.432 sec  ( 45.4% of F)
  XC integration            ....       0.186 sec  ( 19.6% of F)
Z-vector equation           ....       1.559 sec  ( 27.2%)
One electron gradient       ....       0.037 sec  (  0.6%)
Prescreening matrices       ....       0.181 sec  (  3.2%)
RI-J Coulomb gradient       ....       0.310 sec  (  5.4%)
COSX gradient               ....       0.408 sec  (  7.1%)
XC gradient                 ....       1.940 sec  ( 33.8%)

Maximum memory used throughout the entire SCFGRAD-calculation: 130.3 MB

                            ***************************************
                            *     ORCA property calculations      *
                            ***************************************

                                    ---------------------
                                    Active property flags
                                    ---------------------
   (+) Dipole Moment


------------------------------------------------------------------------------
                       ORCA ELECTRIC PROPERTIES CALCULATION
------------------------------------------------------------------------------

Dipole Moment Calculation                       ... on
Quadrupole Moment Calculation                   ... off
Polarizability Calculation                      ... off
GBWName                                         ... ox_es1_A_orca0046.gbw
Electron density                                ... ox_es1_A_orca0046.scfp
The origin for moment calculation is the CENTER OF MASS  = (-0.045011, -0.005521 -0.030812)

-------------
DIPOLE MOMENT
-------------
                                X             Y             Z
Electronic contribution:      0.03540       1.68362      -0.07852
Nuclear contribution   :     -0.05391      -2.56939       0.05284
                        -----------------------------------------
Total Dipole Moment    :     -0.01851      -0.88576      -0.02568
                        -----------------------------------------
Magnitude (a.u.)       :      0.88633
Magnitude (Debye)      :      2.25287



--------------------
Rotational spectrum 
--------------------
 
Rotational constants in cm-1:     0.769921     0.668173     0.415603 
Rotational constants in MHz : 23081.658895 20031.314435 12459.478098 

 Dipole components along the rotational axes: 
x,y,z [a.u.] :     0.178574    -0.868069    -0.012162 
x,y,z [Debye]:     0.453900    -2.206456    -0.030913 

 

                        *** CIS RELAXED DENSITY ***

------------------------------------------------------------------------------
                       ORCA ELECTRIC PROPERTIES CALCULATION
------------------------------------------------------------------------------

Dipole Moment Calculation                       ... on
Quadrupole Moment Calculation                   ... off
Polarizability Calculation                      ... off
GBWName                                         ... ox_es1_A_orca0046.gbw
Electron density                                ... ox_es1_A_orca0046.cisp
The origin for moment calculation is the CENTER OF MASS  = (-0.045011, -0.005521 -0.030812)

-------------
DIPOLE MOMENT
-------------
                                X             Y             Z
Electronic contribution:     -0.68670       2.44341      -0.05092
Nuclear contribution   :     -0.05391      -2.56939       0.05284
                        -----------------------------------------
Total Dipole Moment    :     -0.74061      -0.12598       0.00192
                        -----------------------------------------
Magnitude (a.u.)       :      0.75125
Magnitude (Debye)      :      1.90953



--------------------
Rotational spectrum 
--------------------
 
Rotational constants in cm-1:     0.769921     0.668173     0.415603 
Rotational constants in MHz : 23081.658895 20031.314435 12459.478098 

 Dipole components along the rotational axes: 
x,y,z [a.u.] :    -0.693993    -0.287259     0.015288 
x,y,z [Debye]:    -1.763990    -0.730154     0.038860 

 

Timings for individual modules:

Sum of individual times         ...        8.746 sec (=   0.146 min)
GTO integral calculation        ...        0.317 sec (=   0.005 min)   3.6 %
SCF iterations                  ...        1.359 sec (=   0.023 min)  15.5 %
CIS module                      ...        1.100 sec (=   0.018 min)  12.6 %
SCF Gradient evaluation         ...        5.969 sec (=   0.099 min)  68.3 %
                             ****ORCA TERMINATED NORMALLY****
TOTAL RUN TIME: 0 days 0 hours 0 minutes 9 seconds 118 msec
