
                                 *****************
                                 * O   R   C   A *
                                 *****************

                                            #,                                       
                                            ###                                      
                                            ####                                     
                                            #####                                    
                                            ######                                   
                                           ########,                                 
                                     ,,################,,,,,                         
                               ,,#################################,,                 
                          ,,##########################################,,             
                       ,#########################################, ''#####,          
                    ,#############################################,,   '####,        
                  ,##################################################,,,,####,       
                ,###########''''           ''''###############################       
              ,#####''   ,,,,##########,,,,          '''####'''          '####       
            ,##' ,,,,###########################,,,                        '##       
           ' ,,###''''                  '''############,,,                           
         ,,##''                                '''############,,,,        ,,,,,,###''
      ,#''                                            '''#######################'''  
     '                                                          ''''####''''         
             ,#######,   #######,   ,#######,      ##                                
            ,#'     '#,  ##    ##  ,#'     '#,    #''#        ######   ,####,        
            ##       ##  ##   ,#'  ##            #'  '#       #        #'  '#        
            ##       ##  #######   ##           ,######,      #####,   #    #        
            '#,     ,#'  ##    ##  '#,     ,#' ,#      #,         ##   #,  ,#        
             '#######'   ##     ##  '#######'  #'      '#     #####' # '####'        



                  #######################################################
                  #                        -***-                        #
                  #          Department of theory and spectroscopy      #
                  #    Directorship and core code : Frank Neese         #
                  #        Max Planck Institute fuer Kohlenforschung    #
                  #                Kaiser Wilhelm Platz 1               #
                  #                 D-45470 Muelheim/Ruhr               #
                  #                      Germany                        #
                  #                                                     #
                  #                  All rights reserved                #
                  #                        -***-                        #
                  #######################################################


                         Program Version 5.0.2 -  RELEASE  -


 With contributions from (in alphabetic order):
   Daniel Aravena         : Magnetic Suceptibility
   Michael Atanasov       : Ab Initio Ligand Field Theory (pilot matlab implementation)
   Alexander A. Auer      : GIAO ZORA, VPT2 properties, NMR spectrum
   Ute Becker             : Parallelization
   Giovanni Bistoni       : ED, misc. LED, open-shell LED, HFLD
   Martin Brehm           : Molecular dynamics
   Dmytro Bykov           : SCF Hessian
   Vijay G. Chilkuri      : MRCI spin determinant printing, contributions to CSF-ICE
   Dipayan Datta          : RHF DLPNO-CCSD density
   Achintya Kumar Dutta   : EOM-CC, STEOM-CC
   Dmitry Ganyushin       : Spin-Orbit,Spin-Spin,Magnetic field MRCI
   Miquel Garcia          : C-PCM and meta-GGA Hessian, CC/C-PCM, Gaussian charge scheme
   Yang Guo               : DLPNO-NEVPT2, F12-NEVPT2, CIM, IAO-localization
   Andreas Hansen         : Spin unrestricted coupled pair/coupled cluster methods
   Benjamin Helmich-Paris : MC-RPA, TRAH-SCF, COSX integrals
   Lee Huntington         : MR-EOM, pCC
   Robert Izsak           : Overlap fitted RIJCOSX, COSX-SCS-MP3, EOM
   Marcus Kettner         : VPT2
   Christian Kollmar      : KDIIS, OOCD, Brueckner-CCSD(T), CCSD density, CASPT2, CASPT2-K
   Simone Kossmann        : Meta GGA functionals, TD-DFT gradient, OOMP2, MP2 Hessian
   Martin Krupicka        : Initial AUTO-CI
   Lucas Lang             : DCDCAS
   Marvin Lechner         : AUTO-CI (C++ implementation), FIC-MRCC
   Dagmar Lenk            : GEPOL surface, SMD
   Dimitrios Liakos       : Extrapolation schemes; Compound Job, initial MDCI parallelization
   Dimitrios Manganas     : Further ROCIS development; embedding schemes
   Dimitrios Pantazis     : SARC Basis sets
   Anastasios Papadopoulos: AUTO-CI, single reference methods and gradients
   Taras Petrenko         : DFT Hessian,TD-DFT gradient, ASA, ECA, R-Raman, ABS, FL, XAS/XES, NRVS
   Peter Pinski           : DLPNO-MP2, DLPNO-MP2 Gradient
   Christoph Reimann      : Effective Core Potentials
   Marius Retegan         : Local ZFS, SOC
   Christoph Riplinger    : Optimizer, TS searches, QM/MM, DLPNO-CCSD(T), (RO)-DLPNO pert. Triples
   Tobias Risthaus        : Range-separated hybrids, TD-DFT gradient, RPA, STAB
   Michael Roemelt        : Original ROCIS implementation
   Masaaki Saitow         : Open-shell DLPNO-CCSD energy and density
   Barbara Sandhoefer     : DKH picture change effects
   Avijit Sen             : IP-ROCIS
   Kantharuban Sivalingam : CASSCF convergence, NEVPT2, FIC-MRCI
   Bernardo de Souza      : ESD, SOC TD-DFT
   Georgi Stoychev        : AutoAux, RI-MP2 NMR, DLPNO-MP2 response
   Willem Van den Heuvel  : Paramagnetic NMR
   Boris Wezisla          : Elementary symmetry handling
   Frank Wennmohs         : Technical directorship


 We gratefully acknowledge several colleagues who have allowed us to
 interface, adapt or use parts of their codes:
   Stefan Grimme, W. Hujo, H. Kruse, P. Pracht,  : VdW corrections, initial TS optimization,
                  C. Bannwarth, S. Ehlert          DFT functionals, gCP, sTDA/sTD-DF
   Ed Valeev, F. Pavosevic, A. Kumar             : LibInt (2-el integral package), F12 methods
   Garnet Chan, S. Sharma, J. Yang, R. Olivares  : DMRG
   Ulf Ekstrom                                   : XCFun DFT Library
   Mihaly Kallay                                 : mrcc  (arbitrary order and MRCC methods)
   Jiri Pittner, Ondrej Demel                    : Mk-CCSD
   Frank Weinhold                                : gennbo (NPA and NBO analysis)
   Christopher J. Cramer and Donald G. Truhlar   : smd solvation model
   Lars Goerigk                                  : TD-DFT with DH, B97 family of functionals
   V. Asgeirsson, H. Jonsson                     : NEB implementation
   FAccTs GmbH                                   : IRC, NEB, NEB-TS, DLPNO-Multilevel, CI-OPT
                                                   MM, QMMM, 2- and 3-layer-ONIOM, Crystal-QMMM,
                                                   LR-CPCM, SF, NACMEs, symmetry and pop. for TD-DFT,
                                                   nearIR, NL-DFT gradient (VV10), updates on ESD,
                                                   ML-optimized integration grids
   S Lehtola, MJT Oliveira, MAL Marques          : LibXC Library
   Liviu Ungur et al                             : ANISO software


 Your calculation uses the libint2 library for the computation of 2-el integrals
 For citations please refer to: http://libint.valeyev.net

 Your ORCA version has been built with support for libXC version: 5.1.0
 For citations please refer to: https://tddft.org/programs/libxc/

 This ORCA versions uses:
   CBLAS   interface :  Fast vector & matrix operations
   LAPACKE interface :  Fast linear algebra routines
   SCALAPACK package :  Parallel linear algebra routines
   Shared memory     :  Shared parallel matrices
   BLAS/LAPACK       :  OpenBLAS 0.3.15  USE64BITINT DYNAMIC_ARCH NO_AFFINITY SkylakeX SINGLE_THREADED
        Core in use  :  SkylakeX
   Copyright (c) 2011-2014, The OpenBLAS Project


Your calculation utilizes the atom-pairwise dispersion correction
with the Becke-Johnson damping scheme (D3BJ)
Cite in your paper:
S.Grimme, S.Ehrlich, L.Goerigk, J Comput Chem, (2011), 32, 1456–1465 
S.Grimme, J.Antony, S.Ehrlich and H.Krieg, J.Chem.Phys., 132, (2010), 154104 
   

================================================================================

----- Orbital basis set information -----
Your calculation utilizes the basis: def2-TZVP
   F. Weigend and R. Ahlrichs, Phys. Chem. Chem. Phys. 7, 3297 (2005).

----- AuxJ basis set information -----
Your calculation utilizes the auxiliary basis: def2/J
   F. Weigend, Phys. Chem. Chem. Phys. 8, 1057 (2006).

================================================================================
                                        WARNINGS
                       Please study these warnings very carefully!
================================================================================

INFO   : Checking CIS options ...

WARNING: CIS/ROCIS methods need fully converged wavefunctions
  ===> : Setting SCFConvForced true
         You can overwrite this default with %scf ConvForced false 


INFO   : the flag for use of the SHARK integral package has been found!

================================================================================
                                       INPUT FILE
================================================================================
NAME = ox_es1_A_orca0000.inp
|  1> ! engrad PBE0 D3BJ def2-TZVP  
|  2> %pal nprocs 8 end
|  3> %maxcore 3000
|  4> 
|  5> %tddft
|  6>   nroots 1
|  7>   tda true
|  8>   Iroot 1
|  9>   end 
| 10> *xyz 0 1 
| 11> O   0.024835757650561636 0.7600110949414408 0.03238453690503462
| 12> C   -0.6527380971795987 -0.4587281587361668 -0.011706847847459028
| 13> C   0.8078501807753695 -0.4086487535423545 -0.023473719296747606
| 14> H   -1.2366949278207016 -0.6914416946406231 0.8966897323214872
| 15> H   -1.2517246564216982 -0.76393492223289 -1.0062221116256516
| 16> H   1.2357084435379513 -0.7189124160167212 -0.9042638533702363
| 17> H   1.2184216662239395 -0.7388859950667646 0.9932586084460777
| 18> *
| 19> 
| 20>                          ****END OF INPUT****
================================================================================

                     *******************************
                     * Energy+Gradient Calculation *
                     *******************************

---------------------------------
CARTESIAN COORDINATES (ANGSTROEM)
---------------------------------
  O      0.024836    0.760011    0.032385
  C     -0.652738   -0.458728   -0.011707
  C      0.807850   -0.408649   -0.023474
  H     -1.236695   -0.691442    0.896690
  H     -1.251725   -0.763935   -1.006222
  H      1.235708   -0.718912   -0.904264
  H      1.218422   -0.738886    0.993259

----------------------------
CARTESIAN COORDINATES (A.U.)
----------------------------
  NO LB      ZA    FRAG     MASS         X           Y           Z
   0 O     8.0000    0    15.999    0.046933    1.436213    0.061198
   1 C     6.0000    0    12.011   -1.233496   -0.866871   -0.022123
   2 C     6.0000    0    12.011    1.526616   -0.772234   -0.044359
   3 H     1.0000    0     1.008   -2.337015   -1.306635    1.694498
   4 H     1.0000    0     1.008   -2.365417   -1.443628   -1.901484
   5 H     1.0000    0     1.008    2.335151   -1.358548   -1.708811
   6 H     1.0000    0     1.008    2.302483   -1.396292    1.876987

--------------------------------
INTERNAL COORDINATES (ANGSTROEM)
--------------------------------
 O      0   0   0     0.000000000000     0.00000000     0.00000000
 C      1   0   0     1.395125710255     0.00000000     0.00000000
 C      1   2   0     1.407834355692    62.85195170     0.00000000
 H      2   1   3     1.104692498711   114.50488521   114.90896310
 H      2   1   3     1.200415210052   119.38206913   250.60616802
 H      3   1   2     1.027189122580   121.09288193   101.12127912
 H      3   1   2     1.145150735332   113.80143021   260.49712694

---------------------------
INTERNAL COORDINATES (A.U.)
---------------------------
 O      0   0   0     0.000000000000     0.00000000     0.00000000
 C      1   0   0     2.636405514774     0.00000000     0.00000000
 C      1   2   0     2.660421374183    62.85195170     0.00000000
 H      2   1   3     2.087566284761   114.50488521   114.90896310
 H      2   1   3     2.268455993992   119.38206913   250.60616802
 H      3   1   2     1.941106129420   121.09288193   101.12127912
 H      3   1   2     2.164021271835   113.80143021   260.49712694

---------------------
BASIS SET INFORMATION
---------------------
There are 3 groups of distinct atoms

 Group   1 Type O   : 11s6p2d1f contracted to 5s3p2d1f pattern {62111/411/11/1}
 Group   2 Type C   : 11s6p2d1f contracted to 5s3p2d1f pattern {62111/411/11/1}
 Group   3 Type H   : 5s1p contracted to 3s1p pattern {311/1}

Atom   0O    basis set group =>   1
Atom   1C    basis set group =>   2
Atom   2C    basis set group =>   2
Atom   3H    basis set group =>   3
Atom   4H    basis set group =>   3
Atom   5H    basis set group =>   3
Atom   6H    basis set group =>   3
---------------------------------
AUXILIARY/J BASIS SET INFORMATION
---------------------------------
There are 3 groups of distinct atoms

 Group   1 Type O   : 12s5p4d2f1g contracted to 6s4p3d1f1g pattern {711111/2111/211/2/1}
 Group   2 Type C   : 12s5p4d2f1g contracted to 6s4p3d1f1g pattern {711111/2111/211/2/1}
 Group   3 Type H   : 5s2p1d contracted to 3s1p1d pattern {311/2/1}

Atom   0O    basis set group =>   1
Atom   1C    basis set group =>   2
Atom   2C    basis set group =>   2
Atom   3H    basis set group =>   3
Atom   4H    basis set group =>   3
Atom   5H    basis set group =>   3
Atom   6H    basis set group =>   3

Checking for AutoStart:
The File: ox_es1_A_orca0000.gbw exists
Trying to determine its content:
     ... Fine, the file contains calculation information
     ... Fine, the calculation information was read
     ... Fine, the file contains a basis set
     ... Fine, the basis set was read
     ... Fine, the file contains a geometry
     ... Fine, the geometry was read
     ... Fine, the file contains a set of orbitals
     ... Fine, the orbitals can be read
     => possible old guess file was deleted
     => GBW file was renamed to GES file
     => GES file is set as startup file
     => Guess is set to MORead
     ... now leaving AutoStart



           ************************************************************
           *        Program running with 8 parallel MPI-processes     *
           *              working on a common directory               *
           ************************************************************
------------------------------------------------------------------------------
                           ORCA GTO INTEGRAL CALCULATION
                           -- RI-GTO INTEGRALS CHOSEN --
------------------------------------------------------------------------------
------------------------------------------------------------------------------
                   ___                                                        
                  /   \      - P O W E R E D   B Y -                         
                 /     \                                                     
                 |  |  |   _    _      __       _____    __    __             
                 |  |  |  | |  | |    /  \     |  _  \  |  |  /  |          
                  \  \/   | |  | |   /    \    | | | |  |  | /  /          
                 / \  \   | |__| |  /  /\  \   | |_| |  |  |/  /          
                |  |  |   |  __  | /  /__\  \  |    /   |      \           
                |  |  |   | |  | | |   __   |  |    \   |  |\   \          
                \     /   | |  | | |  |  |  |  | |\  \  |  | \   \       
                 \___/    |_|  |_| |__|  |__|  |_| \__\ |__|  \__/        
                                                                              
                      - O R C A' S   B I G   F R I E N D -                    
                                      &                                       
                       - I N T E G R A L  F E E D E R -                       
                                                                              
 v1 FN, 2020, v2 2021                                                         
------------------------------------------------------------------------------


Reading SHARK input file ox_es1_A_orca0000.SHARKINP.tmp ... ok
----------------------
SHARK INTEGRAL PACKAGE
----------------------

Number of atoms                             ...      7
Number of basis functions                   ...    117
Number of shells                            ...     49
Maximum angular momentum                    ...      3
Integral batch strategy                     ... SHARK/LIBINT Hybrid
RI-J (if used) integral strategy            ... SPLIT-RIJ (Revised 2003 algorithm where possible)
Printlevel                                  ...      1
Contraction scheme used                     ... SEGMENTED contraction
Coulomb Range Separation                    ... NOT USED
Exchange Range Separation                   ... NOT USED
Finite Nucleus Model                        ... NOT USED
Auxiliary Coulomb fitting basis             ... AVAILABLE
   # of basis functions in Aux-J            ...    191
   # of shells in Aux-J                     ...     65
   Maximum angular momentum in Aux-J        ...      4
Auxiliary J/K fitting basis                 ... NOT available
Auxiliary Correlation fitting basis         ... NOT available
Auxiliary 'external' fitting basis          ... NOT available
Integral threshold                          ...     2.500000e-11
Primitive cut-off                           ...     2.500000e-12
Primitive pair pre-selection threshold      ...     2.500000e-12

Calculating pre-screening integrals         ... done (  0.0 sec) Dimension = 49
Organizing shell pair data                  ... done (  0.0 sec)
Shell pair information
Total number of shell pairs                 ...      1225
Shell pairs after pre-screening             ...      1220
Total number of primitive shell pairs       ...      3648
Primitive shell pairs kept                  ...      3152
          la=0 lb=0:    373 shell pairs
          la=1 lb=0:    351 shell pairs
          la=1 lb=1:     91 shell pairs
          la=2 lb=0:    162 shell pairs
          la=2 lb=1:     78 shell pairs
          la=2 lb=2:     21 shell pairs
          la=3 lb=0:     81 shell pairs
          la=3 lb=1:     39 shell pairs
          la=3 lb=2:     18 shell pairs
          la=3 lb=3:      6 shell pairs

Calculating one electron integrals          ... done (  0.0 sec)
Calculating RI/J V-Matrix + Cholesky decomp.... done (  0.0 sec)
Calculating Nuclear repulsion               ... done (  0.0 sec) ENN=     75.620063065128 Eh

SHARK setup successfully completed in   0.2 seconds

Maximum memory used throughout the entire GTOINT-calculation: 14.9 MB


           ************************************************************
           *        Program running with 8 parallel MPI-processes     *
           *              working on a common directory               *
           ************************************************************
-------------------------------------------------------------------------------
                                 ORCA SCF
-------------------------------------------------------------------------------

------------
SCF SETTINGS
------------
Hamiltonian:
 Density Functional     Method          .... DFT(GTOs)
 Exchange Functional    Exchange        .... PBE
   PBE kappa parameter   XKappa         ....  0.804000
   PBE mue parameter    XMuePBE         ....  0.219520
 Correlation Functional Correlation     .... PBE
   PBE beta parameter  CBetaPBE         ....  0.066725
 LDA part of GGA corr.  LDAOpt          .... PW91-LDA
 Gradients option       PostSCFGGA      .... off
 Hybrid DFT is turned on
   Fraction HF Exchange ScalHFX         ....  0.250000
   Scaling of DF-GGA-X  ScalDFX         ....  0.750000
   Scaling of DF-GGA-C  ScalDFC         ....  1.000000
   Scaling of DF-LDA-C  ScalLDAC        ....  1.000000
   Perturbative correction              ....  0.000000
   Density functional embedding theory  .... OFF
   NL short-range parameter             ....  6.900000
 RI-approximation to the Coulomb term is turned on
   Number of AuxJ basis functions       .... 191
   RIJ-COSX (HFX calculated with COS-X)).... on


General Settings:
 Integral files         IntName         .... ox_es1_A_orca0000
 Hartree-Fock type      HFTyp           .... RHF
 Total Charge           Charge          ....    0
 Multiplicity           Mult            ....    1
 Number of Electrons    NEL             ....   24
 Basis Dimension        Dim             ....  117
 Nuclear Repulsion      ENuc            ....     75.6200630651 Eh

Convergence Acceleration:
 DIIS                   CNVDIIS         .... on
   Start iteration      DIISMaxIt       ....    12
   Startup error        DIISStart       ....  0.200000
   # of expansion vecs  DIISMaxEq       ....     5
   Bias factor          DIISBfac        ....   1.050
   Max. coefficient     DIISMaxC        ....  10.000
 Trust-Rad. Augm. Hess. CNVTRAH         .... auto
   Auto Start mean grad. ratio tolernc. ....  1.125000
   Auto Start start iteration           ....     1
   Auto Start num. interpolation iter.  ....    10
   Max. Number of Micro iterations      ....    16
   Max. Number of Macro iterations      .... Maxiter - #DIIS iter
   Number of Davidson start vectors     ....     2
   Converg. threshold I  (grad. norm)   ....   1.000e-05
   Converg. threshold II (energy diff.) ....   1.000e-08
   Grad. Scal. Fac. for Micro threshold ....   0.100
   Minimum threshold for Micro iter.    ....   0.010
   NR start threshold (gradient norm)   ....   0.001
   Initial trust radius                 ....   0.400
   Minimum AH scaling param. (alpha)    ....   1.000
   Maximum AH scaling param. (alpha)    .... 1000.000
   Orbital update algorithm             .... Taylor
   White noise on init. David. guess    .... on
   Maximum white noise                  ....   0.010
   Quad. conv. algorithm                .... NR
 SOSCF                  CNVSOSCF        .... on
   Start iteration      SOSCFMaxIt      ....   150
   Startup grad/error   SOSCFStart      ....  0.003300
 Level Shifting         CNVShift        .... on
   Level shift para.    LevelShift      ....    0.2500
   Turn off err/grad.   ShiftErr        ....    0.0010
 Zerner damping         CNVZerner       .... off
 Static damping         CNVDamp         .... on
   Fraction old density DampFac         ....    0.7000
   Max. Damping (<1)    DampMax         ....    0.9800
   Min. Damping (>=0)   DampMin         ....    0.0000
   Turn off err/grad.   DampErr         ....    0.1000
 Fernandez-Rico         CNVRico         .... off

SCF Procedure:
 Maximum # iterations   MaxIter         ....   125
 SCF integral mode      SCFMode         .... Direct
   Integral package                     .... SHARK and LIBINT hybrid scheme
 Reset frequency        DirectResetFreq ....    20
 Integral Threshold     Thresh          ....  2.500e-11 Eh
 Primitive CutOff       TCut            ....  2.500e-12 Eh

Convergence Tolerance:
 Convergence Check Mode ConvCheckMode   .... Total+1el-Energy
 Convergence forced     ConvForced      .... 1
 Energy Change          TolE            ....  1.000e-08 Eh
 1-El. energy change                    ....  1.000e-05 Eh
 Orbital Gradient       TolG            ....  1.000e-05
 Orbital Rotation angle TolX            ....  1.000e-05
 DIIS Error             TolErr          ....  5.000e-07


Diagonalization of the overlap matrix:
Smallest eigenvalue                        ... 3.670e-04
Time for diagonalization                   ...    0.011 sec
Threshold for overlap eigenvalues          ... 1.000e-08
Number of eigenvalues below threshold      ... 0
Time for construction of square roots      ...    0.003 sec
Total time needed                          ...    0.014 sec

---------------------
INITIAL GUESS: MOREAD
---------------------
Guess MOs are being read from file: ox_es1_A_orca0000.ges
Input Geometry matches current geometry (good)
Input basis set matches current basis set (good)
MOs were renormalized
MOs were reorthogonalized (Cholesky)
                      ------------------
                      INITIAL GUESS DONE (   0.0 sec)
                      ------------------
-------------------
DFT GRID GENERATION
-------------------

General Integration Accuracy     IntAcc      ... 4.388
Radial Grid Type                 RadialGrid  ... OptM3 with GC (2021)
Angular Grid (max. ang.)         AngularGrid ... 4 (Lebedev-302)
Angular grid pruning method      GridPruning ... 4 (adaptive)
Weight generation scheme         WeightScheme... Becke
Basis function cutoff            BFCut       ... 1.0000e-11
Integration weight cutoff        WCut        ... 1.0000e-14
Angular grids for H and He will be reduced by one unit
Partially contracted basis set               ... off
Rotationally invariant grid construction     ... off

Total number of grid points                  ...    31312
Total number of batches                      ...      494
Average number of points per batch           ...       63
Average number of grid points per atom       ...     4473
Time for grid setup =    0.133 sec

--------------------
COSX GRID GENERATION
--------------------

GRIDX 1
-------
General Integration Accuracy     IntAcc      ... 3.816
Radial Grid Type                 RadialGrid  ... OptM3 with GC (2021)
Angular Grid (max. ang.)         AngularGrid ... 1 (Lebedev-50)
Angular grid pruning method      GridPruning ... 4 (adaptive)
Weight generation scheme         WeightScheme... Becke
Basis function cutoff            BFCut       ... 1.0000e-11
Integration weight cutoff        WCut        ... 1.0000e-14
Angular grids for H and He will be reduced by one unit
Partially contracted basis set               ... on
Rotationally invariant grid construction     ... off

Total number of grid points                  ...     4031
Total number of batches                      ...       68
Average number of points per batch           ...       59
Average number of grid points per atom       ...      576
UseSFitting                                  ... on

GRIDX 2
-------
General Integration Accuracy     IntAcc      ... 4.020
Radial Grid Type                 RadialGrid  ... OptM3 with GC (2021)
Angular Grid (max. ang.)         AngularGrid ... 2 (Lebedev-110)
Angular grid pruning method      GridPruning ... 4 (adaptive)
Weight generation scheme         WeightScheme... Becke
Basis function cutoff            BFCut       ... 1.0000e-11
Integration weight cutoff        WCut        ... 1.0000e-14
Angular grids for H and He will be reduced by one unit
Partially contracted basis set               ... on
Rotationally invariant grid construction     ... off

Total number of grid points                  ...     8696
Total number of batches                      ...      141
Average number of points per batch           ...       61
Average number of grid points per atom       ...     1242
UseSFitting                                  ... on

GRIDX 3
-------
General Integration Accuracy     IntAcc      ... 4.338
Radial Grid Type                 RadialGrid  ... OptM3 with GC (2021)
Angular Grid (max. ang.)         AngularGrid ... 3 (Lebedev-194)
Angular grid pruning method      GridPruning ... 4 (adaptive)
Weight generation scheme         WeightScheme... Becke
Basis function cutoff            BFCut       ... 1.0000e-11
Integration weight cutoff        WCut        ... 1.0000e-14
Angular grids for H and He will be reduced by one unit
Partially contracted basis set               ... on
Rotationally invariant grid construction     ... off

Total number of grid points                  ...    19234
Total number of batches                      ...      303
Average number of points per batch           ...       63
Average number of grid points per atom       ...     2748
UseSFitting                                  ... on

Time for X-Grid setup             =    0.075 sec

--------------
SCF ITERATIONS
--------------
ITER       Energy         Delta-E        Max-DP      RMS-DP      [F,P]     Damp
               ***  Starting incremental Fock matrix formation  ***
                      *** Initiating the SOSCF procedure ***
                      *** Re-Reading the Fockian *** 
                      *** Removing any level shift *** 
ITER      Energy       Delta-E        Grad      Rot      Max-DP    RMS-DP
  0   -153.65753251 -153.6575325098  0.000000  0.000000  0.000001  0.000000
               *** Restarting incremental Fock matrix formation ***
                 **** Energy Check signals convergence ****
              ***Rediagonalizing the Fockian in SOSCF/NRSCF***

               *****************************************************
               *                     SUCCESS                       *
               *           SCF CONVERGED AFTER   1 CYCLES          *
               *****************************************************

Old exchange energy                            =     -4.990857861 Eh
New exchange energy                            =     -4.990853080 Eh
Exchange energy change after final integration =      0.000004781 Eh
Total energy after final integration           =   -153.657527729 Eh
Final COS-X integration done in                =     0.246 sec

----------------
TOTAL SCF ENERGY
----------------

Total Energy       :         -153.65752773 Eh           -4181.23390 eV

Components:
Nuclear Repulsion  :           75.62006307 Eh            2057.72653 eV
Electronic Energy  :         -229.27759079 Eh           -6238.96043 eV
One Electron Energy:         -357.84342315 Eh           -9737.41458 eV
Two Electron Energy:          128.56583235 Eh            3498.45416 eV
Max COSX asymmetry :            0.00000250 Eh               0.00007 eV

Virial components:
Potential Energy   :         -306.55519831 Eh           -8341.79103 eV
Kinetic Energy     :          152.89767058 Eh            4160.55714 eV
Virial Ratio       :            2.00496971


DFT components:
N(Alpha)           :       12.000002735098 electrons
N(Beta)            :       12.000002735098 electrons
N(Total)           :       24.000005470196 electrons
E(X)               :      -14.944286290211 Eh       
E(C)               :       -0.790965924714 Eh       
E(XC)              :      -15.735252214925 Eh       
DFET-embed. en.    :        0.000000000000 Eh       

---------------
SCF CONVERGENCE
---------------

  Last Energy change         ...   -8.4128e-12  Tolerance :   1.0000e-08
  Last MAX-Density change    ...    6.6613e-16  Tolerance :   1.0000e-07
  Last RMS-Density change    ...    1.7899e-17  Tolerance :   5.0000e-09
  Last Orbital Gradient      ...    1.8857e-07  Tolerance :   1.0000e-05
  Last Orbital Rotation      ...    3.8964e-07  Tolerance :   1.0000e-05

             **** THE GBW FILE WAS UPDATED (ox_es1_A_orca0000.gbw) ****
             **** DENSITY ox_es1_A_orca0000.scfp WAS UPDATED ****
             **** ENERGY FILE WAS UPDATED (ox_es1_A_orca0000.en.tmp) ****
             **** THE GBW FILE WAS UPDATED (ox_es1_A_orca0000.gbw) ****
             **** DENSITY ox_es1_A_orca0000.scfp WAS UPDATED ****
----------------
ORBITAL ENERGIES
----------------

  NO   OCC          E(Eh)            E(eV) 
   0   2.0000     -19.231667      -523.3203 
   1   2.0000     -10.282871      -279.8111 
   2   2.0000     -10.276180      -279.6291 
   3   2.0000      -1.127114       -30.6703 
   4   2.0000      -0.702046       -19.1036 
   5   2.0000      -0.646992       -17.6055 
   6   2.0000      -0.534230       -14.5371 
   7   2.0000      -0.502295       -13.6681 
   8   2.0000      -0.428548       -11.6614 
   9   2.0000      -0.387024       -10.5315 
  10   2.0000      -0.324663        -8.8345 
  11   2.0000      -0.295514        -8.0414 
  12   0.0000       0.053246         1.4489 
  13   0.0000       0.081384         2.2146 
  14   0.0000       0.082634         2.2486 
  15   0.0000       0.092938         2.5290 
  16   0.0000       0.109016         2.9665 
  17   0.0000       0.152744         4.1564 
  18   0.0000       0.188095         5.1183 
  19   0.0000       0.214555         5.8383 
  20   0.0000       0.267438         7.2773 
  21   0.0000       0.277395         7.5483 
  22   0.0000       0.306973         8.3532 
  23   0.0000       0.342874         9.3301 
  24   0.0000       0.348353         9.4792 
  25   0.0000       0.388816        10.5802 
  26   0.0000       0.402414        10.9503 
  27   0.0000       0.419104        11.4044 
  28   0.0000       0.447546        12.1783 
  29   0.0000       0.459567        12.5055 
  30   0.0000       0.478696        13.0260 
  31   0.0000       0.517654        14.0861 
  32   0.0000       0.541951        14.7472 
  33   0.0000       0.693887        18.8816 
  34   0.0000       0.710641        19.3375 
  35   0.0000       0.719845        19.5880 
  36   0.0000       0.826938        22.5021 
  37   0.0000       0.889839        24.2138 
  38   0.0000       0.908945        24.7336 
  39   0.0000       0.945771        25.7357 
  40   0.0000       1.022752        27.8305 
  41   0.0000       1.036490        28.2043 
  42   0.0000       1.053358        28.6633 
  43   0.0000       1.084123        29.5005 
  44   0.0000       1.142616        31.0922 
  45   0.0000       1.375685        37.4343 
  46   0.0000       1.450567        39.4719 
  47   0.0000       1.499625        40.8069 
  48   0.0000       1.513572        41.1864 
  49   0.0000       1.531552        41.6756 
  50   0.0000       1.560334        42.4589 
  51   0.0000       1.622222        44.1429 
  52   0.0000       1.659227        45.1499 
  53   0.0000       1.677787        45.6549 
  54   0.0000       1.786901        48.6240 
  55   0.0000       1.797822        48.9212 
  56   0.0000       1.842823        50.1458 
  57   0.0000       1.914067        52.0844 
  58   0.0000       1.940565        52.8055 
  59   0.0000       1.963178        53.4208 
  60   0.0000       2.096007        57.0353 
  61   0.0000       2.158635        58.7394 
  62   0.0000       2.165514        58.9266 
  63   0.0000       2.227904        60.6244 
  64   0.0000       2.258795        61.4649 
  65   0.0000       2.409847        65.5753 
  66   0.0000       2.465342        67.0854 
  67   0.0000       2.489836        67.7519 
  68   0.0000       2.497665        67.9649 
  69   0.0000       2.589102        70.4531 
  70   0.0000       2.610520        71.0359 
  71   0.0000       2.635326        71.7109 
  72   0.0000       2.692021        73.2536 
  73   0.0000       2.722292        74.0773 
  74   0.0000       2.747697        74.7686 
  75   0.0000       2.785507        75.7975 
  76   0.0000       2.876280        78.2675 
  77   0.0000       2.932760        79.8044 
  78   0.0000       2.997009        81.5527 
  79   0.0000       3.013992        82.0149 
  80   0.0000       3.068916        83.5095 
  81   0.0000       3.080307        83.8194 
  82   0.0000       3.132206        85.2317 
  83   0.0000       3.253871        88.5423 
  84   0.0000       3.311275        90.1044 
  85   0.0000       3.329316        90.5953 
  86   0.0000       3.391640        92.2912 
  87   0.0000       3.425564        93.2143 
  88   0.0000       3.563508        96.9680 
  89   0.0000       3.605342        98.1064 
  90   0.0000       3.660744        99.6139 
  91   0.0000       3.737907       101.7136 
  92   0.0000       3.875713       105.4635 
  93   0.0000       3.918468       106.6269 
  94   0.0000       4.060978       110.5048 
  95   0.0000       4.096293       111.4658 
  96   0.0000       4.255545       115.7993 
  97   0.0000       4.296417       116.9115 
  98   0.0000       4.366565       118.8203 
  99   0.0000       4.558155       124.0337 
 100   0.0000       4.656512       126.7101 
 101   0.0000       4.839630       131.6930 
 102   0.0000       5.304558       144.3444 
 103   0.0000       5.479337       149.1003 
 104   0.0000       5.752213       156.5257 
 105   0.0000       5.775505       157.1595 
 106   0.0000       5.807265       158.0237 
 107   0.0000       5.948450       161.8656 
 108   0.0000       6.086532       165.6229 
 109   0.0000       6.618787       180.1063 
 110   0.0000       6.633099       180.4958 
 111   0.0000       6.800570       185.0529 
 112   0.0000       6.966279       189.5621 
 113   0.0000       7.172045       195.1613 
 114   0.0000      22.245413       605.3285 
 115   0.0000      22.417981       610.0243 
 116   0.0000      43.887250      1194.2328 

                    ********************************
                    * MULLIKEN POPULATION ANALYSIS *
                    ********************************

-----------------------
MULLIKEN ATOMIC CHARGES
-----------------------
   0 O :   -0.299371
   1 C :   -0.083889
   2 C :   -0.061763
   3 H :    0.118592
   4 H :    0.106636
   5 H :    0.115590
   6 H :    0.104206
Sum of atomic charges:   -0.0000000

--------------------------------
MULLIKEN REDUCED ORBITAL CHARGES
--------------------------------
  0 O s       :     3.850208  s :     3.850208
      pz      :     1.815062  p :     4.400381
      px      :     1.302691
      py      :     1.282628
      dz2     :     0.006015  d :     0.046396
      dxz     :     0.002812
      dyz     :     0.007344
      dx2y2   :     0.013557
      dxy     :     0.016668
      f0      :     0.000287  f :     0.002386
      f+1     :     0.000216
      f-1     :     0.000486
      f+2     :     0.000097
      f-2     :     0.000224
      f+3     :     0.000387
      f-3     :     0.000689
  1 C s       :     3.233412  s :     3.233412
      pz      :     1.043273  p :     2.718899
      px      :     0.903312
      py      :     0.772314
      dz2     :     0.005283  d :     0.119161
      dxz     :     0.028782
      dyz     :     0.034454
      dx2y2   :     0.029690
      dxy     :     0.020953
      f0      :     0.001606  f :     0.012417
      f+1     :     0.001338
      f-1     :     0.000730
      f+2     :     0.001549
      f-2     :     0.001780
      f+3     :     0.002234
      f-3     :     0.003180
  2 C s       :     3.218195  s :     3.218195
      pz      :     1.016765  p :     2.717721
      px      :     0.918730
      py      :     0.782226
      dz2     :     0.007671  d :     0.113967
      dxz     :     0.024987
      dyz     :     0.031287
      dx2y2   :     0.027965
      dxy     :     0.022058
      f0      :     0.001732  f :     0.011879
      f+1     :     0.001272
      f-1     :     0.000803
      f+2     :     0.000893
      f-2     :     0.001950
      f+3     :     0.002236
      f-3     :     0.002993
  3 H s       :     0.860663  s :     0.860663
      pz      :     0.010204  p :     0.020745
      px      :     0.006677
      py      :     0.003864
  4 H s       :     0.876248  s :     0.876248
      pz      :     0.008882  p :     0.017116
      px      :     0.005285
      py      :     0.002949
  5 H s       :     0.860835  s :     0.860835
      pz      :     0.011417  p :     0.023575
      px      :     0.006962
      py      :     0.005196
  6 H s       :     0.876116  s :     0.876116
      pz      :     0.010962  p :     0.019678
      px      :     0.004843
      py      :     0.003873


                     *******************************
                     * LOEWDIN POPULATION ANALYSIS *
                     *******************************

----------------------
LOEWDIN ATOMIC CHARGES
----------------------
   0 O :    0.162415
   1 C :   -0.337924
   2 C :   -0.308102
   3 H :    0.115731
   4 H :    0.129109
   5 H :    0.104523
   6 H :    0.134247

-------------------------------
LOEWDIN REDUCED ORBITAL CHARGES
-------------------------------
  0 O s       :     3.357729  s :     3.357729
      pz      :     1.693016  p :     4.369511
      px      :     1.286774
      py      :     1.389720
      dz2     :     0.012022  d :     0.102713
      dxz     :     0.008839
      dyz     :     0.016236
      dx2y2   :     0.037746
      dxy     :     0.027870
      f0      :     0.000706  f :     0.007632
      f+1     :     0.000292
      f-1     :     0.000960
      f+2     :     0.000192
      f-2     :     0.001043
      f+3     :     0.001343
      f-3     :     0.003096
  1 C s       :     2.837459  s :     2.837459
      pz      :     1.038006  p :     2.917992
      px      :     1.032213
      py      :     0.847773
      dz2     :     0.051029  d :     0.504617
      dxz     :     0.140948
      dyz     :     0.097629
      dx2y2   :     0.113410
      dxy     :     0.101600
      f0      :     0.010354  f :     0.077856
      f+1     :     0.005520
      f-1     :     0.006063
      f+2     :     0.009788
      f-2     :     0.007398
      f+3     :     0.015616
      f-3     :     0.023117
  2 C s       :     2.818536  s :     2.818536
      pz      :     1.041480  p :     2.930416
      px      :     1.048892
      py      :     0.840044
      dz2     :     0.058481  d :     0.482393
      dxz     :     0.118293
      dyz     :     0.098366
      dx2y2   :     0.104902
      dxy     :     0.102351
      f0      :     0.011928  f :     0.076757
      f+1     :     0.005772
      f-1     :     0.006014
      f+2     :     0.006106
      f-2     :     0.008702
      f+3     :     0.016329
      f-3     :     0.021907
  3 H s       :     0.824751  s :     0.824751
      pz      :     0.030797  p :     0.059518
      px      :     0.017560
      py      :     0.011162
  4 H s       :     0.824817  s :     0.824817
      pz      :     0.025263  p :     0.046074
      px      :     0.012985
      py      :     0.007825
  5 H s       :     0.823006  s :     0.823006
      pz      :     0.036142  p :     0.072471
      px      :     0.019970
      py      :     0.016358
  6 H s       :     0.812620  s :     0.812620
      pz      :     0.030034  p :     0.053133
      px      :     0.012397
      py      :     0.010702


                      *****************************
                      * MAYER POPULATION ANALYSIS *
                      *****************************

  NA   - Mulliken gross atomic population
  ZA   - Total nuclear charge
  QA   - Mulliken gross atomic charge
  VA   - Mayer's total valence
  BVA  - Mayer's bonded valence
  FA   - Mayer's free valence

  ATOM       NA         ZA         QA         VA         BVA        FA
  0 O      8.2994     8.0000    -0.2994     2.0325     2.0325    -0.0000
  1 C      6.0839     6.0000    -0.0839     3.9482     3.9482     0.0000
  2 C      6.0618     6.0000    -0.0618     3.9767     3.9767    -0.0000
  3 H      0.8814     1.0000     0.1186     0.9609     0.9609     0.0000
  4 H      0.8934     1.0000     0.1066     0.9620     0.9620     0.0000
  5 H      0.8844     1.0000     0.1156     0.9574     0.9574     0.0000
  6 H      0.8958     1.0000     0.1042     0.9639     0.9639    -0.0000

  Mayer bond orders larger than 0.100000
B(  0-O ,  1-C ) :   0.9882 B(  0-O ,  2-C ) :   1.0080 B(  1-C ,  2-C ) :   1.0541 
B(  1-C ,  3-H ) :   0.9541 B(  1-C ,  4-H ) :   0.9402 B(  2-C ,  5-H ) :   0.9515 
B(  2-C ,  6-H ) :   0.9490 

-------
TIMINGS
-------

Total SCF time: 0 days 0 hours 0 min 1 sec 

Total time                  ....       1.176 sec
Sum of individual times     ....       1.047 sec  ( 89.0%)

Fock matrix formation       ....       0.814 sec  ( 69.2%)
  Split-RI-J                ....       0.201 sec  ( 24.7% of F)
  Chain of spheres X        ....       0.517 sec  ( 63.5% of F)
  XC integration            ....       0.064 sec  (  7.8% of F)
    Basis function eval.    ....       0.017 sec  ( 26.6% of XC)
    Density eval.           ....       0.014 sec  ( 21.5% of XC)
    XC-Functional eval.     ....       0.006 sec  (  9.0% of XC)
    XC-Potential eval.      ....       0.019 sec  ( 29.8% of XC)
Diagonalization             ....       0.002 sec  (  0.2%)
Density matrix formation    ....       0.000 sec  (  0.0%)
Population analysis         ....       0.003 sec  (  0.2%)
Initial guess               ....       0.016 sec  (  1.4%)
Orbital Transformation      ....       0.000 sec  (  0.0%)
Orbital Orthonormalization  ....       0.001 sec  (  0.1%)
DIIS solution               ....       0.001 sec  (  0.1%)
SOSCF solution              ....       0.002 sec  (  0.2%)
Grid generation             ....       0.207 sec  ( 17.6%)

Maximum memory used throughout the entire SCF-calculation: 61.1 MB


           ************************************************************
           *        Program running with 8 parallel MPI-processes     *
           *              working on a common directory               *
           ************************************************************
------------------------------------------------------------------------------
                        ORCA TD-DFT/TDA CALCULATION
------------------------------------------------------------------------------

Input orbitals are from        ... ox_es1_A_orca0000.gbw
CI-vector output               ... ox_es1_A_orca0000.cis
Tamm-Dancoff approximation     ... operative
CIS-Integral strategy          ... AO-integrals
Integral handling              ... AO integral Direct
Max. core memory used          ... 3000 MB
Reference state                ... RHF
Generation of triplets         ... off
Follow IRoot                   ... off
Number of operators            ... 1
Orbital ranges used for CIS calculation:
 Operator 0:  Orbitals   3... 11  to  12...116
XAS localization array:
 Operator 0:  Orbitals  -1... -1

-------------------
XC-INTEGRATION GRID
-------------------

General Integration Accuracy     IntAcc      ... 3.467
Radial Grid Type                 RadialGrid  ... OptM3 with GC (2021)
Angular Grid (max. ang.)         AngularGrid ... 1 (Lebedev-50)
Angular grid pruning method      GridPruning ... 4 (adaptive)
Weight generation scheme         WeightScheme... Becke
Basis function cutoff            BFCut       ... 1.0000e-11
Integration weight cutoff        WCut        ... 1.0000e-14
Angular grids for H and He will be reduced by one unit
Partially contracted basis set               ... off
Rotationally invariant grid construction     ... off

Total number of grid points                  ...     4529
Total number of batches                      ...       75
Average number of points per batch           ...       60
Average number of grid points per atom       ...      647

---------------------
COSX-INTEGRATION GRID
---------------------

General Integration Accuracy     IntAcc      ... 3.067
Radial Grid Type                 RadialGrid  ... OptM3 with GC (2021)
Angular Grid (max. ang.)         AngularGrid ... 1 (Lebedev-50)
Angular grid pruning method      GridPruning ... 4 (adaptive)
Weight generation scheme         WeightScheme... Becke
Basis function cutoff            BFCut       ... 1.0000e-11
Integration weight cutoff        WCut        ... 1.0000e-14
Angular grids for H and He will be reduced by one unit
Partially contracted basis set               ... on
Rotationally invariant grid construction     ... off

Total number of grid points                  ...     2084
Total number of batches                      ...       37
Average number of points per batch           ...       56
Average number of grid points per atom       ...      298

---------------
TD-DFT XC SETUP
---------------

DFT calculation                         ... on
Name of the grid file                   ... ox_es1_A_orca0000.grid_cis.tmp
Exchange functional (TD-DFT)            ... PBE
   PBE kappa parameter  XKappa (TD-DFT) ...  0.804000
   PBE mue parameter   XMuePBE (TD-DFT) ...  0.219520
Correlation functional (TD-DFT)         ... PBE
   PBE beta parameter CBetaPBE (TD-DFT) ...  0.066725
 LDA part of GGA corr.  LDAOpt (TD-DFT) ... PW91-LDA
Hybrid DFT                              ... on
   Exchange mixing (TD-DFT)             ...  0.250
   GGA exch. scaling (TD-DFT)           ...  0.750
   GGA corr. scaling (TD-DFT)           ...  1.000

Building densities             ... done
Calculating rho(r) on the grid ... done
Building xc-kernel on the grid ... done
                    *** TD-DFT CALCULATION INITIALIZED ***

------------------------
DAVIDSON-DIAGONALIZATION
------------------------

Dimension of the eigenvalue problem            ...    945
Number of roots to be determined               ...      1
Maximum size of the expansion space            ...     10
Maximum number of iterations                   ...    100
Convergence tolerance for the residual         ...    2.500e-07
Convergence tolerance for the energies         ...    2.500e-07
Orthogonality tolerance                        ...    1.000e-14
Level Shift                                    ...    0.000e+00
Constructing the preconditioner                ... o.k.
Building the initial guess                     ... o.k.
Number of trial vectors determined             ...     10


                       ****Iteration    0****

   Memory handling for direct AO based CIS:
   Memory per vector needed      ...     1 MB
   Memory needed                 ...     1 MB
   Memory available              ...  3000 MB
   Number of vectors per batch   ...  3000
   Number of batches             ...     1
   Time for densities:            0.001
   Time for RI-J (Direct):        0.688
   Time for K (COSX):             0.058
   Time for XC-Integration:       0.016
   Time for Sigma-Completion:     0.000
   Size of expansion space: 3
   Lowest Energy          :     0.300642652395
   Maximum Energy change  :     0.300642652395 (vector 0)
   Maximum residual norm  :     0.001420583748

                       ****Iteration    1****
   Time for densities:            0.000
   Time for RI-J (Direct):        0.294
   Time for K (COSX):             0.049
   Time for XC-Integration:       0.006
   Time for Sigma-Completion:     0.000
   Size of expansion space: 4
   Lowest Energy          :     0.298676388443
   Maximum Energy change  :     0.001966263952 (vector 0)
   Maximum residual norm  :     0.000111621532

                       ****Iteration    2****
   Time for densities:            0.000
   Time for RI-J (Direct):        0.012
   Time for K (COSX):             0.049
   Time for XC-Integration:       0.006
   Time for Sigma-Completion:     0.000
   Size of expansion space: 5
   Lowest Energy          :     0.298405937905
   Maximum Energy change  :     0.000270450538 (vector 0)
   Maximum residual norm  :     0.000062761584

                       ****Iteration    3****
   Time for densities:            0.000
   Time for RI-J (Direct):        0.012
   Time for K (COSX):             0.049
   Time for XC-Integration:       0.006
   Time for Sigma-Completion:     0.000
   Size of expansion space: 6
   Lowest Energy          :     0.298256482219
   Maximum Energy change  :     0.000149455686 (vector 0)
   Maximum residual norm  :     0.000037312591

                       ****Iteration    4****
   Time for densities:            0.000
   Time for RI-J (Direct):        0.012
   Time for K (COSX):             0.048
   Time for XC-Integration:       0.006
   Time for Sigma-Completion:     0.000
   Size of expansion space: 7
   Lowest Energy          :     0.298168555447
   Maximum Energy change  :     0.000087926772 (vector 0)
   Maximum residual norm  :     0.000012054009

                       ****Iteration    5****
   Time for densities:            0.000
   Time for RI-J (Direct):        0.012
   Time for K (COSX):             0.048
   Time for XC-Integration:       0.007
   Time for Sigma-Completion:     0.000
   Size of expansion space: 8
   Lowest Energy          :     0.298152480192
   Maximum Energy change  :     0.000016075255 (vector 0)
   Maximum residual norm  :     0.000001680742

                       ****Iteration    6****
   Time for densities:            0.000
   Time for RI-J (Direct):        0.012
   Time for K (COSX):             0.048
   Time for XC-Integration:       0.006
   Time for Sigma-Completion:     0.000
   Size of expansion space: 9
   Lowest Energy          :     0.298149140339
   Maximum Energy change  :     0.000003339853 (vector 0)
   Maximum residual norm  :     0.000000796135

                       ****Iteration    7****
   Time for densities:            0.000
   Time for RI-J (Direct):        0.012
   Time for K (COSX):             0.049
   Time for XC-Integration:       0.006
   Time for Sigma-Completion:     0.000
   Size of expansion space: 10
   Lowest Energy          :     0.298147402673
   Maximum Energy change  :     0.000001737667 (vector 0)
   Maximum residual norm  :     0.000000360247
   Rebuilding the expansion space

                       ****Iteration    8****
   Time for densities:            0.000
   Time for RI-J (Direct):        0.014
   Time for K (COSX):             0.052
   Time for XC-Integration:       0.011
   Time for Sigma-Completion:     0.000
   Size of expansion space: 2
   Lowest Energy          :     0.298147265593
   Maximum Energy change  :     0.000000137080 (vector 0)

         *** CONVERGENCE OF ENERGIES REACHED ***

Storing the converged CI vectors               ... ox_es1_A_orca0000.cis1

                 *** DAVIDSON DONE ***

Total time for solving the CIS problem:     1.606sec

------------------------------------
TD-DFT/TDA EXCITED STATES (SINGLETS)
------------------------------------

the weight of the individual excitations are printed if larger than 1.0e-02

STATE  1:  E=   0.298147 au      8.113 eV    65435.8 cm**-1 <S**2> =   0.000000
    11a ->  12a  :     0.959113 (c= -0.97934327)
    11a ->  15a  :     0.018007 (c=  0.13419134)


-----------------------------
TD-DFT/TDA-EXCITATION SPECTRA
-----------------------------

Center of mass = (  0.0955, -0.0513,  0.0032)
Calculating the Dipole integrals                  ... done
Transforming integrals                            ... done
Calculating the Linear Momentum integrals         ... done
Transforming integrals                            ... done
Calculating angular momentum integrals            ... done
Transforming integrals                            ... done

-----------------------------------------------------------------------------
         ABSORPTION SPECTRUM VIA TRANSITION ELECTRIC DIPOLE MOMENTS
-----------------------------------------------------------------------------
State   Energy    Wavelength  fosc         T2        TX        TY        TZ  
        (cm-1)      (nm)                 (au**2)    (au)      (au)      (au) 
-----------------------------------------------------------------------------
   1   65435.8    152.8   0.098402126   0.49507   0.10765  -0.00415   0.69531

-----------------------------------------------------------------------------
         ABSORPTION SPECTRUM VIA TRANSITION VELOCITY DIPOLE MOMENTS
-----------------------------------------------------------------------------
State   Energy    Wavelength   fosc        P2         PX        PY        PZ  
        (cm-1)      (nm)                 (au**2)     (au)      (au)      (au) 
-----------------------------------------------------------------------------
   1   65435.8    152.8   0.066775049   0.02986  -0.02293   0.00658  -0.17116

-------------------------------------------------------------------
                             CD SPECTRUM
-------------------------------------------------------------------
State  Energy     Wavelength     R         MX        MY        MZ   
       (cm-1)       (nm)     (1e40*cgs)   (au)      (au)      (au)  
-------------------------------------------------------------------
   1   65435.8    152.8    -19.28046  -0.20074  -0.01493  -0.02783

-------------------------------------------------------------------
         CD SPECTRUM VIA TRANSITION VELOCITY DIPOLE MOMENTS        
-------------------------------------------------------------------
State  Energy     Wavelength     R         MX        MY        MZ   
       (cm-1)       (nm)     (1e40*cgs)   (au)      (au)      (au)  
-------------------------------------------------------------------
   1   65435.8    152.8     14.65302  -0.20074  -0.01493  -0.02783

Total run time:        2.079 sec

           *** ORCA-CIS/TD-DFT FINISHED WITHOUT ERROR ***

Maximum memory used throughout the entire CIS-calculation: 49.4 MB

-----------------------
CIS/TD-DFT TOTAL ENERGY
-----------------------

    E(SCF)  =   -153.657527729 Eh
    DE(CIS) =      0.298147266 Eh (Root  1)
    ----------------------------- ---------
    E(tot)  =   -153.359380463 Eh



-------------------------------------------------------------------------------
                          DFT DISPERSION CORRECTION                            
                                                                               
                              DFTD3 V3.1  Rev 1                                
                          USING Becke-Johnson damping                          
-------------------------------------------------------------------------------
The PBE0 functional is recognized
Active option DFTDOPT                   ...         4   

molecular C6(AA) [au] = 351.275270 


            DFT-D V3
 parameters
 s6 scaling factor         :     1.0000 
 a1 scaling factor         :     0.4145 
 s8 scaling factor         :     1.2177 
 a2 scaling factor         :     4.8593 
 ad hoc parameters k1-k3   :    16.0000     1.3333    -4.0000 

 Edisp/kcal,au: -1.512480411973  -0.002410290702 
 E6   /kcal   :  -0.991696489 
 E8   /kcal   :  -0.520783923 
 % E8         :  34.432440830 

-------------------------   ----------------
Dispersion correction           -0.002410291
-------------------------   ----------------


-------------------------   --------------------
FINAL SINGLE POINT ENERGY      -153.361790753906
-------------------------   --------------------



           ************************************************************
           *        Program running with 8 parallel MPI-processes     *
           *              working on a common directory               *
           ************************************************************
------------------------------------------------------------------------------
                         ORCA SCF GRADIENT CALCULATION
------------------------------------------------------------------------------


------------------------
TD-DFT GRADIENT XC SETUP
------------------------

Building densities                     ... done
Calculating rho(r) on the grid         ... done
Building xc-kernel on the grid         ... done
Building xc 3rd derivative on the grid      ... done
                *** TD-DFT GRADIENT CALCULATION INITIALIZED ***

-------------------
TD-DFT/TDA GRADIENT
-------------------

Reference wavefunction             ... RHF
State of interest                  ... 1
Basis dimension                    ... 117
DFT-XC contribution needed         ... YES
RI-approximation                   ... ON
CIS-vectors being read from        ... ox_es1_A_orca0000.cis

 => Number of Vectors found: 1
 => Orbital Window: 3...11 -> 12...116

Reading the CIS file                     ... done
Norm of the CI vector                    ... 1.000000000
Making the CIS (pseudo)densities         ... done
Making operators G(D) and Q(T)           ... done
Transforming the Fock operators          ... done
Making the frozen-core relaxed density   ... done
Constructing the G(H) operator           ... done
Transforming the G(H) operator           ... done
Calculating the CIS Lagrangian           ... done
Solving the Z-vector equations           ... done
Finalizing the relaxed density           ... done
Storing the relaxed density              ... done
Constructing the G(Z) operator           ... done
Transforming the G(Z) operator           ... done
Making the W-matrix                      ... done
Finalizing the W-matrix                  ... done
Transforming the W-matrix                ... done
Nuclear repulsion gradient               ... done
One-Electron gradient                    ... done
Dispersion correction                    ... done
Prescreening matrices                    ... done
COSX-gradient                            ... done
Coulomb gradient (RI)                    ... done
Exchange-Correlation gradient            ... done

                 ---------------------------
                 EXCITED STATE GRADIENT DONE
                 ---------------------------

------------------
CARTESIAN GRADIENT
------------------

   1   O   :    0.027011149   -0.037767655    0.006200056
   2   C   :    0.026309578    0.021774740    0.028069620
   3   C   :   -0.008832905    0.038252280   -0.071089979
   4   H   :    0.002427359   -0.004681934   -0.012180011
   5   H   :   -0.018276228   -0.018112757   -0.017550114
   6   H   :   -0.026650880    0.009201931    0.055134941
   7   H   :   -0.002017487   -0.008708581    0.011381696

Difference to translation invariance:
           :   -0.0000294139   -0.0000419778   -0.0000337900

Difference to rotation invariance:
           :   -0.0000224557    0.0000095438   -0.0000562915

Norm of the cartesian gradient     ...    0.1262309044
RMS gradient                       ...    0.0275458416
MAX gradient                       ...    0.0710899791

------------------------------------------------------------------------------
                  RELAXED CIS/TDA DENSITY POPULATION ANALYSIS
                                   IROOT 1
------------------------------------------------------------------------------
------------------------------------------------------------------------------
                           ORCA POPULATION ANALYSIS
------------------------------------------------------------------------------
Input electron density              ... ox_es1_A_orca0000.cisp
BaseName (.gbw .S,...)              ... ox_es1_A_orca0000

                    ********************************
                    * MULLIKEN POPULATION ANALYSIS *
                    ********************************

-----------------------
MULLIKEN ATOMIC CHARGES
-----------------------
   0 O :    0.049652
   1 C :    0.418679
   2 C :    0.003157
   3 H :   -0.176463
   4 H :   -0.181712
   5 H :   -0.032767
   6 H :   -0.080546
Sum of atomic charges:   -0.0000000

--------------------------------
MULLIKEN REDUCED ORBITAL CHARGES
--------------------------------
  0 O s       :     3.866496  s :     3.866496
      pz      :     1.175889  p :     4.034134
      px      :     1.466450
      py      :     1.391795
      dz2     :     0.005535  d :     0.047698
      dxz     :     0.003525
      dyz     :     0.008257
      dx2y2   :     0.015145
      dxy     :     0.015236
      f0      :     0.000169  f :     0.002020
      f+1     :     0.000056
      f-1     :     0.000281
      f+2     :     0.000108
      f-2     :     0.000255
      f+3     :     0.000384
      f-3     :     0.000768
  1 C s       :     2.888488  s :     2.888488
      pz      :     1.072150  p :     2.586633
      px      :     0.892896
      py      :     0.621586
      dz2     :     0.015645  d :     0.094688
      dxz     :     0.022707
      dyz     :     0.009401
      dx2y2   :     0.028961
      dxy     :     0.017973
      f0      :     0.001072  f :     0.011513
      f+1     :     0.001502
      f-1     :     0.000763
      f+2     :     0.001078
      f-2     :     0.001343
      f+3     :     0.002738
      f-3     :     0.003017
  2 C s       :     3.113540  s :     3.113540
      pz      :     1.076293  p :     2.777007
      px      :     0.974996
      py      :     0.725719
      dz2     :     0.018273  d :     0.095378
      dxz     :     0.016204
      dyz     :     0.008204
      dx2y2   :     0.026829
      dxy     :     0.025867
      f0      :     0.001196  f :     0.010918
      f+1     :     0.001281
      f-1     :     0.001061
      f+2     :     0.000723
      f-2     :     0.001372
      f+3     :     0.002511
      f-3     :     0.002773
  3 H s       :     1.148848  s :     1.148848
      pz      :     0.016424  p :     0.027615
      px      :     0.007932
      py      :     0.003258
  4 H s       :     1.157193  s :     1.157193
      pz      :     0.014987  p :     0.024519
      px      :     0.006651
      py      :     0.002882
  5 H s       :     1.003535  s :     1.003535
      pz      :     0.015657  p :     0.029232
      px      :     0.006997
      py      :     0.006577
  6 H s       :     1.054467  s :     1.054467
      pz      :     0.016033  p :     0.026079
      px      :     0.004766
      py      :     0.005281


                     *******************************
                     * LOEWDIN POPULATION ANALYSIS *
                     *******************************

----------------------
LOEWDIN ATOMIC CHARGES
----------------------
   0 O :    0.497777
   1 C :   -0.294506
   2 C :   -0.372769
   3 H :    0.025515
   4 H :    0.031505
   5 H :    0.056248
   6 H :    0.056230

-------------------------------
LOEWDIN REDUCED ORBITAL CHARGES
-------------------------------
  0 O s       :     3.386300  s :     3.386300
      pz      :     1.107595  p :     3.998881
      px      :     1.417195
      py      :     1.474091
      dz2     :     0.015960  d :     0.109504
      dxz     :     0.010597
      dyz     :     0.017233
      dx2y2   :     0.041280
      dxy     :     0.024435
      f0      :     0.000741  f :     0.007537
      f+1     :     0.000139
      f-1     :     0.000807
      f+2     :     0.000201
      f-2     :     0.001197
      f+3     :     0.001099
      f-3     :     0.003352
  1 C s       :     2.928448  s :     2.928448
      pz      :     1.023586  p :     2.842484
      px      :     1.044593
      py      :     0.774305
      dz2     :     0.072597  d :     0.446114
      dxz     :     0.117298
      dyz     :     0.038810
      dx2y2   :     0.117369
      dxy     :     0.100039
      f0      :     0.007781  f :     0.077461
      f+1     :     0.006866
      f-1     :     0.007242
      f+2     :     0.006994
      f-2     :     0.005923
      f+3     :     0.018825
      f-3     :     0.023829
  2 C s       :     2.872233  s :     2.872233
      pz      :     1.053514  p :     2.931831
      px      :     1.076870
      py      :     0.801447
      dz2     :     0.088255  d :     0.489049
      dxz     :     0.100608
      dyz     :     0.040172
      dx2y2   :     0.125825
      dxy     :     0.134189
      f0      :     0.009232  f :     0.079657
      f+1     :     0.006121
      f-1     :     0.008630
      f+2     :     0.004951
      f-2     :     0.006644
      f+3     :     0.021391
      f-3     :     0.022688
  3 H s       :     0.890970  s :     0.890970
      pz      :     0.052280  p :     0.083516
      px      :     0.021887
      py      :     0.009348
  4 H s       :     0.893601  s :     0.893601
      pz      :     0.049022  p :     0.074895
      px      :     0.018214
      py      :     0.007660
  5 H s       :     0.853755  s :     0.853755
      pz      :     0.050282  p :     0.089996
      px      :     0.020462
      py      :     0.019252
  6 H s       :     0.867190  s :     0.867190
      pz      :     0.049307  p :     0.076580
      px      :     0.012539
      py      :     0.014735


                      *****************************
                      * MAYER POPULATION ANALYSIS *
                      *****************************

  NA   - Mulliken gross atomic population
  ZA   - Total nuclear charge
  QA   - Mulliken gross atomic charge
  VA   - Mayer's total valence
  BVA  - Mayer's bonded valence
  FA   - Mayer's free valence

  ATOM       NA         ZA         QA         VA         BVA        FA
  0 O      7.9503     8.0000     0.0497     2.3969     1.6914     0.7055
  1 C      5.5813     6.0000     0.4187     2.2121     2.5233    -0.3112
  2 C      5.9968     6.0000     0.0032     3.3402     3.2623     0.0780
  3 H      1.1765     1.0000    -0.1765     1.3952     0.9899     0.4053
  4 H      1.1817     1.0000    -0.1817     1.3708     0.9253     0.4455
  5 H      1.0328     1.0000    -0.0328     1.2483     1.0189     0.2294
  6 H      1.0805     1.0000    -0.0805     1.2583     0.9696     0.2887

  Mayer bond orders larger than 0.100000
B(  0-O ,  1-C ) :   0.8757 B(  0-O ,  2-C ) :   0.7299 B(  1-C ,  2-C ) :   0.9912 
B(  1-C ,  3-H ) :   0.5258 B(  1-C ,  4-H ) :   0.4084 B(  1-C ,  5-H ) :  -0.1253 
B(  1-C ,  6-H ) :  -0.1525 B(  2-C ,  5-H ) :   0.8148 B(  2-C ,  6-H ) :   0.7183 
B(  3-H ,  4-H ) :   0.2074 B(  3-H ,  5-H ) :   0.1082 B(  3-H ,  6-H ) :   0.1214 
B(  4-H ,  5-H ) :   0.1080 B(  4-H ,  6-H ) :   0.1695 


-------
TIMINGS
-------

Total TD-DFT gradient time         ...        5.548 sec

Fock matrix formation       ....       0.862 sec  ( 15.5%)
  Coulomb formation         ....       0.705 sec  ( 81.7% of F)
  RI-J                      ....       0.322 sec  ( 37.3% of F)
  Chain of spheres X        ....       0.383 sec  ( 44.4% of F)
  XC integration            ....       0.158 sec  ( 18.3% of F)
Z-vector equation           ....       1.405 sec  ( 25.3%)
One electron gradient       ....       0.032 sec  (  0.6%)
Prescreening matrices       ....       0.155 sec  (  2.8%)
RI-J Coulomb gradient       ....       0.267 sec  (  4.8%)
COSX gradient               ....       0.332 sec  (  6.0%)
XC gradient                 ....       1.749 sec  ( 31.5%)

Maximum memory used throughout the entire SCFGRAD-calculation: 130.3 MB

                            ***************************************
                            *     ORCA property calculations      *
                            ***************************************

                                    ---------------------
                                    Active property flags
                                    ---------------------
   (+) Dipole Moment


------------------------------------------------------------------------------
                       ORCA ELECTRIC PROPERTIES CALCULATION
------------------------------------------------------------------------------

Dipole Moment Calculation                       ... on
Quadrupole Moment Calculation                   ... off
Polarizability Calculation                      ... off
GBWName                                         ... ox_es1_A_orca0000.gbw
Electron density                                ... ox_es1_A_orca0000.scfp
The origin for moment calculation is the CENTER OF MASS  = ( 0.095481, -0.051267  0.003211)

-------------
DIPOLE MOMENT
-------------
                                X             Y             Z
Electronic contribution:      0.23909       1.90011       0.00184
Nuclear contribution   :     -0.22216      -2.61962      -0.02519
                        -----------------------------------------
Total Dipole Moment    :      0.01693      -0.71951      -0.02335
                        -----------------------------------------
Magnitude (a.u.)       :      0.72009
Magnitude (Debye)      :      1.83033



--------------------
Rotational spectrum 
--------------------
 
Rotational constants in cm-1:     0.861966     0.744219     0.482637 
Rotational constants in MHz : 25841.087032 22311.137241 14469.095572 

 Dipole components along the rotational axes: 
x,y,z [a.u.] :     0.011758    -0.719856     0.014159 
x,y,z [Debye]:     0.029888    -1.829729     0.035988 

 

                        *** CIS RELAXED DENSITY ***

------------------------------------------------------------------------------
                       ORCA ELECTRIC PROPERTIES CALCULATION
------------------------------------------------------------------------------

Dipole Moment Calculation                       ... on
Quadrupole Moment Calculation                   ... off
Polarizability Calculation                      ... off
GBWName                                         ... ox_es1_A_orca0000.gbw
Electron density                                ... ox_es1_A_orca0000.cisp
The origin for moment calculation is the CENTER OF MASS  = ( 0.095481, -0.051267  0.003211)

-------------
DIPOLE MOMENT
-------------
                                X             Y             Z
Electronic contribution:      0.35112       3.12091      -0.04419
Nuclear contribution   :     -0.22216      -2.61962      -0.02519
                        -----------------------------------------
Total Dipole Moment    :      0.12896       0.50129      -0.06938
                        -----------------------------------------
Magnitude (a.u.)       :      0.52224
Magnitude (Debye)      :      1.32743



--------------------
Rotational spectrum 
--------------------
 
Rotational constants in cm-1:     0.861966     0.744219     0.482637 
Rotational constants in MHz : 25841.087032 22311.137241 14469.095572 

 Dipole components along the rotational axes: 
x,y,z [a.u.] :     0.131870     0.496025    -0.096466 
x,y,z [Debye]:     0.335186     1.260795    -0.245197 

 

Timings for individual modules:

Sum of individual times         ...       10.416 sec (=   0.174 min)
GTO integral calculation        ...        0.778 sec (=   0.013 min)   7.5 %
SCF iterations                  ...        1.398 sec (=   0.023 min)  13.4 %
CIS module                      ...        2.376 sec (=   0.040 min)  22.8 %
SCF Gradient evaluation         ...        5.864 sec (=   0.098 min)  56.3 %
                             ****ORCA TERMINATED NORMALLY****
TOTAL RUN TIME: 0 days 0 hours 0 minutes 10 seconds 947 msec
