
                                 *****************
                                 * O   R   C   A *
                                 *****************

                                            #,                                       
                                            ###                                      
                                            ####                                     
                                            #####                                    
                                            ######                                   
                                           ########,                                 
                                     ,,################,,,,,                         
                               ,,#################################,,                 
                          ,,##########################################,,             
                       ,#########################################, ''#####,          
                    ,#############################################,,   '####,        
                  ,##################################################,,,,####,       
                ,###########''''           ''''###############################       
              ,#####''   ,,,,##########,,,,          '''####'''          '####       
            ,##' ,,,,###########################,,,                        '##       
           ' ,,###''''                  '''############,,,                           
         ,,##''                                '''############,,,,        ,,,,,,###''
      ,#''                                            '''#######################'''  
     '                                                          ''''####''''         
             ,#######,   #######,   ,#######,      ##                                
            ,#'     '#,  ##    ##  ,#'     '#,    #''#        ######   ,####,        
            ##       ##  ##   ,#'  ##            #'  '#       #        #'  '#        
            ##       ##  #######   ##           ,######,      #####,   #    #        
            '#,     ,#'  ##    ##  '#,     ,#' ,#      #,         ##   #,  ,#        
             '#######'   ##     ##  '#######'  #'      '#     #####' # '####'        



                  #######################################################
                  #                        -***-                        #
                  #          Department of theory and spectroscopy      #
                  #    Directorship and core code : Frank Neese         #
                  #        Max Planck Institute fuer Kohlenforschung    #
                  #                Kaiser Wilhelm Platz 1               #
                  #                 D-45470 Muelheim/Ruhr               #
                  #                      Germany                        #
                  #                                                     #
                  #                  All rights reserved                #
                  #                        -***-                        #
                  #######################################################


                         Program Version 5.0.2 -  RELEASE  -


 With contributions from (in alphabetic order):
   Daniel Aravena         : Magnetic Suceptibility
   Michael Atanasov       : Ab Initio Ligand Field Theory (pilot matlab implementation)
   Alexander A. Auer      : GIAO ZORA, VPT2 properties, NMR spectrum
   Ute Becker             : Parallelization
   Giovanni Bistoni       : ED, misc. LED, open-shell LED, HFLD
   Martin Brehm           : Molecular dynamics
   Dmytro Bykov           : SCF Hessian
   Vijay G. Chilkuri      : MRCI spin determinant printing, contributions to CSF-ICE
   Dipayan Datta          : RHF DLPNO-CCSD density
   Achintya Kumar Dutta   : EOM-CC, STEOM-CC
   Dmitry Ganyushin       : Spin-Orbit,Spin-Spin,Magnetic field MRCI
   Miquel Garcia          : C-PCM and meta-GGA Hessian, CC/C-PCM, Gaussian charge scheme
   Yang Guo               : DLPNO-NEVPT2, F12-NEVPT2, CIM, IAO-localization
   Andreas Hansen         : Spin unrestricted coupled pair/coupled cluster methods
   Benjamin Helmich-Paris : MC-RPA, TRAH-SCF, COSX integrals
   Lee Huntington         : MR-EOM, pCC
   Robert Izsak           : Overlap fitted RIJCOSX, COSX-SCS-MP3, EOM
   Marcus Kettner         : VPT2
   Christian Kollmar      : KDIIS, OOCD, Brueckner-CCSD(T), CCSD density, CASPT2, CASPT2-K
   Simone Kossmann        : Meta GGA functionals, TD-DFT gradient, OOMP2, MP2 Hessian
   Martin Krupicka        : Initial AUTO-CI
   Lucas Lang             : DCDCAS
   Marvin Lechner         : AUTO-CI (C++ implementation), FIC-MRCC
   Dagmar Lenk            : GEPOL surface, SMD
   Dimitrios Liakos       : Extrapolation schemes; Compound Job, initial MDCI parallelization
   Dimitrios Manganas     : Further ROCIS development; embedding schemes
   Dimitrios Pantazis     : SARC Basis sets
   Anastasios Papadopoulos: AUTO-CI, single reference methods and gradients
   Taras Petrenko         : DFT Hessian,TD-DFT gradient, ASA, ECA, R-Raman, ABS, FL, XAS/XES, NRVS
   Peter Pinski           : DLPNO-MP2, DLPNO-MP2 Gradient
   Christoph Reimann      : Effective Core Potentials
   Marius Retegan         : Local ZFS, SOC
   Christoph Riplinger    : Optimizer, TS searches, QM/MM, DLPNO-CCSD(T), (RO)-DLPNO pert. Triples
   Tobias Risthaus        : Range-separated hybrids, TD-DFT gradient, RPA, STAB
   Michael Roemelt        : Original ROCIS implementation
   Masaaki Saitow         : Open-shell DLPNO-CCSD energy and density
   Barbara Sandhoefer     : DKH picture change effects
   Avijit Sen             : IP-ROCIS
   Kantharuban Sivalingam : CASSCF convergence, NEVPT2, FIC-MRCI
   Bernardo de Souza      : ESD, SOC TD-DFT
   Georgi Stoychev        : AutoAux, RI-MP2 NMR, DLPNO-MP2 response
   Willem Van den Heuvel  : Paramagnetic NMR
   Boris Wezisla          : Elementary symmetry handling
   Frank Wennmohs         : Technical directorship


 We gratefully acknowledge several colleagues who have allowed us to
 interface, adapt or use parts of their codes:
   Stefan Grimme, W. Hujo, H. Kruse, P. Pracht,  : VdW corrections, initial TS optimization,
                  C. Bannwarth, S. Ehlert          DFT functionals, gCP, sTDA/sTD-DF
   Ed Valeev, F. Pavosevic, A. Kumar             : LibInt (2-el integral package), F12 methods
   Garnet Chan, S. Sharma, J. Yang, R. Olivares  : DMRG
   Ulf Ekstrom                                   : XCFun DFT Library
   Mihaly Kallay                                 : mrcc  (arbitrary order and MRCC methods)
   Jiri Pittner, Ondrej Demel                    : Mk-CCSD
   Frank Weinhold                                : gennbo (NPA and NBO analysis)
   Christopher J. Cramer and Donald G. Truhlar   : smd solvation model
   Lars Goerigk                                  : TD-DFT with DH, B97 family of functionals
   V. Asgeirsson, H. Jonsson                     : NEB implementation
   FAccTs GmbH                                   : IRC, NEB, NEB-TS, DLPNO-Multilevel, CI-OPT
                                                   MM, QMMM, 2- and 3-layer-ONIOM, Crystal-QMMM,
                                                   LR-CPCM, SF, NACMEs, symmetry and pop. for TD-DFT,
                                                   nearIR, NL-DFT gradient (VV10), updates on ESD,
                                                   ML-optimized integration grids
   S Lehtola, MJT Oliveira, MAL Marques          : LibXC Library
   Liviu Ungur et al                             : ANISO software


 Your calculation uses the libint2 library for the computation of 2-el integrals
 For citations please refer to: http://libint.valeyev.net

 Your ORCA version has been built with support for libXC version: 5.1.0
 For citations please refer to: https://tddft.org/programs/libxc/

 This ORCA versions uses:
   CBLAS   interface :  Fast vector & matrix operations
   LAPACKE interface :  Fast linear algebra routines
   SCALAPACK package :  Parallel linear algebra routines
   Shared memory     :  Shared parallel matrices
   BLAS/LAPACK       :  OpenBLAS 0.3.15  USE64BITINT DYNAMIC_ARCH NO_AFFINITY SkylakeX SINGLE_THREADED
        Core in use  :  SkylakeX
   Copyright (c) 2011-2014, The OpenBLAS Project


Your calculation utilizes the atom-pairwise dispersion correction
with the Becke-Johnson damping scheme (D3BJ)
Cite in your paper:
S.Grimme, S.Ehrlich, L.Goerigk, J Comput Chem, (2011), 32, 1456–1465 
S.Grimme, J.Antony, S.Ehrlich and H.Krieg, J.Chem.Phys., 132, (2010), 154104 
   

================================================================================

----- Orbital basis set information -----
Your calculation utilizes the basis: def2-TZVP
   F. Weigend and R. Ahlrichs, Phys. Chem. Chem. Phys. 7, 3297 (2005).

----- AuxJ basis set information -----
Your calculation utilizes the auxiliary basis: def2/J
   F. Weigend, Phys. Chem. Chem. Phys. 8, 1057 (2006).

================================================================================
                                        WARNINGS
                       Please study these warnings very carefully!
================================================================================

INFO   : Checking CIS options ...

WARNING: CIS/ROCIS methods need fully converged wavefunctions
  ===> : Setting SCFConvForced true
         You can overwrite this default with %scf ConvForced false 


INFO   : the flag for use of the SHARK integral package has been found!

================================================================================
                                       INPUT FILE
================================================================================
NAME = ox_es1_B_orca0005.inp
|  1> ! engrad PBE0 D3BJ def2-TZVP  
|  2> %pal nprocs 8 end
|  3> %maxcore 3000
|  4> 
|  5> %tddft
|  6>   nroots 1
|  7>   tda true
|  8>   Iroot 1
|  9>   end 
| 10> *xyz 0 1 
| 11> O   -0.17642874915015722 0.8444911978248476 -0.023400762749312454
| 12> C   -0.6676608722436913 -0.5110759037572021 0.043773775213716226
| 13> C   0.6433537737985235 -0.46955874515681373 0.03745819029595326
| 14> H   -1.2740195733050625 -0.6773795805832867 0.9540090202190729
| 15> H   -1.3547477195195807 -0.6659173282337145 -0.9002340095336397
| 16> H   1.2514012172809577 -0.6991561923998508 -0.9541204198224668
| 17> H   1.285635750217046 -0.7534214487056619 0.9396616999569333
| 18> *
| 19> 
| 20>                          ****END OF INPUT****
================================================================================

                     *******************************
                     * Energy+Gradient Calculation *
                     *******************************

---------------------------------
CARTESIAN COORDINATES (ANGSTROEM)
---------------------------------
  O     -0.176429    0.844491   -0.023401
  C     -0.667661   -0.511076    0.043774
  C      0.643354   -0.469559    0.037458
  H     -1.274020   -0.677380    0.954009
  H     -1.354748   -0.665917   -0.900234
  H      1.251401   -0.699156   -0.954120
  H      1.285636   -0.753421    0.939662

----------------------------
CARTESIAN COORDINATES (A.U.)
----------------------------
  NO LB      ZA    FRAG     MASS         X           Y           Z
   0 O     8.0000    0    15.999   -0.333402    1.595857   -0.044221
   1 C     6.0000    0    12.011   -1.261696   -0.965793    0.082720
   2 C     6.0000    0    12.011    1.215762   -0.887337    0.070786
   3 H     1.0000    0     1.008   -2.407548   -1.280062    1.802816
   4 H     1.0000    0     1.008   -2.560102   -1.258401   -1.701196
   5 H     1.0000    0     1.008    2.364806   -1.321214   -1.803026
   6 H     1.0000    0     1.008    2.429499   -1.423760    1.775703

--------------------------------
INTERNAL COORDINATES (ANGSTROEM)
--------------------------------
 O      0   0   0     0.000000000000     0.00000000     0.00000000
 C      1   0   0     1.443393080280     0.00000000     0.00000000
 C      2   1   0     1.311687067562    68.27778835     0.00000000
 H      2   1   3     1.106280248639   111.46973507   119.14791238
 H      2   1   3     1.177800874553   106.54110503   237.53753821
 H      3   2   1     1.185607363907   120.69659671   258.64025977
 H      3   2   1     1.143273958657   123.35641137   111.32757040

---------------------------
INTERNAL COORDINATES (A.U.)
---------------------------
 O      0   0   0     0.000000000000     0.00000000     0.00000000
 C      1   0   0     2.727617625327     0.00000000     0.00000000
 C      2   1   0     2.478729331098    68.27778835     0.00000000
 H      2   1   3     2.090566697294   111.46973507   119.14791238
 H      2   1   3     2.225721093197   106.54110503   237.53753821
 H      3   2   1     2.240473220144   120.69659671   258.64025977
 H      3   2   1     2.160474677905   123.35641137   111.32757040

---------------------
BASIS SET INFORMATION
---------------------
There are 3 groups of distinct atoms

 Group   1 Type O   : 11s6p2d1f contracted to 5s3p2d1f pattern {62111/411/11/1}
 Group   2 Type C   : 11s6p2d1f contracted to 5s3p2d1f pattern {62111/411/11/1}
 Group   3 Type H   : 5s1p contracted to 3s1p pattern {311/1}

Atom   0O    basis set group =>   1
Atom   1C    basis set group =>   2
Atom   2C    basis set group =>   2
Atom   3H    basis set group =>   3
Atom   4H    basis set group =>   3
Atom   5H    basis set group =>   3
Atom   6H    basis set group =>   3
---------------------------------
AUXILIARY/J BASIS SET INFORMATION
---------------------------------
There are 3 groups of distinct atoms

 Group   1 Type O   : 12s5p4d2f1g contracted to 6s4p3d1f1g pattern {711111/2111/211/2/1}
 Group   2 Type C   : 12s5p4d2f1g contracted to 6s4p3d1f1g pattern {711111/2111/211/2/1}
 Group   3 Type H   : 5s2p1d contracted to 3s1p1d pattern {311/2/1}

Atom   0O    basis set group =>   1
Atom   1C    basis set group =>   2
Atom   2C    basis set group =>   2
Atom   3H    basis set group =>   3
Atom   4H    basis set group =>   3
Atom   5H    basis set group =>   3
Atom   6H    basis set group =>   3

Checking for AutoStart:
The File: ox_es1_B_orca0005.gbw exists
Trying to determine its content:
     ... Fine, the file contains calculation information
     ... Fine, the calculation information was read
     ... Fine, the file contains a basis set
     ... Fine, the basis set was read
     ... Fine, the file contains a geometry
     ... Fine, the geometry was read
     ... Fine, the file contains a set of orbitals
     ... Fine, the orbitals can be read
     => possible old guess file was deleted
     => GBW file was renamed to GES file
     => GES file is set as startup file
     => Guess is set to MORead
     ... now leaving AutoStart



           ************************************************************
           *        Program running with 8 parallel MPI-processes     *
           *              working on a common directory               *
           ************************************************************
------------------------------------------------------------------------------
                           ORCA GTO INTEGRAL CALCULATION
                           -- RI-GTO INTEGRALS CHOSEN --
------------------------------------------------------------------------------
------------------------------------------------------------------------------
                   ___                                                        
                  /   \      - P O W E R E D   B Y -                         
                 /     \                                                     
                 |  |  |   _    _      __       _____    __    __             
                 |  |  |  | |  | |    /  \     |  _  \  |  |  /  |          
                  \  \/   | |  | |   /    \    | | | |  |  | /  /          
                 / \  \   | |__| |  /  /\  \   | |_| |  |  |/  /          
                |  |  |   |  __  | /  /__\  \  |    /   |      \           
                |  |  |   | |  | | |   __   |  |    \   |  |\   \          
                \     /   | |  | | |  |  |  |  | |\  \  |  | \   \       
                 \___/    |_|  |_| |__|  |__|  |_| \__\ |__|  \__/        
                                                                              
                      - O R C A' S   B I G   F R I E N D -                    
                                      &                                       
                       - I N T E G R A L  F E E D E R -                       
                                                                              
 v1 FN, 2020, v2 2021                                                         
------------------------------------------------------------------------------


Reading SHARK input file ox_es1_B_orca0005.SHARKINP.tmp ... ok
----------------------
SHARK INTEGRAL PACKAGE
----------------------

Number of atoms                             ...      7
Number of basis functions                   ...    117
Number of shells                            ...     49
Maximum angular momentum                    ...      3
Integral batch strategy                     ... SHARK/LIBINT Hybrid
RI-J (if used) integral strategy            ... SPLIT-RIJ (Revised 2003 algorithm where possible)
Printlevel                                  ...      1
Contraction scheme used                     ... SEGMENTED contraction
Coulomb Range Separation                    ... NOT USED
Exchange Range Separation                   ... NOT USED
Finite Nucleus Model                        ... NOT USED
Auxiliary Coulomb fitting basis             ... AVAILABLE
   # of basis functions in Aux-J            ...    191
   # of shells in Aux-J                     ...     65
   Maximum angular momentum in Aux-J        ...      4
Auxiliary J/K fitting basis                 ... NOT available
Auxiliary Correlation fitting basis         ... NOT available
Auxiliary 'external' fitting basis          ... NOT available
Integral threshold                          ...     2.500000e-11
Primitive cut-off                           ...     2.500000e-12
Primitive pair pre-selection threshold      ...     2.500000e-12

Calculating pre-screening integrals         ... done (  0.0 sec) Dimension = 49
Organizing shell pair data                  ... done (  0.0 sec)
Shell pair information
Total number of shell pairs                 ...      1225
Shell pairs after pre-screening             ...      1220
Total number of primitive shell pairs       ...      3648
Primitive shell pairs kept                  ...      3142
          la=0 lb=0:    373 shell pairs
          la=1 lb=0:    351 shell pairs
          la=1 lb=1:     91 shell pairs
          la=2 lb=0:    162 shell pairs
          la=2 lb=1:     78 shell pairs
          la=2 lb=2:     21 shell pairs
          la=3 lb=0:     81 shell pairs
          la=3 lb=1:     39 shell pairs
          la=3 lb=2:     18 shell pairs
          la=3 lb=3:      6 shell pairs

Calculating one electron integrals          ... done (  0.0 sec)
Calculating RI/J V-Matrix + Cholesky decomp.... done (  0.0 sec)
Calculating Nuclear repulsion               ... done (  0.0 sec) ENN=     74.323112235238 Eh

SHARK setup successfully completed in   0.1 seconds

Maximum memory used throughout the entire GTOINT-calculation: 14.9 MB


           ************************************************************
           *        Program running with 8 parallel MPI-processes     *
           *              working on a common directory               *
           ************************************************************
-------------------------------------------------------------------------------
                                 ORCA SCF
-------------------------------------------------------------------------------

------------
SCF SETTINGS
------------
Hamiltonian:
 Density Functional     Method          .... DFT(GTOs)
 Exchange Functional    Exchange        .... PBE
   PBE kappa parameter   XKappa         ....  0.804000
   PBE mue parameter    XMuePBE         ....  0.219520
 Correlation Functional Correlation     .... PBE
   PBE beta parameter  CBetaPBE         ....  0.066725
 LDA part of GGA corr.  LDAOpt          .... PW91-LDA
 Gradients option       PostSCFGGA      .... off
 Hybrid DFT is turned on
   Fraction HF Exchange ScalHFX         ....  0.250000
   Scaling of DF-GGA-X  ScalDFX         ....  0.750000
   Scaling of DF-GGA-C  ScalDFC         ....  1.000000
   Scaling of DF-LDA-C  ScalLDAC        ....  1.000000
   Perturbative correction              ....  0.000000
   Density functional embedding theory  .... OFF
   NL short-range parameter             ....  6.900000
 RI-approximation to the Coulomb term is turned on
   Number of AuxJ basis functions       .... 191
   RIJ-COSX (HFX calculated with COS-X)).... on


General Settings:
 Integral files         IntName         .... ox_es1_B_orca0005
 Hartree-Fock type      HFTyp           .... RHF
 Total Charge           Charge          ....    0
 Multiplicity           Mult            ....    1
 Number of Electrons    NEL             ....   24
 Basis Dimension        Dim             ....  117
 Nuclear Repulsion      ENuc            ....     74.3231122352 Eh

Convergence Acceleration:
 DIIS                   CNVDIIS         .... on
   Start iteration      DIISMaxIt       ....    12
   Startup error        DIISStart       ....  0.200000
   # of expansion vecs  DIISMaxEq       ....     5
   Bias factor          DIISBfac        ....   1.050
   Max. coefficient     DIISMaxC        ....  10.000
 Trust-Rad. Augm. Hess. CNVTRAH         .... auto
   Auto Start mean grad. ratio tolernc. ....  1.125000
   Auto Start start iteration           ....     1
   Auto Start num. interpolation iter.  ....    10
   Max. Number of Micro iterations      ....    16
   Max. Number of Macro iterations      .... Maxiter - #DIIS iter
   Number of Davidson start vectors     ....     2
   Converg. threshold I  (grad. norm)   ....   1.000e-05
   Converg. threshold II (energy diff.) ....   1.000e-08
   Grad. Scal. Fac. for Micro threshold ....   0.100
   Minimum threshold for Micro iter.    ....   0.010
   NR start threshold (gradient norm)   ....   0.001
   Initial trust radius                 ....   0.400
   Minimum AH scaling param. (alpha)    ....   1.000
   Maximum AH scaling param. (alpha)    .... 1000.000
   Orbital update algorithm             .... Taylor
   White noise on init. David. guess    .... on
   Maximum white noise                  ....   0.010
   Quad. conv. algorithm                .... NR
 SOSCF                  CNVSOSCF        .... on
   Start iteration      SOSCFMaxIt      ....   150
   Startup grad/error   SOSCFStart      ....  0.003300
 Level Shifting         CNVShift        .... on
   Level shift para.    LevelShift      ....    0.2500
   Turn off err/grad.   ShiftErr        ....    0.0010
 Zerner damping         CNVZerner       .... off
 Static damping         CNVDamp         .... on
   Fraction old density DampFac         ....    0.7000
   Max. Damping (<1)    DampMax         ....    0.9800
   Min. Damping (>=0)   DampMin         ....    0.0000
   Turn off err/grad.   DampErr         ....    0.1000
 Fernandez-Rico         CNVRico         .... off

SCF Procedure:
 Maximum # iterations   MaxIter         ....   125
 SCF integral mode      SCFMode         .... Direct
   Integral package                     .... SHARK and LIBINT hybrid scheme
 Reset frequency        DirectResetFreq ....    20
 Integral Threshold     Thresh          ....  2.500e-11 Eh
 Primitive CutOff       TCut            ....  2.500e-12 Eh

Convergence Tolerance:
 Convergence Check Mode ConvCheckMode   .... Total+1el-Energy
 Convergence forced     ConvForced      .... 1
 Energy Change          TolE            ....  1.000e-08 Eh
 1-El. energy change                    ....  1.000e-05 Eh
 Orbital Gradient       TolG            ....  1.000e-05
 Orbital Rotation angle TolX            ....  1.000e-05
 DIIS Error             TolErr          ....  5.000e-07


Diagonalization of the overlap matrix:
Smallest eigenvalue                        ... 1.505e-04
Time for diagonalization                   ...    0.001 sec
Threshold for overlap eigenvalues          ... 1.000e-08
Number of eigenvalues below threshold      ... 0
Time for construction of square roots      ...    0.001 sec
Total time needed                          ...    0.003 sec

---------------------
INITIAL GUESS: MOREAD
---------------------
Guess MOs are being read from file: ox_es1_B_orca0005.ges
Input Geometry matches current geometry (good)
Input basis set matches current basis set (good)
MOs were renormalized
MOs were reorthogonalized (Cholesky)
                      ------------------
                      INITIAL GUESS DONE (   0.0 sec)
                      ------------------
-------------------
DFT GRID GENERATION
-------------------

General Integration Accuracy     IntAcc      ... 4.388
Radial Grid Type                 RadialGrid  ... OptM3 with GC (2021)
Angular Grid (max. ang.)         AngularGrid ... 4 (Lebedev-302)
Angular grid pruning method      GridPruning ... 4 (adaptive)
Weight generation scheme         WeightScheme... Becke
Basis function cutoff            BFCut       ... 1.0000e-11
Integration weight cutoff        WCut        ... 1.0000e-14
Angular grids for H and He will be reduced by one unit
Partially contracted basis set               ... off
Rotationally invariant grid construction     ... off

Total number of grid points                  ...    31314
Total number of batches                      ...      494
Average number of points per batch           ...       63
Average number of grid points per atom       ...     4473
Time for grid setup =    0.117 sec

--------------------
COSX GRID GENERATION
--------------------

GRIDX 1
-------
General Integration Accuracy     IntAcc      ... 3.816
Radial Grid Type                 RadialGrid  ... OptM3 with GC (2021)
Angular Grid (max. ang.)         AngularGrid ... 1 (Lebedev-50)
Angular grid pruning method      GridPruning ... 4 (adaptive)
Weight generation scheme         WeightScheme... Becke
Basis function cutoff            BFCut       ... 1.0000e-11
Integration weight cutoff        WCut        ... 1.0000e-14
Angular grids for H and He will be reduced by one unit
Partially contracted basis set               ... on
Rotationally invariant grid construction     ... off

Total number of grid points                  ...     4039
Total number of batches                      ...       68
Average number of points per batch           ...       59
Average number of grid points per atom       ...      577
UseSFitting                                  ... on

GRIDX 2
-------
General Integration Accuracy     IntAcc      ... 4.020
Radial Grid Type                 RadialGrid  ... OptM3 with GC (2021)
Angular Grid (max. ang.)         AngularGrid ... 2 (Lebedev-110)
Angular grid pruning method      GridPruning ... 4 (adaptive)
Weight generation scheme         WeightScheme... Becke
Basis function cutoff            BFCut       ... 1.0000e-11
Integration weight cutoff        WCut        ... 1.0000e-14
Angular grids for H and He will be reduced by one unit
Partially contracted basis set               ... on
Rotationally invariant grid construction     ... off

Total number of grid points                  ...     8727
Total number of batches                      ...      140
Average number of points per batch           ...       62
Average number of grid points per atom       ...     1247
UseSFitting                                  ... on

GRIDX 3
-------
General Integration Accuracy     IntAcc      ... 4.338
Radial Grid Type                 RadialGrid  ... OptM3 with GC (2021)
Angular Grid (max. ang.)         AngularGrid ... 3 (Lebedev-194)
Angular grid pruning method      GridPruning ... 4 (adaptive)
Weight generation scheme         WeightScheme... Becke
Basis function cutoff            BFCut       ... 1.0000e-11
Integration weight cutoff        WCut        ... 1.0000e-14
Angular grids for H and He will be reduced by one unit
Partially contracted basis set               ... on
Rotationally invariant grid construction     ... off

Total number of grid points                  ...    19261
Total number of batches                      ...      304
Average number of points per batch           ...       63
Average number of grid points per atom       ...     2752
UseSFitting                                  ... on

Time for X-Grid setup             =    0.072 sec

--------------
SCF ITERATIONS
--------------
ITER       Energy         Delta-E        Max-DP      RMS-DP      [F,P]     Damp
               ***  Starting incremental Fock matrix formation  ***
                      *** Initiating the SOSCF procedure ***
                      *** Re-Reading the Fockian *** 
                      *** Removing any level shift *** 
ITER      Energy       Delta-E        Grad      Rot      Max-DP    RMS-DP
  0   -153.63113846 -153.6311384639  0.000001  0.000001  0.000001  0.000000
               *** Restarting incremental Fock matrix formation ***
                  ***Gradient check signals convergence***
              ***Rediagonalizing the Fockian in SOSCF/NRSCF***

               *****************************************************
               *                     SUCCESS                       *
               *           SCF CONVERGED AFTER   1 CYCLES          *
               *****************************************************

Old exchange energy                            =     -4.978338537 Eh
New exchange energy                            =     -4.978349276 Eh
Exchange energy change after final integration =     -0.000010739 Eh
Total energy after final integration           =   -153.631149203 Eh
Final COS-X integration done in                =     0.248 sec

----------------
TOTAL SCF ENERGY
----------------

Total Energy       :         -153.63114920 Eh           -4180.51610 eV

Components:
Nuclear Repulsion  :           74.32311224 Eh            2022.43470 eV
Electronic Energy  :         -227.95426144 Eh           -6202.95081 eV
One Electron Energy:         -355.38165980 Eh           -9670.42660 eV
Two Electron Energy:          127.42739836 Eh            3467.47579 eV
Max COSX asymmetry :            0.00000147 Eh               0.00004 eV

Virial components:
Potential Energy   :         -306.47948189 Eh           -8339.73069 eV
Kinetic Energy     :          152.84833269 Eh            4159.21458 eV
Virial Ratio       :            2.00512152


DFT components:
N(Alpha)           :       11.999996908913 electrons
N(Beta)            :       11.999996908913 electrons
N(Total)           :       23.999993817825 electrons
E(X)               :      -14.916690990587 Eh       
E(C)               :       -0.786596000725 Eh       
E(XC)              :      -15.703286991311 Eh       
DFET-embed. en.    :        0.000000000000 Eh       

---------------
SCF CONVERGENCE
---------------

  Last Energy change         ...   -8.5265e-14  Tolerance :   1.0000e-08
  Last MAX-Density change    ...    1.4433e-15  Tolerance :   1.0000e-07
  Last RMS-Density change    ...    2.1436e-17  Tolerance :   5.0000e-09
  Last Orbital Gradient      ...    2.0792e-07  Tolerance :   1.0000e-05
  Last Orbital Rotation      ...    2.3502e-07  Tolerance :   1.0000e-05

             **** THE GBW FILE WAS UPDATED (ox_es1_B_orca0005.gbw) ****
             **** DENSITY ox_es1_B_orca0005.scfp WAS UPDATED ****
             **** ENERGY FILE WAS UPDATED (ox_es1_B_orca0005.en.tmp) ****
             **** THE GBW FILE WAS UPDATED (ox_es1_B_orca0005.gbw) ****
             **** DENSITY ox_es1_B_orca0005.scfp WAS UPDATED ****
----------------
ORBITAL ENERGIES
----------------

  NO   OCC          E(Eh)            E(eV) 
   0   2.0000     -19.220709      -523.0221 
   1   2.0000     -10.291291      -280.0403 
   2   2.0000     -10.275387      -279.6075 
   3   2.0000      -1.080735       -29.4083 
   4   2.0000      -0.735689       -20.0191 
   5   2.0000      -0.627010       -17.0618 
   6   2.0000      -0.521627       -14.1942 
   7   2.0000      -0.505166       -13.7463 
   8   2.0000      -0.386853       -10.5268 
   9   2.0000      -0.371389       -10.1060 
  10   2.0000      -0.357424        -9.7260 
  11   2.0000      -0.284213        -7.7338 
  12   0.0000       0.034810         0.9472 
  13   0.0000       0.054024         1.4701 
  14   0.0000       0.073286         1.9942 
  15   0.0000       0.080766         2.1978 
  16   0.0000       0.103660         2.8207 
  17   0.0000       0.151959         4.1350 
  18   0.0000       0.181481         4.9383 
  19   0.0000       0.224085         6.0977 
  20   0.0000       0.262643         7.1469 
  21   0.0000       0.274282         7.4636 
  22   0.0000       0.280426         7.6308 
  23   0.0000       0.298549         8.1239 
  24   0.0000       0.372642        10.1401 
  25   0.0000       0.393811        10.7162 
  26   0.0000       0.403646        10.9838 
  27   0.0000       0.421191        11.4612 
  28   0.0000       0.441778        12.0214 
  29   0.0000       0.473793        12.8926 
  30   0.0000       0.498694        13.5702 
  31   0.0000       0.528337        14.3768 
  32   0.0000       0.555844        15.1253 
  33   0.0000       0.680030        18.5046 
  34   0.0000       0.704628        19.1739 
  35   0.0000       0.752642        20.4804 
  36   0.0000       0.812828        22.1182 
  37   0.0000       0.840651        22.8753 
  38   0.0000       0.856507        23.3068 
  39   0.0000       0.978343        26.6221 
  40   0.0000       0.995865        27.0989 
  41   0.0000       1.055281        28.7157 
  42   0.0000       1.103204        30.0197 
  43   0.0000       1.113367        30.2962 
  44   0.0000       1.215563        33.0772 
  45   0.0000       1.375047        37.4169 
  46   0.0000       1.484731        40.4016 
  47   0.0000       1.493995        40.6537 
  48   0.0000       1.505245        40.9598 
  49   0.0000       1.522728        41.4355 
  50   0.0000       1.552845        42.2551 
  51   0.0000       1.613081        43.8942 
  52   0.0000       1.631637        44.3991 
  53   0.0000       1.668848        45.4117 
  54   0.0000       1.722994        46.8851 
  55   0.0000       1.773710        48.2651 
  56   0.0000       1.844934        50.2032 
  57   0.0000       1.853680        50.4412 
  58   0.0000       1.908435        51.9312 
  59   0.0000       2.002700        54.4962 
  60   0.0000       2.059589        56.0443 
  61   0.0000       2.142995        58.3139 
  62   0.0000       2.173068        59.1322 
  63   0.0000       2.247141        61.1478 
  64   0.0000       2.278737        62.0076 
  65   0.0000       2.324137        63.2430 
  66   0.0000       2.388198        64.9862 
  67   0.0000       2.446347        66.5685 
  68   0.0000       2.503416        68.1214 
  69   0.0000       2.520514        68.5867 
  70   0.0000       2.555245        69.5317 
  71   0.0000       2.665841        72.5412 
  72   0.0000       2.703878        73.5763 
  73   0.0000       2.711635        73.7873 
  74   0.0000       2.731990        74.3412 
  75   0.0000       2.769169        75.3529 
  76   0.0000       2.841972        77.3340 
  77   0.0000       2.924887        79.5902 
  78   0.0000       2.972832        80.8949 
  79   0.0000       3.060557        83.2820 
  80   0.0000       3.064534        83.3902 
  81   0.0000       3.074638        83.6651 
  82   0.0000       3.089328        84.0649 
  83   0.0000       3.206082        87.2419 
  84   0.0000       3.291424        89.5642 
  85   0.0000       3.342606        90.9569 
  86   0.0000       3.365622        91.5832 
  87   0.0000       3.392106        92.3039 
  88   0.0000       3.519861        95.7803 
  89   0.0000       3.610917        98.2580 
  90   0.0000       3.625804        98.6631 
  91   0.0000       3.683579       100.2353 
  92   0.0000       3.947659       107.4213 
  93   0.0000       4.093682       111.3947 
  94   0.0000       4.122210       112.1710 
  95   0.0000       4.206147       114.4551 
  96   0.0000       4.339012       118.0705 
  97   0.0000       4.373704       119.0145 
  98   0.0000       4.467178       121.5581 
  99   0.0000       4.497815       122.3918 
 100   0.0000       4.703249       127.9819 
 101   0.0000       4.823557       131.2557 
 102   0.0000       5.258018       143.0780 
 103   0.0000       5.355413       145.7282 
 104   0.0000       5.556604       151.2029 
 105   0.0000       5.644696       153.6000 
 106   0.0000       5.717890       155.5917 
 107   0.0000       5.778355       157.2370 
 108   0.0000       5.968204       162.4031 
 109   0.0000       6.506175       177.0420 
 110   0.0000       6.549491       178.2207 
 111   0.0000       6.769479       184.2069 
 112   0.0000       6.968931       189.6343 
 113   0.0000       7.140797       194.3110 
 114   0.0000      22.068837       600.5236 
 115   0.0000      22.558805       613.8563 
 116   0.0000      43.786344      1191.4870 

                    ********************************
                    * MULLIKEN POPULATION ANALYSIS *
                    ********************************

-----------------------
MULLIKEN ATOMIC CHARGES
-----------------------
   0 O :   -0.335385
   1 C :   -0.055765
   2 C :   -0.095515
   3 H :    0.117347
   4 H :    0.117966
   5 H :    0.121887
   6 H :    0.129464
Sum of atomic charges:    0.0000000

--------------------------------
MULLIKEN REDUCED ORBITAL CHARGES
--------------------------------
  0 O s       :     3.888001  s :     3.888001
      pz      :     1.858946  p :     4.409353
      px      :     1.383927
      py      :     1.166481
      dz2     :     0.005338  d :     0.036101
      dxz     :     0.001757
      dyz     :     0.006094
      dx2y2   :     0.010846
      dxy     :     0.012066
      f0      :     0.000213  f :     0.001930
      f+1     :     0.000130
      f-1     :     0.000449
      f+2     :     0.000127
      f-2     :     0.000129
      f+3     :     0.000421
      f-3     :     0.000461
  1 C s       :     3.184520  s :     3.184520
      pz      :     1.056733  p :     2.725789
      px      :     0.944740
      py      :     0.724316
      dz2     :     0.005842  d :     0.133787
      dxz     :     0.029910
      dyz     :     0.035155
      dx2y2   :     0.034955
      dxy     :     0.027925
      f0      :     0.001600  f :     0.011669
      f+1     :     0.001106
      f-1     :     0.000711
      f+2     :     0.002514
      f-2     :     0.000935
      f+3     :     0.001430
      f-3     :     0.003372
  2 C s       :     3.223041  s :     3.223041
      pz      :     1.028215  p :     2.753431
      px      :     0.962172
      py      :     0.763044
      dz2     :     0.006374  d :     0.108867
      dxz     :     0.028817
      dyz     :     0.023672
      dx2y2   :     0.026700
      dxy     :     0.023303
      f0      :     0.001211  f :     0.010176
      f+1     :     0.001053
      f-1     :     0.000549
      f+2     :     0.001526
      f-2     :     0.001267
      f+3     :     0.001668
      f-3     :     0.002902
  3 H s       :     0.862245  s :     0.862245
      pz      :     0.010227  p :     0.020407
      px      :     0.006850
      py      :     0.003330
  4 H s       :     0.864196  s :     0.864196
      pz      :     0.008887  p :     0.017839
      px      :     0.006179
      py      :     0.002773
  5 H s       :     0.860180  s :     0.860180
      pz      :     0.009628  p :     0.017933
      px      :     0.005489
      py      :     0.002815
  6 H s       :     0.850999  s :     0.850999
      pz      :     0.009358  p :     0.019537
      px      :     0.006790
      py      :     0.003389


                     *******************************
                     * LOEWDIN POPULATION ANALYSIS *
                     *******************************

----------------------
LOEWDIN ATOMIC CHARGES
----------------------
   0 O :    0.060343
   1 C :   -0.358662
   2 C :   -0.254685
   3 H :    0.127003
   4 H :    0.139066
   5 H :    0.146984
   6 H :    0.139951

-------------------------------
LOEWDIN REDUCED ORBITAL CHARGES
-------------------------------
  0 O s       :     3.463733  s :     3.463733
      pz      :     1.764271  p :     4.398622
      px      :     1.359232
      py      :     1.275119
      dz2     :     0.011156  d :     0.072316
      dxz     :     0.004527
      dyz     :     0.012718
      dx2y2   :     0.025140
      dxy     :     0.018776
      f0      :     0.000464  f :     0.004986
      f+1     :     0.000152
      f-1     :     0.000929
      f+2     :     0.000299
      f-2     :     0.000474
      f+3     :     0.000992
      f-3     :     0.001676
  1 C s       :     2.812063  s :     2.812063
      pz      :     1.019898  p :     2.890983
      px      :     1.093199
      py      :     0.777886
      dz2     :     0.052114  d :     0.570954
      dxz     :     0.170289
      dyz     :     0.090216
      dx2y2   :     0.134039
      dxy     :     0.124297
      f0      :     0.010456  f :     0.084661
      f+1     :     0.006218
      f-1     :     0.006779
      f+2     :     0.015698
      f-2     :     0.003458
      f+3     :     0.015201
      f-3     :     0.026851
  2 C s       :     2.829555  s :     2.829555
      pz      :     1.020226  p :     2.887127
      px      :     1.106136
      py      :     0.760766
      dz2     :     0.044280  d :     0.471871
      dxz     :     0.161064
      dyz     :     0.062824
      dx2y2   :     0.099050
      dxy     :     0.104653
      f0      :     0.007863  f :     0.066132
      f+1     :     0.005686
      f-1     :     0.004727
      f+2     :     0.009160
      f-2     :     0.004729
      f+3     :     0.013700
      f-3     :     0.020268
  3 H s       :     0.816060  s :     0.816060
      pz      :     0.030199  p :     0.056937
      px      :     0.017127
      py      :     0.009611
  4 H s       :     0.813718  s :     0.813718
      pz      :     0.025177  p :     0.047216
      px      :     0.014642
      py      :     0.007397
  5 H s       :     0.805979  s :     0.805979
      pz      :     0.026710  p :     0.047037
      px      :     0.012696
      py      :     0.007631
  6 H s       :     0.806813  s :     0.806813
      pz      :     0.027357  p :     0.053236
      px      :     0.016419
      py      :     0.009461


                      *****************************
                      * MAYER POPULATION ANALYSIS *
                      *****************************

  NA   - Mulliken gross atomic population
  ZA   - Total nuclear charge
  QA   - Mulliken gross atomic charge
  VA   - Mayer's total valence
  BVA  - Mayer's bonded valence
  FA   - Mayer's free valence

  ATOM       NA         ZA         QA         VA         BVA        FA
  0 O      8.3354     8.0000    -0.3354     1.9636     1.9636    -0.0000
  1 C      6.0558     6.0000    -0.0558     4.0245     4.0245    -0.0000
  2 C      6.0955     6.0000    -0.0955     4.0130     4.0130    -0.0000
  3 H      0.8827     1.0000     0.1173     0.9581     0.9581     0.0000
  4 H      0.8820     1.0000     0.1180     0.9611     0.9611     0.0000
  5 H      0.8781     1.0000     0.1219     0.9573     0.9573     0.0000
  6 H      0.8705     1.0000     0.1295     0.9532     0.9532    -0.0000

  Mayer bond orders larger than 0.100000
B(  0-O ,  1-C ) :   0.9585 B(  0-O ,  2-C ) :   0.9737 B(  1-C ,  2-C ) :   1.1575 
B(  1-C ,  3-H ) :   0.9431 B(  1-C ,  4-H ) :   0.9372 B(  2-C ,  5-H ) :   0.9280 
B(  2-C ,  6-H ) :   0.9289 

-------
TIMINGS
-------

Total SCF time: 0 days 0 hours 0 min 0 sec 

Total time                  ....       0.978 sec
Sum of individual times     ....       0.880 sec  ( 90.0%)

Fock matrix formation       ....       0.678 sec  ( 69.3%)
  Split-RI-J                ....       0.112 sec  ( 16.5% of F)
  Chain of spheres X        ....       0.503 sec  ( 74.2% of F)
  XC integration            ....       0.061 sec  (  9.0% of F)
    Basis function eval.    ....       0.017 sec  ( 28.4% of XC)
    Density eval.           ....       0.013 sec  ( 21.9% of XC)
    XC-Functional eval.     ....       0.004 sec  (  5.8% of XC)
    XC-Potential eval.      ....       0.020 sec  ( 32.7% of XC)
Diagonalization             ....       0.002 sec  (  0.2%)
Density matrix formation    ....       0.000 sec  (  0.0%)
Population analysis         ....       0.003 sec  (  0.3%)
Initial guess               ....       0.005 sec  (  0.5%)
Orbital Transformation      ....       0.000 sec  (  0.0%)
Orbital Orthonormalization  ....       0.001 sec  (  0.1%)
DIIS solution               ....       0.001 sec  (  0.1%)
SOSCF solution              ....       0.002 sec  (  0.2%)
Grid generation             ....       0.189 sec  ( 19.3%)

Maximum memory used throughout the entire SCF-calculation: 61.1 MB


           ************************************************************
           *        Program running with 8 parallel MPI-processes     *
           *              working on a common directory               *
           ************************************************************
------------------------------------------------------------------------------
                        ORCA TD-DFT/TDA CALCULATION
------------------------------------------------------------------------------

Input orbitals are from        ... ox_es1_B_orca0005.gbw
CI-vector output               ... ox_es1_B_orca0005.cis
Tamm-Dancoff approximation     ... operative
CIS-Integral strategy          ... AO-integrals
Integral handling              ... AO integral Direct
Max. core memory used          ... 3000 MB
Reference state                ... RHF
Generation of triplets         ... off
Follow IRoot                   ... off
Number of operators            ... 1
Orbital ranges used for CIS calculation:
 Operator 0:  Orbitals   3... 11  to  12...116
XAS localization array:
 Operator 0:  Orbitals  -1... -1

-------------------
XC-INTEGRATION GRID
-------------------

General Integration Accuracy     IntAcc      ... 3.467
Radial Grid Type                 RadialGrid  ... OptM3 with GC (2021)
Angular Grid (max. ang.)         AngularGrid ... 1 (Lebedev-50)
Angular grid pruning method      GridPruning ... 4 (adaptive)
Weight generation scheme         WeightScheme... Becke
Basis function cutoff            BFCut       ... 1.0000e-11
Integration weight cutoff        WCut        ... 1.0000e-14
Angular grids for H and He will be reduced by one unit
Partially contracted basis set               ... off
Rotationally invariant grid construction     ... off

Total number of grid points                  ...     4539
Total number of batches                      ...       75
Average number of points per batch           ...       60
Average number of grid points per atom       ...      648

---------------------
COSX-INTEGRATION GRID
---------------------

General Integration Accuracy     IntAcc      ... 3.067
Radial Grid Type                 RadialGrid  ... OptM3 with GC (2021)
Angular Grid (max. ang.)         AngularGrid ... 1 (Lebedev-50)
Angular grid pruning method      GridPruning ... 4 (adaptive)
Weight generation scheme         WeightScheme... Becke
Basis function cutoff            BFCut       ... 1.0000e-11
Integration weight cutoff        WCut        ... 1.0000e-14
Angular grids for H and He will be reduced by one unit
Partially contracted basis set               ... on
Rotationally invariant grid construction     ... off

Total number of grid points                  ...     2087
Total number of batches                      ...       38
Average number of points per batch           ...       54
Average number of grid points per atom       ...      298

---------------
TD-DFT XC SETUP
---------------

DFT calculation                         ... on
Name of the grid file                   ... ox_es1_B_orca0005.grid_cis.tmp
Exchange functional (TD-DFT)            ... PBE
   PBE kappa parameter  XKappa (TD-DFT) ...  0.804000
   PBE mue parameter   XMuePBE (TD-DFT) ...  0.219520
Correlation functional (TD-DFT)         ... PBE
   PBE beta parameter CBetaPBE (TD-DFT) ...  0.066725
 LDA part of GGA corr.  LDAOpt (TD-DFT) ... PW91-LDA
Hybrid DFT                              ... on
   Exchange mixing (TD-DFT)             ...  0.250
   GGA exch. scaling (TD-DFT)           ...  0.750
   GGA corr. scaling (TD-DFT)           ...  1.000

Building densities             ... done
Calculating rho(r) on the grid ... done
Building xc-kernel on the grid ... done
                    *** TD-DFT CALCULATION INITIALIZED ***

------------------------
DAVIDSON-DIAGONALIZATION
------------------------

Dimension of the eigenvalue problem            ...    945
Number of roots to be determined               ...      1
Maximum size of the expansion space            ...     10
Maximum number of iterations                   ...    100
Convergence tolerance for the residual         ...    2.500e-07
Convergence tolerance for the energies         ...    2.500e-07
Orthogonality tolerance                        ...    1.000e-14
Level Shift                                    ...    0.000e+00
Constructing the preconditioner                ... o.k.
Building the initial guess                     ... o.k.
Number of trial vectors determined             ...     10


                       ****Iteration    0****

   Memory handling for direct AO based CIS:
   Memory per vector needed      ...     1 MB
   Memory needed                 ...     1 MB
   Memory available              ...  3000 MB
   Number of vectors per batch   ...  3000
   Number of batches             ...     1
   Time for densities:            0.001
   Time for RI-J (Direct):        0.015
   Time for K (COSX):             0.055
   Time for XC-Integration:       0.016
   Time for Sigma-Completion:     0.000
   Size of expansion space: 3
   Lowest Energy          :     0.246569175672
   Maximum Energy change  :     0.246569175672 (vector 0)
   Maximum residual norm  :     0.004648100125

                       ****Iteration    1****
   Time for densities:            0.000
   Time for RI-J (Direct):        0.012
   Time for K (COSX):             0.048
   Time for XC-Integration:       0.006
   Time for Sigma-Completion:     0.000
   Size of expansion space: 4
   Lowest Energy          :     0.242473629122
   Maximum Energy change  :     0.004095546550 (vector 0)
   Maximum residual norm  :     0.000442283238

                       ****Iteration    2****
   Time for densities:            0.000
   Time for RI-J (Direct):        0.012
   Time for K (COSX):             0.048
   Time for XC-Integration:       0.006
   Time for Sigma-Completion:     0.000
   Size of expansion space: 5
   Lowest Energy          :     0.242010750604
   Maximum Energy change  :     0.000462878517 (vector 0)
   Maximum residual norm  :     0.000110616585

                       ****Iteration    3****
   Time for densities:            0.000
   Time for RI-J (Direct):        0.012
   Time for K (COSX):             0.048
   Time for XC-Integration:       0.006
   Time for Sigma-Completion:     0.000
   Size of expansion space: 6
   Lowest Energy          :     0.241908138768
   Maximum Energy change  :     0.000102611837 (vector 0)
   Maximum residual norm  :     0.000008377287

                       ****Iteration    4****
   Time for densities:            0.000
   Time for RI-J (Direct):        0.012
   Time for K (COSX):             0.048
   Time for XC-Integration:       0.006
   Time for Sigma-Completion:     0.000
   Size of expansion space: 7
   Lowest Energy          :     0.241890241098
   Maximum Energy change  :     0.000017897669 (vector 0)
   Maximum residual norm  :     0.000002528575

                       ****Iteration    5****
   Time for densities:            0.000
   Time for RI-J (Direct):        0.012
   Time for K (COSX):             0.048
   Time for XC-Integration:       0.006
   Time for Sigma-Completion:     0.000
   Size of expansion space: 8
   Lowest Energy          :     0.241887460514
   Maximum Energy change  :     0.000002780585 (vector 0)
   Maximum residual norm  :     0.000000159019

      *** CONVERGENCE OF RESIDUAL NORM REACHED ***

Storing the converged CI vectors               ... ox_es1_B_orca0005.cis1

                 *** DAVIDSON DONE ***

Total time for solving the CIS problem:     0.426sec

------------------------------------
TD-DFT/TDA EXCITED STATES (SINGLETS)
------------------------------------

the weight of the individual excitations are printed if larger than 1.0e-02

STATE  1:  E=   0.241887 au      6.582 eV    53088.2 cm**-1 <S**2> =   0.000000
    11a ->  12a  :     0.952643 (c= -0.97603437)
    11a ->  14a  :     0.016650 (c= -0.12903405)


-----------------------------
TD-DFT/TDA-EXCITATION SPECTRA
-----------------------------

Center of mass = ( -0.1376, -0.0466,  0.0275)
Calculating the Dipole integrals                  ... done
Transforming integrals                            ... done
Calculating the Linear Momentum integrals         ... done
Transforming integrals                            ... done
Calculating angular momentum integrals            ... done
Transforming integrals                            ... done

-----------------------------------------------------------------------------
         ABSORPTION SPECTRUM VIA TRANSITION ELECTRIC DIPOLE MOMENTS
-----------------------------------------------------------------------------
State   Energy    Wavelength  fosc         T2        TX        TY        TZ  
        (cm-1)      (nm)                 (au**2)    (au)      (au)      (au) 
-----------------------------------------------------------------------------
   1   53088.2    188.4   0.003363666   0.02086   0.02513   0.01626  -0.14129

-----------------------------------------------------------------------------
         ABSORPTION SPECTRUM VIA TRANSITION VELOCITY DIPOLE MOMENTS
-----------------------------------------------------------------------------
State   Energy    Wavelength   fosc        P2         PX        PY        PZ  
        (cm-1)      (nm)                 (au**2)     (au)      (au)      (au) 
-----------------------------------------------------------------------------
   1   53088.2    188.4   0.020116917   0.00730  -0.00333   0.00436   0.08526

-------------------------------------------------------------------
                             CD SPECTRUM
-------------------------------------------------------------------
State  Energy     Wavelength     R         MX        MY        MZ   
       (cm-1)       (nm)     (1e40*cgs)   (au)      (au)      (au)  
-------------------------------------------------------------------
   1   53088.2    188.4     -1.83118  -0.17068   0.14213   0.01349

-------------------------------------------------------------------
         CD SPECTRUM VIA TRANSITION VELOCITY DIPOLE MOMENTS        
-------------------------------------------------------------------
State  Energy     Wavelength     R         MX        MY        MZ   
       (cm-1)       (nm)     (1e40*cgs)   (au)      (au)      (au)  
-------------------------------------------------------------------
   1   53088.2    188.4      4.55698  -0.17068   0.14213   0.01349

Total run time:        0.701 sec

           *** ORCA-CIS/TD-DFT FINISHED WITHOUT ERROR ***

Maximum memory used throughout the entire CIS-calculation: 49.4 MB

-----------------------
CIS/TD-DFT TOTAL ENERGY
-----------------------

    E(SCF)  =   -153.631149203 Eh
    DE(CIS) =      0.241887461 Eh (Root  1)
    ----------------------------- ---------
    E(tot)  =   -153.389261742 Eh



-------------------------------------------------------------------------------
                          DFT DISPERSION CORRECTION                            
                                                                               
                              DFTD3 V3.1  Rev 1                                
                          USING Becke-Johnson damping                          
-------------------------------------------------------------------------------
The PBE0 functional is recognized
Active option DFTDOPT                   ...         4   

molecular C6(AA) [au] = 351.891921 


            DFT-D V3
 parameters
 s6 scaling factor         :     1.0000 
 a1 scaling factor         :     0.4145 
 s8 scaling factor         :     1.2177 
 a2 scaling factor         :     4.8593 
 ad hoc parameters k1-k3   :    16.0000     1.3333    -4.0000 

 Edisp/kcal,au: -1.507622223024  -0.002402548686 
 E6   /kcal   :  -0.987953382 
 E8   /kcal   :  -0.519668841 
 % E8         :  34.469433597 

-------------------------   ----------------
Dispersion correction           -0.002402549
-------------------------   ----------------


-------------------------   --------------------
FINAL SINGLE POINT ENERGY      -153.391664290871
-------------------------   --------------------



           ************************************************************
           *        Program running with 8 parallel MPI-processes     *
           *              working on a common directory               *
           ************************************************************
------------------------------------------------------------------------------
                         ORCA SCF GRADIENT CALCULATION
------------------------------------------------------------------------------


------------------------
TD-DFT GRADIENT XC SETUP
------------------------

Building densities                     ... done
Calculating rho(r) on the grid         ... done
Building xc-kernel on the grid         ... done
Building xc 3rd derivative on the grid      ... done
                *** TD-DFT GRADIENT CALCULATION INITIALIZED ***

-------------------
TD-DFT/TDA GRADIENT
-------------------

Reference wavefunction             ... RHF
State of interest                  ... 1
Basis dimension                    ... 117
DFT-XC contribution needed         ... YES
RI-approximation                   ... ON
CIS-vectors being read from        ... ox_es1_B_orca0005.cis

 => Number of Vectors found: 1
 => Orbital Window: 3...11 -> 12...116

Reading the CIS file                     ... done
Norm of the CI vector                    ... 1.000000000
Making the CIS (pseudo)densities         ... done
Making operators G(D) and Q(T)           ... done
Transforming the Fock operators          ... done
Making the frozen-core relaxed density   ... done
Constructing the G(H) operator           ... done
Transforming the G(H) operator           ... done
Calculating the CIS Lagrangian           ... done
Solving the Z-vector equations           ... done
Finalizing the relaxed density           ... done
Storing the relaxed density              ... done
Constructing the G(Z) operator           ... done
Transforming the G(Z) operator           ... done
Making the W-matrix                      ... done
Finalizing the W-matrix                  ... done
Transforming the W-matrix                ... done
Nuclear repulsion gradient               ... done
One-Electron gradient                    ... done
Dispersion correction                    ... done
Prescreening matrices                    ... done
COSX-gradient                            ... done
Coulomb gradient (RI)                    ... done
Exchange-Correlation gradient            ... done

                 ---------------------------
                 EXCITED STATE GRADIENT DONE
                 ---------------------------

------------------
CARTESIAN GRADIENT
------------------

   1   O   :    0.096169466   -0.124603048    0.009807564
   2   C   :    0.130236508   -0.011949381    0.018456097
   3   C   :   -0.242484167    0.162945899    0.014348994
   4   H   :   -0.004390138   -0.001506243    0.005566830
   5   H   :   -0.024348174   -0.003665042   -0.029161392
   6   H   :    0.026187674   -0.015491721   -0.042035735
   7   H   :    0.018667526   -0.005657259    0.022952319

Difference to translation invariance:
           :    0.0000386955    0.0000732063   -0.0000653239

Difference to rotation invariance:
           :    0.0000630328    0.0002942586   -0.0005853384

Norm of the cartesian gradient     ...    0.3646652353
RMS gradient                       ...    0.0795764783
MAX gradient                       ...    0.2424841670

------------------------------------------------------------------------------
                  RELAXED CIS/TDA DENSITY POPULATION ANALYSIS
                                   IROOT 1
------------------------------------------------------------------------------
------------------------------------------------------------------------------
                           ORCA POPULATION ANALYSIS
------------------------------------------------------------------------------
Input electron density              ... ox_es1_B_orca0005.cisp
BaseName (.gbw .S,...)              ... ox_es1_B_orca0005

                    ********************************
                    * MULLIKEN POPULATION ANALYSIS *
                    ********************************

-----------------------
MULLIKEN ATOMIC CHARGES
-----------------------
   0 O :    0.087728
   1 C :   -0.116326
   2 C :   -0.590955
   3 H :    0.166125
   4 H :    0.153806
   5 H :    0.158561
   6 H :    0.141060
Sum of atomic charges:   -0.0000000

--------------------------------
MULLIKEN REDUCED ORBITAL CHARGES
--------------------------------
  0 O s       :     3.761906  s :     3.761906
      pz      :     1.093663  p :     4.118601
      px      :     1.612444
      py      :     1.412494
      dz2     :     0.002982  d :     0.030584
      dxz     :     0.001986
      dyz     :     0.005966
      dx2y2   :     0.009372
      dxy     :     0.010278
      f0      :     0.000056  f :     0.001181
      f+1     :    -0.000049
      f-1     :     0.000117
      f+2     :     0.000123
      f-2     :     0.000120
      f+3     :     0.000386
      f-3     :     0.000428
  1 C s       :     3.192022  s :     3.192022
      pz      :     1.032681  p :     2.802373
      px      :     0.973623
      py      :     0.796070
      dz2     :     0.011875  d :     0.111669
      dxz     :     0.031286
      dyz     :     0.013885
      dx2y2   :     0.029482
      dxy     :     0.025141
      f0      :     0.001005  f :     0.010262
      f+1     :     0.001186
      f-1     :     0.000653
      f+2     :     0.001454
      f-2     :     0.000642
      f+3     :     0.002137
      f-3     :     0.003184
  2 C s       :     3.314395  s :     3.314395
      pz      :     1.060137  p :     3.175726
      px      :     0.917920
      py      :     1.197670
      dz2     :     0.003900  d :     0.091200
      dxz     :     0.019546
      dyz     :     0.005088
      dx2y2   :     0.037007
      dxy     :     0.025658
      f0      :     0.000847  f :     0.009634
      f+1     :     0.000959
      f-1     :     0.000848
      f+2     :     0.001132
      f-2     :     0.000780
      f+3     :     0.002601
      f-3     :     0.002468
  3 H s       :     0.812744  s :     0.812744
      pz      :     0.010728  p :     0.021131
      px      :     0.006978
      py      :     0.003425
  4 H s       :     0.827282  s :     0.827282
      pz      :     0.009624  p :     0.018911
      px      :     0.006531
      py      :     0.002756
  5 H s       :     0.820420  s :     0.820420
      pz      :     0.008847  p :     0.021018
      px      :     0.005627
      py      :     0.006544
  6 H s       :     0.834650  s :     0.834650
      pz      :     0.008536  p :     0.024290
      px      :     0.006825
      py      :     0.008929


                     *******************************
                     * LOEWDIN POPULATION ANALYSIS *
                     *******************************

----------------------
LOEWDIN ATOMIC CHARGES
----------------------
   0 O :    0.322026
   1 C :   -0.389154
   2 C :   -0.551166
   3 H :    0.159516
   4 H :    0.167206
   5 H :    0.156042
   6 H :    0.135530

-------------------------------
LOEWDIN REDUCED ORBITAL CHARGES
-------------------------------
  0 O s       :     3.523682  s :     3.523682
      pz      :     1.046567  p :     4.062959
      px      :     1.557315
      py      :     1.459077
      dz2     :     0.014141  d :     0.086366
      dxz     :     0.005223
      dyz     :     0.013053
      dx2y2   :     0.026582
      dxy     :     0.027368
      f0      :     0.000478  f :     0.004968
      f+1     :     0.000089
      f-1     :     0.000813
      f+2     :     0.000292
      f-2     :     0.000496
      f+3     :     0.001162
      f-3     :     0.001639
  1 C s       :     2.817983  s :     2.817983
      pz      :     0.987777  p :     2.945165
      px      :     1.131414
      py      :     0.825974
      dz2     :     0.059641  d :     0.538999
      dxz     :     0.167269
      dyz     :     0.040641
      dx2y2   :     0.157606
      dxy     :     0.113842
      f0      :     0.007847  f :     0.087007
      f+1     :     0.006146
      f-1     :     0.007366
      f+2     :     0.010607
      f-2     :     0.002375
      f+3     :     0.025142
      f-3     :     0.027524
  2 C s       :     2.855329  s :     2.855329
      pz      :     1.022375  p :     3.107820
      px      :     1.087184
      py      :     0.998261
      dz2     :     0.064066  d :     0.513361
      dxz     :     0.145131
      dyz     :     0.025058
      dx2y2   :     0.127469
      dxy     :     0.151637
      f0      :     0.006947  f :     0.074656
      f+1     :     0.006692
      f-1     :     0.008440
      f+2     :     0.006900
      f-2     :     0.003225
      f+3     :     0.023108
      f-3     :     0.019344
  3 H s       :     0.781684  s :     0.781684
      pz      :     0.031506  p :     0.058800
      px      :     0.017702
      py      :     0.009592
  4 H s       :     0.783047  s :     0.783047
      pz      :     0.027228  p :     0.049747
      px      :     0.015363
      py      :     0.007156
  5 H s       :     0.789755  s :     0.789755
      pz      :     0.024985  p :     0.054203
      px      :     0.012930
      py      :     0.016287
  6 H s       :     0.799150  s :     0.799150
      pz      :     0.025851  p :     0.065321
      px      :     0.017121
      py      :     0.022349


                      *****************************
                      * MAYER POPULATION ANALYSIS *
                      *****************************

  NA   - Mulliken gross atomic population
  ZA   - Total nuclear charge
  QA   - Mulliken gross atomic charge
  VA   - Mayer's total valence
  BVA  - Mayer's bonded valence
  FA   - Mayer's free valence

  ATOM       NA         ZA         QA         VA         BVA        FA
  0 O      7.9123     8.0000     0.0877     1.7635     0.9801     0.7834
  1 C      6.1163     6.0000    -0.1163     4.0747     3.8907     0.1839
  2 C      6.5910     6.0000    -0.5910     4.0537     3.2660     0.7877
  3 H      0.8339     1.0000     0.1661     0.9553     0.9204     0.0349
  4 H      0.8462     1.0000     0.1538     0.9638     0.9103     0.0536
  5 H      0.8414     1.0000     0.1586     0.9693     0.9555     0.0138
  6 H      0.8589     1.0000     0.1411     1.0006     0.9566     0.0441

  Mayer bond orders larger than 0.100000
B(  0-O ,  1-C ) :   0.8727 B(  1-C ,  2-C ) :   1.2557 B(  1-C ,  3-H ) :   0.8941 
B(  1-C ,  4-H ) :   0.8677 B(  2-C ,  5-H ) :   0.9366 B(  2-C ,  6-H ) :   0.9354 



-------
TIMINGS
-------

Total TD-DFT gradient time         ...        4.748 sec

Fock matrix formation       ....       0.828 sec  ( 17.4%)
  Coulomb formation         ....       0.674 sec  ( 81.4% of F)
  RI-J                      ....       0.294 sec  ( 35.4% of F)
  Chain of spheres X        ....       0.380 sec  ( 45.9% of F)
  XC integration            ....       0.154 sec  ( 18.6% of F)
Z-vector equation           ....       1.219 sec  ( 25.7%)
One electron gradient       ....       0.032 sec  (  0.7%)
Prescreening matrices       ....       0.155 sec  (  3.3%)
RI-J Coulomb gradient       ....       0.246 sec  (  5.2%)
COSX gradient               ....       0.329 sec  (  6.9%)
XC gradient                 ....       1.635 sec  ( 34.4%)

Maximum memory used throughout the entire SCFGRAD-calculation: 130.3 MB

                            ***************************************
                            *     ORCA property calculations      *
                            ***************************************

                                    ---------------------
                                    Active property flags
                                    ---------------------
   (+) Dipole Moment


------------------------------------------------------------------------------
                       ORCA ELECTRIC PROPERTIES CALCULATION
------------------------------------------------------------------------------

Dipole Moment Calculation                       ... on
Quadrupole Moment Calculation                   ... off
Polarizability Calculation                      ... off
GBWName                                         ... ox_es1_B_orca0005.gbw
Electron density                                ... ox_es1_B_orca0005.scfp
The origin for moment calculation is the CENTER OF MASS  = (-0.137574, -0.046570  0.027493)

-------------
DIPOLE MOMENT
-------------
                                X             Y             Z
Electronic contribution:     -0.08271       1.61484       0.08160
Nuclear contribution   :      0.18561      -2.51769      -0.01827
                        -----------------------------------------
Total Dipole Moment    :      0.10290      -0.90285       0.06333
                        -----------------------------------------
Magnitude (a.u.)       :      0.91089
Magnitude (Debye)      :      2.31531



--------------------
Rotational spectrum 
--------------------
 
Rotational constants in cm-1:     0.863816     0.700572     0.461696 
Rotational constants in MHz : 25896.542983 21002.628991 13841.298707 

 Dipole components along the rotational axes: 
x,y,z [a.u.] :    -0.816017    -0.404568     0.013009 
x,y,z [Debye]:    -2.074151    -1.028330     0.033067 

 

                        *** CIS RELAXED DENSITY ***

------------------------------------------------------------------------------
                       ORCA ELECTRIC PROPERTIES CALCULATION
------------------------------------------------------------------------------

Dipole Moment Calculation                       ... on
Quadrupole Moment Calculation                   ... off
Polarizability Calculation                      ... off
GBWName                                         ... ox_es1_B_orca0005.gbw
Electron density                                ... ox_es1_B_orca0005.cisp
The origin for moment calculation is the CENTER OF MASS  = (-0.137574, -0.046570  0.027493)

-------------
DIPOLE MOMENT
-------------
                                X             Y             Z
Electronic contribution:     -0.75671       2.31522       0.03132
Nuclear contribution   :      0.18561      -2.51769      -0.01827
                        -----------------------------------------
Total Dipole Moment    :     -0.57110      -0.20247       0.01304
                        -----------------------------------------
Magnitude (a.u.)       :      0.60607
Magnitude (Debye)      :      1.54050



--------------------
Rotational spectrum 
--------------------
 
Rotational constants in cm-1:     0.863816     0.700572     0.461696 
Rotational constants in MHz : 25896.542983 21002.628991 13841.298707 

 Dipole components along the rotational axes: 
x,y,z [a.u.] :     0.139408    -0.589815    -0.000249 
x,y,z [Debye]:     0.354348    -1.499191    -0.000634 

 

Timings for individual modules:

Sum of individual times         ...        7.193 sec (=   0.120 min)
GTO integral calculation        ...        0.256 sec (=   0.004 min)   3.6 %
SCF iterations                  ...        1.141 sec (=   0.019 min)  15.9 %
CIS module                      ...        0.889 sec (=   0.015 min)  12.4 %
SCF Gradient evaluation         ...        4.907 sec (=   0.082 min)  68.2 %
                             ****ORCA TERMINATED NORMALLY****
TOTAL RUN TIME: 0 days 0 hours 0 minutes 7 seconds 578 msec
