
                                 *****************
                                 * O   R   C   A *
                                 *****************

                                            #,                                       
                                            ###                                      
                                            ####                                     
                                            #####                                    
                                            ######                                   
                                           ########,                                 
                                     ,,################,,,,,                         
                               ,,#################################,,                 
                          ,,##########################################,,             
                       ,#########################################, ''#####,          
                    ,#############################################,,   '####,        
                  ,##################################################,,,,####,       
                ,###########''''           ''''###############################       
              ,#####''   ,,,,##########,,,,          '''####'''          '####       
            ,##' ,,,,###########################,,,                        '##       
           ' ,,###''''                  '''############,,,                           
         ,,##''                                '''############,,,,        ,,,,,,###''
      ,#''                                            '''#######################'''  
     '                                                          ''''####''''         
             ,#######,   #######,   ,#######,      ##                                
            ,#'     '#,  ##    ##  ,#'     '#,    #''#        ######   ,####,        
            ##       ##  ##   ,#'  ##            #'  '#       #        #'  '#        
            ##       ##  #######   ##           ,######,      #####,   #    #        
            '#,     ,#'  ##    ##  '#,     ,#' ,#      #,         ##   #,  ,#        
             '#######'   ##     ##  '#######'  #'      '#     #####' # '####'        



                  #######################################################
                  #                        -***-                        #
                  #          Department of theory and spectroscopy      #
                  #    Directorship and core code : Frank Neese         #
                  #        Max Planck Institute fuer Kohlenforschung    #
                  #                Kaiser Wilhelm Platz 1               #
                  #                 D-45470 Muelheim/Ruhr               #
                  #                      Germany                        #
                  #                                                     #
                  #                  All rights reserved                #
                  #                        -***-                        #
                  #######################################################


                         Program Version 5.0.2 -  RELEASE  -


 With contributions from (in alphabetic order):
   Daniel Aravena         : Magnetic Suceptibility
   Michael Atanasov       : Ab Initio Ligand Field Theory (pilot matlab implementation)
   Alexander A. Auer      : GIAO ZORA, VPT2 properties, NMR spectrum
   Ute Becker             : Parallelization
   Giovanni Bistoni       : ED, misc. LED, open-shell LED, HFLD
   Martin Brehm           : Molecular dynamics
   Dmytro Bykov           : SCF Hessian
   Vijay G. Chilkuri      : MRCI spin determinant printing, contributions to CSF-ICE
   Dipayan Datta          : RHF DLPNO-CCSD density
   Achintya Kumar Dutta   : EOM-CC, STEOM-CC
   Dmitry Ganyushin       : Spin-Orbit,Spin-Spin,Magnetic field MRCI
   Miquel Garcia          : C-PCM and meta-GGA Hessian, CC/C-PCM, Gaussian charge scheme
   Yang Guo               : DLPNO-NEVPT2, F12-NEVPT2, CIM, IAO-localization
   Andreas Hansen         : Spin unrestricted coupled pair/coupled cluster methods
   Benjamin Helmich-Paris : MC-RPA, TRAH-SCF, COSX integrals
   Lee Huntington         : MR-EOM, pCC
   Robert Izsak           : Overlap fitted RIJCOSX, COSX-SCS-MP3, EOM
   Marcus Kettner         : VPT2
   Christian Kollmar      : KDIIS, OOCD, Brueckner-CCSD(T), CCSD density, CASPT2, CASPT2-K
   Simone Kossmann        : Meta GGA functionals, TD-DFT gradient, OOMP2, MP2 Hessian
   Martin Krupicka        : Initial AUTO-CI
   Lucas Lang             : DCDCAS
   Marvin Lechner         : AUTO-CI (C++ implementation), FIC-MRCC
   Dagmar Lenk            : GEPOL surface, SMD
   Dimitrios Liakos       : Extrapolation schemes; Compound Job, initial MDCI parallelization
   Dimitrios Manganas     : Further ROCIS development; embedding schemes
   Dimitrios Pantazis     : SARC Basis sets
   Anastasios Papadopoulos: AUTO-CI, single reference methods and gradients
   Taras Petrenko         : DFT Hessian,TD-DFT gradient, ASA, ECA, R-Raman, ABS, FL, XAS/XES, NRVS
   Peter Pinski           : DLPNO-MP2, DLPNO-MP2 Gradient
   Christoph Reimann      : Effective Core Potentials
   Marius Retegan         : Local ZFS, SOC
   Christoph Riplinger    : Optimizer, TS searches, QM/MM, DLPNO-CCSD(T), (RO)-DLPNO pert. Triples
   Tobias Risthaus        : Range-separated hybrids, TD-DFT gradient, RPA, STAB
   Michael Roemelt        : Original ROCIS implementation
   Masaaki Saitow         : Open-shell DLPNO-CCSD energy and density
   Barbara Sandhoefer     : DKH picture change effects
   Avijit Sen             : IP-ROCIS
   Kantharuban Sivalingam : CASSCF convergence, NEVPT2, FIC-MRCI
   Bernardo de Souza      : ESD, SOC TD-DFT
   Georgi Stoychev        : AutoAux, RI-MP2 NMR, DLPNO-MP2 response
   Willem Van den Heuvel  : Paramagnetic NMR
   Boris Wezisla          : Elementary symmetry handling
   Frank Wennmohs         : Technical directorship


 We gratefully acknowledge several colleagues who have allowed us to
 interface, adapt or use parts of their codes:
   Stefan Grimme, W. Hujo, H. Kruse, P. Pracht,  : VdW corrections, initial TS optimization,
                  C. Bannwarth, S. Ehlert          DFT functionals, gCP, sTDA/sTD-DF
   Ed Valeev, F. Pavosevic, A. Kumar             : LibInt (2-el integral package), F12 methods
   Garnet Chan, S. Sharma, J. Yang, R. Olivares  : DMRG
   Ulf Ekstrom                                   : XCFun DFT Library
   Mihaly Kallay                                 : mrcc  (arbitrary order and MRCC methods)
   Jiri Pittner, Ondrej Demel                    : Mk-CCSD
   Frank Weinhold                                : gennbo (NPA and NBO analysis)
   Christopher J. Cramer and Donald G. Truhlar   : smd solvation model
   Lars Goerigk                                  : TD-DFT with DH, B97 family of functionals
   V. Asgeirsson, H. Jonsson                     : NEB implementation
   FAccTs GmbH                                   : IRC, NEB, NEB-TS, DLPNO-Multilevel, CI-OPT
                                                   MM, QMMM, 2- and 3-layer-ONIOM, Crystal-QMMM,
                                                   LR-CPCM, SF, NACMEs, symmetry and pop. for TD-DFT,
                                                   nearIR, NL-DFT gradient (VV10), updates on ESD,
                                                   ML-optimized integration grids
   S Lehtola, MJT Oliveira, MAL Marques          : LibXC Library
   Liviu Ungur et al                             : ANISO software


 Your calculation uses the libint2 library for the computation of 2-el integrals
 For citations please refer to: http://libint.valeyev.net

 Your ORCA version has been built with support for libXC version: 5.1.0
 For citations please refer to: https://tddft.org/programs/libxc/

 This ORCA versions uses:
   CBLAS   interface :  Fast vector & matrix operations
   LAPACKE interface :  Fast linear algebra routines
   SCALAPACK package :  Parallel linear algebra routines
   Shared memory     :  Shared parallel matrices
   BLAS/LAPACK       :  OpenBLAS 0.3.15  USE64BITINT DYNAMIC_ARCH NO_AFFINITY SkylakeX SINGLE_THREADED
        Core in use  :  SkylakeX
   Copyright (c) 2011-2014, The OpenBLAS Project


Your calculation utilizes the atom-pairwise dispersion correction
with the Becke-Johnson damping scheme (D3BJ)
Cite in your paper:
S.Grimme, S.Ehrlich, L.Goerigk, J Comput Chem, (2011), 32, 1456–1465 
S.Grimme, J.Antony, S.Ehrlich and H.Krieg, J.Chem.Phys., 132, (2010), 154104 
   

================================================================================

----- Orbital basis set information -----
Your calculation utilizes the basis: def2-TZVP
   F. Weigend and R. Ahlrichs, Phys. Chem. Chem. Phys. 7, 3297 (2005).

----- AuxJ basis set information -----
Your calculation utilizes the auxiliary basis: def2/J
   F. Weigend, Phys. Chem. Chem. Phys. 8, 1057 (2006).

================================================================================
                                        WARNINGS
                       Please study these warnings very carefully!
================================================================================

INFO   : Checking CIS options ...

WARNING: CIS/ROCIS methods need fully converged wavefunctions
  ===> : Setting SCFConvForced true
         You can overwrite this default with %scf ConvForced false 


INFO   : the flag for use of the SHARK integral package has been found!

================================================================================
                                       INPUT FILE
================================================================================
NAME = ox_es1_E_orca0003.inp
|  1> ! engrad PBE0 D3BJ def2-TZVP  
|  2> %pal nprocs 8 end
|  3> %maxcore 3000
|  4> 
|  5> %tddft
|  6>   nroots 1
|  7>   tda true
|  8>   Iroot 1
|  9>   end 
| 10> *xyz 0 1 
| 11> O   -1.0182066345004768 0.8403806899265791 -0.027541434959938882
| 12> C   -0.7671871913718599 -0.48613195841435985 0.03193115419377136
| 13> C   0.7289556586998173 -0.45643023034712754 -0.08107096240241717
| 14> H   -1.2795140396381193 -0.7262516636011933 0.8862397439605046
| 15> H   -1.2703061108882598 -0.6453402973901959 -0.9191753867428004
| 16> H   1.24248282557466 -0.6662098400640798 -0.9072954973918351
| 17> H   1.1794185775597539 -0.7061658024259015 0.9677070171292409
| 18> *
| 19> 
| 20>                          ****END OF INPUT****
================================================================================

                     *******************************
                     * Energy+Gradient Calculation *
                     *******************************

---------------------------------
CARTESIAN COORDINATES (ANGSTROEM)
---------------------------------
  O     -1.018207    0.840381   -0.027541
  C     -0.767187   -0.486132    0.031931
  C      0.728956   -0.456430   -0.081071
  H     -1.279514   -0.726252    0.886240
  H     -1.270306   -0.645340   -0.919175
  H      1.242483   -0.666210   -0.907295
  H      1.179419   -0.706166    0.967707

----------------------------
CARTESIAN COORDINATES (A.U.)
----------------------------
  NO LB      ZA    FRAG     MASS         X           Y           Z
   0 O     8.0000    0    15.999   -1.924132    1.588089   -0.052046
   1 C     6.0000    0    12.011   -1.449774   -0.918656    0.060341
   2 C     6.0000    0    12.011    1.377527   -0.862528   -0.153202
   3 H     1.0000    0     1.008   -2.417931   -1.372417    1.674750
   4 H     1.0000    0     1.008   -2.400531   -1.219516   -1.736990
   5 H     1.0000    0     1.008    2.347952   -1.258954   -1.714540
   6 H     1.0000    0     1.008    2.228778   -1.334460    1.828701

--------------------------------
INTERNAL COORDINATES (ANGSTROEM)
--------------------------------
 O      0   0   0     0.000000000000     0.00000000     0.00000000
 C      1   0   0     1.351363591302     0.00000000     0.00000000
 C      2   1   0     1.500698203779    99.34895702     0.00000000
 H      2   1   3     1.024685043720   100.01139928   127.69318134
 H      2   1   3     1.087694623774    91.10455036   245.99514880
 H      3   2   1     0.995170647673   124.94550794   257.63582997
 H      3   2   1     1.168426269638   108.21237905   106.75179816

---------------------------
INTERNAL COORDINATES (A.U.)
---------------------------
 O      0   0   0     0.000000000000     0.00000000     0.00000000
 C      1   0   0     2.553707094914     0.00000000     0.00000000
 C      2   1   0     2.835908614810    99.34895702     0.00000000
 H      2   1   3     1.936374106155   100.01139928   127.69318134
 H      2   1   3     2.055444956272    91.10455036   245.99514880
 H      3   2   1     1.880599980619   124.94550794   257.63582997
 H      3   2   1     2.208005657295   108.21237905   106.75179816

---------------------
BASIS SET INFORMATION
---------------------
There are 3 groups of distinct atoms

 Group   1 Type O   : 11s6p2d1f contracted to 5s3p2d1f pattern {62111/411/11/1}
 Group   2 Type C   : 11s6p2d1f contracted to 5s3p2d1f pattern {62111/411/11/1}
 Group   3 Type H   : 5s1p contracted to 3s1p pattern {311/1}

Atom   0O    basis set group =>   1
Atom   1C    basis set group =>   2
Atom   2C    basis set group =>   2
Atom   3H    basis set group =>   3
Atom   4H    basis set group =>   3
Atom   5H    basis set group =>   3
Atom   6H    basis set group =>   3
---------------------------------
AUXILIARY/J BASIS SET INFORMATION
---------------------------------
There are 3 groups of distinct atoms

 Group   1 Type O   : 12s5p4d2f1g contracted to 6s4p3d1f1g pattern {711111/2111/211/2/1}
 Group   2 Type C   : 12s5p4d2f1g contracted to 6s4p3d1f1g pattern {711111/2111/211/2/1}
 Group   3 Type H   : 5s2p1d contracted to 3s1p1d pattern {311/2/1}

Atom   0O    basis set group =>   1
Atom   1C    basis set group =>   2
Atom   2C    basis set group =>   2
Atom   3H    basis set group =>   3
Atom   4H    basis set group =>   3
Atom   5H    basis set group =>   3
Atom   6H    basis set group =>   3

Checking for AutoStart:
The File: ox_es1_E_orca0003.gbw exists
Trying to determine its content:
     ... Fine, the file contains calculation information
     ... Fine, the calculation information was read
     ... Fine, the file contains a basis set
     ... Fine, the basis set was read
     ... Fine, the file contains a geometry
     ... Fine, the geometry was read
     ... Fine, the file contains a set of orbitals
     ... Fine, the orbitals can be read
     => possible old guess file was deleted
     => GBW file was renamed to GES file
     => GES file is set as startup file
     => Guess is set to MORead
     ... now leaving AutoStart



           ************************************************************
           *        Program running with 8 parallel MPI-processes     *
           *              working on a common directory               *
           ************************************************************
------------------------------------------------------------------------------
                           ORCA GTO INTEGRAL CALCULATION
                           -- RI-GTO INTEGRALS CHOSEN --
------------------------------------------------------------------------------
------------------------------------------------------------------------------
                   ___                                                        
                  /   \      - P O W E R E D   B Y -                         
                 /     \                                                     
                 |  |  |   _    _      __       _____    __    __             
                 |  |  |  | |  | |    /  \     |  _  \  |  |  /  |          
                  \  \/   | |  | |   /    \    | | | |  |  | /  /          
                 / \  \   | |__| |  /  /\  \   | |_| |  |  |/  /          
                |  |  |   |  __  | /  /__\  \  |    /   |      \           
                |  |  |   | |  | | |   __   |  |    \   |  |\   \          
                \     /   | |  | | |  |  |  |  | |\  \  |  | \   \       
                 \___/    |_|  |_| |__|  |__|  |_| \__\ |__|  \__/        
                                                                              
                      - O R C A' S   B I G   F R I E N D -                    
                                      &                                       
                       - I N T E G R A L  F E E D E R -                       
                                                                              
 v1 FN, 2020, v2 2021                                                         
------------------------------------------------------------------------------


Reading SHARK input file ox_es1_E_orca0003.SHARKINP.tmp ... ok
----------------------
SHARK INTEGRAL PACKAGE
----------------------

Number of atoms                             ...      7
Number of basis functions                   ...    117
Number of shells                            ...     49
Maximum angular momentum                    ...      3
Integral batch strategy                     ... SHARK/LIBINT Hybrid
RI-J (if used) integral strategy            ... SPLIT-RIJ (Revised 2003 algorithm where possible)
Printlevel                                  ...      1
Contraction scheme used                     ... SEGMENTED contraction
Coulomb Range Separation                    ... NOT USED
Exchange Range Separation                   ... NOT USED
Finite Nucleus Model                        ... NOT USED
Auxiliary Coulomb fitting basis             ... AVAILABLE
   # of basis functions in Aux-J            ...    191
   # of shells in Aux-J                     ...     65
   Maximum angular momentum in Aux-J        ...      4
Auxiliary J/K fitting basis                 ... NOT available
Auxiliary Correlation fitting basis         ... NOT available
Auxiliary 'external' fitting basis          ... NOT available
Integral threshold                          ...     2.500000e-11
Primitive cut-off                           ...     2.500000e-12
Primitive pair pre-selection threshold      ...     2.500000e-12

Calculating pre-screening integrals         ... done (  0.0 sec) Dimension = 49
Organizing shell pair data                  ... done (  0.0 sec)
Shell pair information
Total number of shell pairs                 ...      1225
Shell pairs after pre-screening             ...      1214
Total number of primitive shell pairs       ...      3648
Primitive shell pairs kept                  ...      3096
          la=0 lb=0:    368 shell pairs
          la=1 lb=0:    351 shell pairs
          la=1 lb=1:     91 shell pairs
          la=2 lb=0:    161 shell pairs
          la=2 lb=1:     78 shell pairs
          la=2 lb=2:     21 shell pairs
          la=3 lb=0:     81 shell pairs
          la=3 lb=1:     39 shell pairs
          la=3 lb=2:     18 shell pairs
          la=3 lb=3:      6 shell pairs

Calculating one electron integrals          ... done (  0.0 sec)
Calculating RI/J V-Matrix + Cholesky decomp.... done (  0.0 sec)
Calculating Nuclear repulsion               ... done (  0.0 sec) ENN=     69.878922550200 Eh

SHARK setup successfully completed in   0.1 seconds

Maximum memory used throughout the entire GTOINT-calculation: 14.9 MB


           ************************************************************
           *        Program running with 8 parallel MPI-processes     *
           *              working on a common directory               *
           ************************************************************
-------------------------------------------------------------------------------
                                 ORCA SCF
-------------------------------------------------------------------------------

------------
SCF SETTINGS
------------
Hamiltonian:
 Density Functional     Method          .... DFT(GTOs)
 Exchange Functional    Exchange        .... PBE
   PBE kappa parameter   XKappa         ....  0.804000
   PBE mue parameter    XMuePBE         ....  0.219520
 Correlation Functional Correlation     .... PBE
   PBE beta parameter  CBetaPBE         ....  0.066725
 LDA part of GGA corr.  LDAOpt          .... PW91-LDA
 Gradients option       PostSCFGGA      .... off
 Hybrid DFT is turned on
   Fraction HF Exchange ScalHFX         ....  0.250000
   Scaling of DF-GGA-X  ScalDFX         ....  0.750000
   Scaling of DF-GGA-C  ScalDFC         ....  1.000000
   Scaling of DF-LDA-C  ScalLDAC        ....  1.000000
   Perturbative correction              ....  0.000000
   Density functional embedding theory  .... OFF
   NL short-range parameter             ....  6.900000
 RI-approximation to the Coulomb term is turned on
   Number of AuxJ basis functions       .... 191
   RIJ-COSX (HFX calculated with COS-X)).... on


General Settings:
 Integral files         IntName         .... ox_es1_E_orca0003
 Hartree-Fock type      HFTyp           .... RHF
 Total Charge           Charge          ....    0
 Multiplicity           Mult            ....    1
 Number of Electrons    NEL             ....   24
 Basis Dimension        Dim             ....  117
 Nuclear Repulsion      ENuc            ....     69.8789225502 Eh

Convergence Acceleration:
 DIIS                   CNVDIIS         .... on
   Start iteration      DIISMaxIt       ....    12
   Startup error        DIISStart       ....  0.200000
   # of expansion vecs  DIISMaxEq       ....     5
   Bias factor          DIISBfac        ....   1.050
   Max. coefficient     DIISMaxC        ....  10.000
 Trust-Rad. Augm. Hess. CNVTRAH         .... auto
   Auto Start mean grad. ratio tolernc. ....  1.125000
   Auto Start start iteration           ....     1
   Auto Start num. interpolation iter.  ....    10
   Max. Number of Micro iterations      ....    16
   Max. Number of Macro iterations      .... Maxiter - #DIIS iter
   Number of Davidson start vectors     ....     2
   Converg. threshold I  (grad. norm)   ....   1.000e-05
   Converg. threshold II (energy diff.) ....   1.000e-08
   Grad. Scal. Fac. for Micro threshold ....   0.100
   Minimum threshold for Micro iter.    ....   0.010
   NR start threshold (gradient norm)   ....   0.001
   Initial trust radius                 ....   0.400
   Minimum AH scaling param. (alpha)    ....   1.000
   Maximum AH scaling param. (alpha)    .... 1000.000
   Orbital update algorithm             .... Taylor
   White noise on init. David. guess    .... on
   Maximum white noise                  ....   0.010
   Quad. conv. algorithm                .... NR
 SOSCF                  CNVSOSCF        .... on
   Start iteration      SOSCFMaxIt      ....   150
   Startup grad/error   SOSCFStart      ....  0.003300
 Level Shifting         CNVShift        .... on
   Level shift para.    LevelShift      ....    0.2500
   Turn off err/grad.   ShiftErr        ....    0.0010
 Zerner damping         CNVZerner       .... off
 Static damping         CNVDamp         .... on
   Fraction old density DampFac         ....    0.7000
   Max. Damping (<1)    DampMax         ....    0.9800
   Min. Damping (>=0)   DampMin         ....    0.0000
   Turn off err/grad.   DampErr         ....    0.1000
 Fernandez-Rico         CNVRico         .... off

SCF Procedure:
 Maximum # iterations   MaxIter         ....   125
 SCF integral mode      SCFMode         .... Direct
   Integral package                     .... SHARK and LIBINT hybrid scheme
 Reset frequency        DirectResetFreq ....    20
 Integral Threshold     Thresh          ....  2.500e-11 Eh
 Primitive CutOff       TCut            ....  2.500e-12 Eh

Convergence Tolerance:
 Convergence Check Mode ConvCheckMode   .... Total+1el-Energy
 Convergence forced     ConvForced      .... 1
 Energy Change          TolE            ....  1.000e-08 Eh
 1-El. energy change                    ....  1.000e-05 Eh
 Orbital Gradient       TolG            ....  1.000e-05
 Orbital Rotation angle TolX            ....  1.000e-05
 DIIS Error             TolErr          ....  5.000e-07


Diagonalization of the overlap matrix:
Smallest eigenvalue                        ... 5.868e-04
Time for diagonalization                   ...    0.002 sec
Threshold for overlap eigenvalues          ... 1.000e-08
Number of eigenvalues below threshold      ... 0
Time for construction of square roots      ...    0.002 sec
Total time needed                          ...    0.003 sec

---------------------
INITIAL GUESS: MOREAD
---------------------
Guess MOs are being read from file: ox_es1_E_orca0003.ges
Input Geometry matches current geometry (good)
Input basis set matches current basis set (good)
MOs were renormalized
MOs were reorthogonalized (Cholesky)
                      ------------------
                      INITIAL GUESS DONE (   0.0 sec)
                      ------------------
-------------------
DFT GRID GENERATION
-------------------

General Integration Accuracy     IntAcc      ... 4.388
Radial Grid Type                 RadialGrid  ... OptM3 with GC (2021)
Angular Grid (max. ang.)         AngularGrid ... 4 (Lebedev-302)
Angular grid pruning method      GridPruning ... 4 (adaptive)
Weight generation scheme         WeightScheme... Becke
Basis function cutoff            BFCut       ... 1.0000e-11
Integration weight cutoff        WCut        ... 1.0000e-14
Angular grids for H and He will be reduced by one unit
Partially contracted basis set               ... off
Rotationally invariant grid construction     ... off

Total number of grid points                  ...    31311
Total number of batches                      ...      492
Average number of points per batch           ...       63
Average number of grid points per atom       ...     4473
Time for grid setup =    0.134 sec

--------------------
COSX GRID GENERATION
--------------------

GRIDX 1
-------
General Integration Accuracy     IntAcc      ... 3.816
Radial Grid Type                 RadialGrid  ... OptM3 with GC (2021)
Angular Grid (max. ang.)         AngularGrid ... 1 (Lebedev-50)
Angular grid pruning method      GridPruning ... 4 (adaptive)
Weight generation scheme         WeightScheme... Becke
Basis function cutoff            BFCut       ... 1.0000e-11
Integration weight cutoff        WCut        ... 1.0000e-14
Angular grids for H and He will be reduced by one unit
Partially contracted basis set               ... on
Rotationally invariant grid construction     ... off

Total number of grid points                  ...     4038
Total number of batches                      ...       67
Average number of points per batch           ...       60
Average number of grid points per atom       ...      577
UseSFitting                                  ... on

GRIDX 2
-------
General Integration Accuracy     IntAcc      ... 4.020
Radial Grid Type                 RadialGrid  ... OptM3 with GC (2021)
Angular Grid (max. ang.)         AngularGrid ... 2 (Lebedev-110)
Angular grid pruning method      GridPruning ... 4 (adaptive)
Weight generation scheme         WeightScheme... Becke
Basis function cutoff            BFCut       ... 1.0000e-11
Integration weight cutoff        WCut        ... 1.0000e-14
Angular grids for H and He will be reduced by one unit
Partially contracted basis set               ... on
Rotationally invariant grid construction     ... off

Total number of grid points                  ...     8729
Total number of batches                      ...      139
Average number of points per batch           ...       62
Average number of grid points per atom       ...     1247
UseSFitting                                  ... on

GRIDX 3
-------
General Integration Accuracy     IntAcc      ... 4.338
Radial Grid Type                 RadialGrid  ... OptM3 with GC (2021)
Angular Grid (max. ang.)         AngularGrid ... 3 (Lebedev-194)
Angular grid pruning method      GridPruning ... 4 (adaptive)
Weight generation scheme         WeightScheme... Becke
Basis function cutoff            BFCut       ... 1.0000e-11
Integration weight cutoff        WCut        ... 1.0000e-14
Angular grids for H and He will be reduced by one unit
Partially contracted basis set               ... on
Rotationally invariant grid construction     ... off

Total number of grid points                  ...    19268
Total number of batches                      ...      305
Average number of points per batch           ...       63
Average number of grid points per atom       ...     2753
UseSFitting                                  ... on

Time for X-Grid setup             =    0.084 sec

--------------
SCF ITERATIONS
--------------
ITER       Energy         Delta-E        Max-DP      RMS-DP      [F,P]     Damp
               ***  Starting incremental Fock matrix formation  ***
                      *** Initiating the SOSCF procedure ***
                      *** Re-Reading the Fockian *** 
                      *** Removing any level shift *** 
ITER      Energy       Delta-E        Grad      Rot      Max-DP    RMS-DP
  0   -153.51567228 -153.5156722825  0.000001  0.000001  0.000002  0.000000
               *** Restarting incremental Fock matrix formation ***
                  ***Gradient check signals convergence***
              ***Rediagonalizing the Fockian in SOSCF/NRSCF***

               *****************************************************
               *                     SUCCESS                       *
               *           SCF CONVERGED AFTER   1 CYCLES          *
               *****************************************************

Old exchange energy                            =     -4.970709762 Eh
New exchange energy                            =     -4.970714133 Eh
Exchange energy change after final integration =     -0.000004372 Eh
Total energy after final integration           =   -153.515676654 Eh
Final COS-X integration done in                =     0.305 sec

----------------
TOTAL SCF ENERGY
----------------

Total Energy       :         -153.51567665 Eh           -4177.37394 eV

Components:
Nuclear Repulsion  :           69.87892255 Eh            1901.50215 eV
Electronic Energy  :         -223.39459920 Eh           -6078.87609 eV
One Electron Energy:         -346.41735846 Eh           -9426.49556 eV
Two Electron Energy:          123.02275926 Eh            3347.61947 eV
Max COSX asymmetry :            0.00000157 Eh               0.00004 eV

Virial components:
Potential Energy   :         -306.53817535 Eh           -8341.32782 eV
Kinetic Energy     :          153.02249869 Eh            4163.95388 eV
Virial Ratio       :            2.00322291


DFT components:
N(Alpha)           :       12.000004615123 electrons
N(Beta)            :       12.000004615123 electrons
N(Total)           :       24.000009230246 electrons
E(X)               :      -14.921668618755 Eh       
E(C)               :       -0.775056796996 Eh       
E(XC)              :      -15.696725415751 Eh       
DFET-embed. en.    :        0.000000000000 Eh       

---------------
SCF CONVERGENCE
---------------

  Last Energy change         ...    2.2709e-11  Tolerance :   1.0000e-08
  Last MAX-Density change    ...    6.6613e-16  Tolerance :   1.0000e-07
  Last RMS-Density change    ...    1.9596e-17  Tolerance :   5.0000e-09
  Last Orbital Gradient      ...    2.0081e-06  Tolerance :   1.0000e-05
  Last Orbital Rotation      ...    1.5538e-05  Tolerance :   1.0000e-05

             **** THE GBW FILE WAS UPDATED (ox_es1_E_orca0003.gbw) ****
             **** DENSITY ox_es1_E_orca0003.scfp WAS UPDATED ****
             **** ENERGY FILE WAS UPDATED (ox_es1_E_orca0003.en.tmp) ****
             **** THE GBW FILE WAS UPDATED (ox_es1_E_orca0003.gbw) ****
             **** DENSITY ox_es1_E_orca0003.scfp WAS UPDATED ****
----------------
ORBITAL ENERGIES
----------------

  NO   OCC          E(Eh)            E(eV) 
   0   2.0000     -19.196806      -522.3716 
   1   2.0000     -10.320969      -280.8479 
   2   2.0000     -10.260317      -279.1974 
   3   2.0000      -1.027235       -27.9525 
   4   2.0000      -0.767254       -20.8780 
   5   2.0000      -0.627995       -17.0886 
   6   2.0000      -0.529683       -14.4134 
   7   2.0000      -0.495351       -13.4792 
   8   2.0000      -0.431900       -11.7526 
   9   2.0000      -0.403105       -10.9690 
  10   2.0000      -0.273863        -7.4522 
  11   2.0000      -0.246708        -6.7133 
  12   0.0000      -0.144619        -3.9353 
  13   0.0000       0.049314         1.3419 
  14   0.0000       0.086718         2.3597 
  15   0.0000       0.090779         2.4702 
  16   0.0000       0.137296         3.7360 
  17   0.0000       0.149092         4.0570 
  18   0.0000       0.182638         4.9698 
  19   0.0000       0.196772         5.3544 
  20   0.0000       0.235247         6.4014 
  21   0.0000       0.245353         6.6764 
  22   0.0000       0.263810         7.1786 
  23   0.0000       0.339010         9.2249 
  24   0.0000       0.366691         9.9782 
  25   0.0000       0.378802        10.3077 
  26   0.0000       0.410431        11.1684 
  27   0.0000       0.418572        11.3899 
  28   0.0000       0.444325        12.0907 
  29   0.0000       0.479555        13.0493 
  30   0.0000       0.511068        13.9069 
  31   0.0000       0.568498        15.4696 
  32   0.0000       0.583371        15.8743 
  33   0.0000       0.604637        16.4530 
  34   0.0000       0.690534        18.7904 
  35   0.0000       0.734988        20.0001 
  36   0.0000       0.797630        21.7046 
  37   0.0000       0.853605        23.2278 
  38   0.0000       0.883249        24.0344 
  39   0.0000       0.910953        24.7883 
  40   0.0000       0.941415        25.6172 
  41   0.0000       1.025619        27.9085 
  42   0.0000       1.055847        28.7311 
  43   0.0000       1.084438        29.5091 
  44   0.0000       1.181184        32.1417 
  45   0.0000       1.317939        35.8629 
  46   0.0000       1.392664        37.8963 
  47   0.0000       1.431447        38.9516 
  48   0.0000       1.512916        41.1685 
  49   0.0000       1.530994        41.6605 
  50   0.0000       1.558909        42.4201 
  51   0.0000       1.597307        43.4649 
  52   0.0000       1.641917        44.6788 
  53   0.0000       1.683582        45.8126 
  54   0.0000       1.747483        47.5514 
  55   0.0000       1.769896        48.1613 
  56   0.0000       1.822291        49.5871 
  57   0.0000       1.867493        50.8171 
  58   0.0000       1.881250        51.1914 
  59   0.0000       1.897166        51.6245 
  60   0.0000       1.997569        54.3566 
  61   0.0000       2.084171        56.7132 
  62   0.0000       2.164071        58.8874 
  63   0.0000       2.255524        61.3759 
  64   0.0000       2.316602        63.0379 
  65   0.0000       2.386708        64.9456 
  66   0.0000       2.418718        65.8167 
  67   0.0000       2.429464        66.1091 
  68   0.0000       2.503701        68.1292 
  69   0.0000       2.527660        68.7811 
  70   0.0000       2.576266        70.1038 
  71   0.0000       2.645620        71.9910 
  72   0.0000       2.679218        72.9052 
  73   0.0000       2.698992        73.4433 
  74   0.0000       2.752814        74.9079 
  75   0.0000       2.810298        76.4721 
  76   0.0000       2.892023        78.6959 
  77   0.0000       2.995507        81.5119 
  78   0.0000       3.006323        81.8062 
  79   0.0000       3.042277        82.7846 
  80   0.0000       3.042665        82.7951 
  81   0.0000       3.116304        84.7990 
  82   0.0000       3.136564        85.3502 
  83   0.0000       3.187285        86.7304 
  84   0.0000       3.200761        87.0971 
  85   0.0000       3.213631        87.4474 
  86   0.0000       3.349649        91.1486 
  87   0.0000       3.379845        91.9703 
  88   0.0000       3.466186        94.3197 
  89   0.0000       3.538836        96.2966 
  90   0.0000       3.581984        97.4707 
  91   0.0000       3.634903        98.9107 
  92   0.0000       3.718986       101.1988 
  93   0.0000       3.826729       104.1306 
  94   0.0000       3.955874       107.6448 
  95   0.0000       4.067292       110.6766 
  96   0.0000       4.125584       112.2629 
  97   0.0000       4.327185       117.7487 
  98   0.0000       4.429716       120.5387 
  99   0.0000       4.473338       121.7257 
 100   0.0000       4.596806       125.0855 
 101   0.0000       4.758999       129.4990 
 102   0.0000       5.198473       141.4576 
 103   0.0000       5.250382       142.8701 
 104   0.0000       5.449880       148.2988 
 105   0.0000       5.472522       148.9149 
 106   0.0000       5.882590       160.0734 
 107   0.0000       5.923868       161.1966 
 108   0.0000       6.040408       164.3679 
 109   0.0000       6.396793       174.0656 
 110   0.0000       6.408714       174.3900 
 111   0.0000       6.850949       186.4238 
 112   0.0000       6.862479       186.7376 
 113   0.0000       6.955230       189.2614 
 114   0.0000      22.068512       600.5147 
 115   0.0000      22.672896       616.9609 
 116   0.0000      43.820440      1192.4148 

                    ********************************
                    * MULLIKEN POPULATION ANALYSIS *
                    ********************************

-----------------------
MULLIKEN ATOMIC CHARGES
-----------------------
   0 O :   -0.372077
   1 C :   -0.044019
   2 C :   -0.143623
   3 H :    0.116508
   4 H :    0.108240
   5 H :    0.171944
   6 H :    0.163027
Sum of atomic charges:    0.0000000

--------------------------------
MULLIKEN REDUCED ORBITAL CHARGES
--------------------------------
  0 O s       :     3.894822  s :     3.894822
      pz      :     1.908448  p :     4.448109
      px      :     1.183266
      py      :     1.356395
      dz2     :     0.003341  d :     0.027675
      dxz     :     0.000264
      dyz     :     0.007064
      dx2y2   :     0.009721
      dxy     :     0.007286
      f0      :     0.000189  f :     0.001471
      f+1     :     0.000076
      f-1     :     0.000308
      f+2     :     0.000230
      f-2     :     0.000028
      f+3     :     0.000317
      f-3     :     0.000323
  1 C s       :     3.185428  s :     3.185428
      pz      :     1.070279  p :     2.678098
      px      :     0.876349
      py      :     0.731470
      dz2     :     0.012943  d :     0.169249
      dxz     :     0.017395
      dyz     :     0.054577
      dx2y2   :     0.023517
      dxy     :     0.060819
      f0      :     0.002239  f :     0.011244
      f+1     :     0.001258
      f-1     :     0.000774
      f+2     :     0.003231
      f-2     :     0.000416
      f+3     :     0.002837
      f-3     :     0.000489
  2 C s       :     3.295929  s :     3.295929
      pz      :     1.046604  p :     2.795329
      px      :     1.014058
      py      :     0.734667
      dz2     :     0.007097  d :     0.047713
      dxz     :     0.020718
      dyz     :     0.003535
      dx2y2   :     0.004745
      dxy     :     0.011619
      f0      :     0.000619  f :     0.004652
      f+1     :     0.001094
      f-1     :     0.000116
      f+2     :     0.000683
      f-2     :     0.000256
      f+3     :     0.000764
      f-3     :     0.001118
  3 H s       :     0.860028  s :     0.860028
      pz      :     0.010683  p :     0.023464
      px      :     0.006886
      py      :     0.005896
  4 H s       :     0.868721  s :     0.868721
      pz      :     0.010957  p :     0.023039
      px      :     0.005929
      py      :     0.006153
  5 H s       :     0.802358  s :     0.802358
      pz      :     0.011420  p :     0.025698
      px      :     0.008530
      py      :     0.005748
  6 H s       :     0.816758  s :     0.816758
      pz      :     0.011331  p :     0.020215
      px      :     0.005129
      py      :     0.003755


                     *******************************
                     * LOEWDIN POPULATION ANALYSIS *
                     *******************************

----------------------
LOEWDIN ATOMIC CHARGES
----------------------
   0 O :    0.001739
   1 C :   -0.494408
   2 C :    0.011754
   3 H :    0.101140
   4 H :    0.123135
   5 H :    0.096138
   6 H :    0.160502

-------------------------------
LOEWDIN REDUCED ORBITAL CHARGES
-------------------------------
  0 O s       :     3.513300  s :     3.513300
      pz      :     1.815073  p :     4.411880
      px      :     1.125167
      py      :     1.471640
      dz2     :     0.007051  d :     0.068156
      dxz     :     0.000314
      dyz     :     0.022181
      dx2y2   :     0.020342
      dxy     :     0.018267
      f0      :     0.000616  f :     0.004924
      f+1     :     0.000129
      f-1     :     0.000647
      f+2     :     0.001100
      f-2     :     0.000086
      f+3     :     0.001278
      f-3     :     0.001069
  1 C s       :     2.811476  s :     2.811476
      pz      :     1.057167  p :     2.954308
      px      :     1.011714
      py      :     0.885428
      dz2     :     0.077270  d :     0.645120
      dxz     :     0.091078
      dyz     :     0.150904
      dx2y2   :     0.133751
      dxy     :     0.192118
      f0      :     0.014020  f :     0.083504
      f+1     :     0.007276
      f-1     :     0.007985
      f+2     :     0.019265
      f-2     :     0.004099
      f+3     :     0.021672
      f-3     :     0.009187
  2 C s       :     2.914760  s :     2.914760
      pz      :     1.078156  p :     2.849586
      px      :     1.106642
      py      :     0.664788
      dz2     :     0.032026  d :     0.202029
      dxz     :     0.092189
      dyz     :     0.009840
      dx2y2   :     0.032583
      dxy     :     0.035390
      f0      :     0.003438  f :     0.021871
      f+1     :     0.003297
      f-1     :     0.001062
      f+2     :     0.003713
      f-2     :     0.001470
      f+3     :     0.003708
      f-3     :     0.005183
  3 H s       :     0.827033  s :     0.827033
      pz      :     0.033683  p :     0.071827
      px      :     0.021025
      py      :     0.017120
  4 H s       :     0.813317  s :     0.813317
      pz      :     0.030940  p :     0.063548
      px      :     0.016148
      py      :     0.016461
  5 H s       :     0.819710  s :     0.819710
      pz      :     0.039614  p :     0.084153
      px      :     0.026889
      py      :     0.017649
  6 H s       :     0.785089  s :     0.785089
      pz      :     0.031426  p :     0.054409
      px      :     0.013308
      py      :     0.009676


                      *****************************
                      * MAYER POPULATION ANALYSIS *
                      *****************************

  NA   - Mulliken gross atomic population
  ZA   - Total nuclear charge
  QA   - Mulliken gross atomic charge
  VA   - Mayer's total valence
  BVA  - Mayer's bonded valence
  FA   - Mayer's free valence

  ATOM       NA         ZA         QA         VA         BVA        FA
  0 O      8.3721     8.0000    -0.3721     1.8158     1.8158     0.0000
  1 C      6.0440     6.0000    -0.0440     4.0352     4.0352    -0.0000
  2 C      6.1436     6.0000    -0.1436     3.7377     3.7377     0.0000
  3 H      0.8835     1.0000     0.1165     0.9689     0.9689     0.0000
  4 H      0.8918     1.0000     0.1082     0.9830     0.9830     0.0000
  5 H      0.8281     1.0000     0.1719     0.9596     0.9596     0.0000
  6 H      0.8370     1.0000     0.1630     0.9632     0.9632     0.0000

  Mayer bond orders larger than 0.100000
B(  0-O ,  1-C ) :   1.0178 B(  0-O ,  2-C ) :   0.8168 B(  1-C ,  2-C ) :   1.0326 
B(  1-C ,  3-H ) :   0.9770 B(  1-C ,  4-H ) :   1.0008 B(  2-C ,  5-H ) :   0.9445 
B(  2-C ,  6-H ) :   0.9474 

-------
TIMINGS
-------

Total SCF time: 0 days 0 hours 0 min 1 sec 

Total time                  ....       1.162 sec
Sum of individual times     ....       1.053 sec  ( 90.6%)

Fock matrix formation       ....       0.820 sec  ( 70.5%)
  Split-RI-J                ....       0.137 sec  ( 16.8% of F)
  Chain of spheres X        ....       0.607 sec  ( 74.1% of F)
  XC integration            ....       0.073 sec  (  8.9% of F)
    Basis function eval.    ....       0.021 sec  ( 28.3% of XC)
    Density eval.           ....       0.016 sec  ( 21.5% of XC)
    XC-Functional eval.     ....       0.004 sec  (  6.1% of XC)
    XC-Potential eval.      ....       0.024 sec  ( 32.3% of XC)
Diagonalization             ....       0.003 sec  (  0.2%)
Density matrix formation    ....       0.000 sec  (  0.0%)
Population analysis         ....       0.003 sec  (  0.2%)
Initial guess               ....       0.005 sec  (  0.5%)
Orbital Transformation      ....       0.000 sec  (  0.0%)
Orbital Orthonormalization  ....       0.001 sec  (  0.1%)
DIIS solution               ....       0.002 sec  (  0.1%)
SOSCF solution              ....       0.003 sec  (  0.2%)
Grid generation             ....       0.218 sec  ( 18.7%)

Maximum memory used throughout the entire SCF-calculation: 61.1 MB


           ************************************************************
           *        Program running with 8 parallel MPI-processes     *
           *              working on a common directory               *
           ************************************************************
------------------------------------------------------------------------------
                        ORCA TD-DFT/TDA CALCULATION
------------------------------------------------------------------------------

Input orbitals are from        ... ox_es1_E_orca0003.gbw
CI-vector output               ... ox_es1_E_orca0003.cis
Tamm-Dancoff approximation     ... operative
CIS-Integral strategy          ... AO-integrals
Integral handling              ... AO integral Direct
Max. core memory used          ... 3000 MB
Reference state                ... RHF
Generation of triplets         ... off
Follow IRoot                   ... off
Number of operators            ... 1
Orbital ranges used for CIS calculation:
 Operator 0:  Orbitals   3... 11  to  12...116
XAS localization array:
 Operator 0:  Orbitals  -1... -1

-------------------
XC-INTEGRATION GRID
-------------------

General Integration Accuracy     IntAcc      ... 3.467
Radial Grid Type                 RadialGrid  ... OptM3 with GC (2021)
Angular Grid (max. ang.)         AngularGrid ... 1 (Lebedev-50)
Angular grid pruning method      GridPruning ... 4 (adaptive)
Weight generation scheme         WeightScheme... Becke
Basis function cutoff            BFCut       ... 1.0000e-11
Integration weight cutoff        WCut        ... 1.0000e-14
Angular grids for H and He will be reduced by one unit
Partially contracted basis set               ... off
Rotationally invariant grid construction     ... off

Total number of grid points                  ...     4544
Total number of batches                      ...       75
Average number of points per batch           ...       60
Average number of grid points per atom       ...      649

---------------------
COSX-INTEGRATION GRID
---------------------

General Integration Accuracy     IntAcc      ... 3.067
Radial Grid Type                 RadialGrid  ... OptM3 with GC (2021)
Angular Grid (max. ang.)         AngularGrid ... 1 (Lebedev-50)
Angular grid pruning method      GridPruning ... 4 (adaptive)
Weight generation scheme         WeightScheme... Becke
Basis function cutoff            BFCut       ... 1.0000e-11
Integration weight cutoff        WCut        ... 1.0000e-14
Angular grids for H and He will be reduced by one unit
Partially contracted basis set               ... on
Rotationally invariant grid construction     ... off

Total number of grid points                  ...     2088
Total number of batches                      ...       37
Average number of points per batch           ...       56
Average number of grid points per atom       ...      298

---------------
TD-DFT XC SETUP
---------------

DFT calculation                         ... on
Name of the grid file                   ... ox_es1_E_orca0003.grid_cis.tmp
Exchange functional (TD-DFT)            ... PBE
   PBE kappa parameter  XKappa (TD-DFT) ...  0.804000
   PBE mue parameter   XMuePBE (TD-DFT) ...  0.219520
Correlation functional (TD-DFT)         ... PBE
   PBE beta parameter CBetaPBE (TD-DFT) ...  0.066725
 LDA part of GGA corr.  LDAOpt (TD-DFT) ... PW91-LDA
Hybrid DFT                              ... on
   Exchange mixing (TD-DFT)             ...  0.250
   GGA exch. scaling (TD-DFT)           ...  0.750
   GGA corr. scaling (TD-DFT)           ...  1.000

Building densities             ... done
Calculating rho(r) on the grid ... done
Building xc-kernel on the grid ... done
                    *** TD-DFT CALCULATION INITIALIZED ***

------------------------
DAVIDSON-DIAGONALIZATION
------------------------

Dimension of the eigenvalue problem            ...    945
Number of roots to be determined               ...      1
Maximum size of the expansion space            ...     10
Maximum number of iterations                   ...    100
Convergence tolerance for the residual         ...    2.500e-07
Convergence tolerance for the energies         ...    2.500e-07
Orthogonality tolerance                        ...    1.000e-14
Level Shift                                    ...    0.000e+00
Constructing the preconditioner                ... o.k.
Building the initial guess                     ... o.k.
Number of trial vectors determined             ...     10


                       ****Iteration    0****

   Memory handling for direct AO based CIS:
   Memory per vector needed      ...     1 MB
   Memory needed                 ...     1 MB
   Memory available              ...  3000 MB
   Number of vectors per batch   ...  3000
   Number of batches             ...     1
   Time for densities:            0.000
   Time for RI-J (Direct):        0.017
   Time for K (COSX):             0.063
   Time for XC-Integration:       0.017
   Time for Sigma-Completion:     0.000
   Size of expansion space: 3
   Lowest Energy          :     0.023511639298
   Maximum Energy change  :     0.023511639298 (vector 0)
   Maximum residual norm  :     0.002480280691

                       ****Iteration    1****
   Time for densities:            0.000
   Time for RI-J (Direct):        0.014
   Time for K (COSX):             0.058
   Time for XC-Integration:       0.007
   Time for Sigma-Completion:     0.000
   Size of expansion space: 4
   Lowest Energy          :     0.021831865097
   Maximum Energy change  :     0.001679774202 (vector 0)
   Maximum residual norm  :     0.000034854959

                       ****Iteration    2****
   Time for densities:            0.000
   Time for RI-J (Direct):        0.014
   Time for K (COSX):             0.058
   Time for XC-Integration:       0.007
   Time for Sigma-Completion:     0.000
   Size of expansion space: 5
   Lowest Energy          :     0.021808213999
   Maximum Energy change  :     0.000023651098 (vector 0)
   Maximum residual norm  :     0.000000977416

                       ****Iteration    3****
   Time for densities:            0.000
   Time for RI-J (Direct):        0.014
   Time for K (COSX):             0.058
   Time for XC-Integration:       0.008
   Time for Sigma-Completion:     0.000
   Size of expansion space: 6
   Lowest Energy          :     0.021807465386
   Maximum Energy change  :     0.000000748613 (vector 0)
   Maximum residual norm  :     0.000000039742

      *** CONVERGENCE OF RESIDUAL NORM REACHED ***

Storing the converged CI vectors               ... ox_es1_E_orca0003.cis1

                 *** DAVIDSON DONE ***

Total time for solving the CIS problem:     0.340sec

------------------------------------
TD-DFT/TDA EXCITED STATES (SINGLETS)
------------------------------------

the weight of the individual excitations are printed if larger than 1.0e-02

STATE  1:  E=   0.021807 au      0.593 eV     4786.2 cm**-1 <S**2> =   0.000000
    10a ->  12a  :     0.045330 (c=  0.21290858)
    11a ->  12a  :     0.951418 (c=  0.97540653)


-----------------------------
TD-DFT/TDA-EXCITATION SPECTRA
-----------------------------

Center of mass = ( -0.7240, -0.0275, -0.0430)
Calculating the Dipole integrals                  ... done
Transforming integrals                            ... done
Calculating the Linear Momentum integrals         ... done
Transforming integrals                            ... done
Calculating angular momentum integrals            ... done
Transforming integrals                            ... done

-----------------------------------------------------------------------------
         ABSORPTION SPECTRUM VIA TRANSITION ELECTRIC DIPOLE MOMENTS
-----------------------------------------------------------------------------
State   Energy    Wavelength  fosc         T2        TX        TY        TZ  
        (cm-1)      (nm)                 (au**2)    (au)      (au)      (au) 
-----------------------------------------------------------------------------
   1    4786.2   2089.3   0.000115010   0.00791   0.06417  -0.01634   0.05938

-----------------------------------------------------------------------------
         ABSORPTION SPECTRUM VIA TRANSITION VELOCITY DIPOLE MOMENTS
-----------------------------------------------------------------------------
State   Energy    Wavelength   fosc        P2         PX        PY        PZ  
        (cm-1)      (nm)                 (au**2)     (au)      (au)      (au) 
-----------------------------------------------------------------------------
   1    4786.2   2089.3   0.025887011   0.00085   0.01717  -0.01302  -0.01955

-------------------------------------------------------------------
                             CD SPECTRUM
-------------------------------------------------------------------
State  Energy     Wavelength     R         MX        MY        MZ   
       (cm-1)       (nm)     (1e40*cgs)   (au)      (au)      (au)  
-------------------------------------------------------------------
   1    4786.2   2089.3      4.02053   0.03103  -0.29135   0.02992

-------------------------------------------------------------------
         CD SPECTRUM VIA TRANSITION VELOCITY DIPOLE MOMENTS        
-------------------------------------------------------------------
State  Energy     Wavelength     R         MX        MY        MZ   
       (cm-1)       (nm)     (1e40*cgs)   (au)      (au)      (au)  
-------------------------------------------------------------------
   1    4786.2   2089.3     80.87069   0.03103  -0.29135   0.02992

Total run time:        0.629 sec

           *** ORCA-CIS/TD-DFT FINISHED WITHOUT ERROR ***

Maximum memory used throughout the entire CIS-calculation: 49.4 MB

-----------------------
CIS/TD-DFT TOTAL ENERGY
-----------------------

    E(SCF)  =   -153.515676654 Eh
    DE(CIS) =      0.021807465 Eh (Root  1)
    ----------------------------- ---------
    E(tot)  =   -153.493869189 Eh



-------------------------------------------------------------------------------
                          DFT DISPERSION CORRECTION                            
                                                                               
                              DFTD3 V3.1  Rev 1                                
                          USING Becke-Johnson damping                          
-------------------------------------------------------------------------------
The PBE0 functional is recognized
Active option DFTDOPT                   ...         4   

molecular C6(AA) [au] = 394.329839 


            DFT-D V3
 parameters
 s6 scaling factor         :     1.0000 
 a1 scaling factor         :     0.4145 
 s8 scaling factor         :     1.2177 
 a2 scaling factor         :     4.8593 
 ad hoc parameters k1-k3   :    16.0000     1.3333    -4.0000 

 Edisp/kcal,au: -1.654145813954  -0.002636048866 
 E6   /kcal   :  -1.079832422 
 E8   /kcal   :  -0.574313392 
 % E8         :  34.719635198 

-------------------------   ----------------
Dispersion correction           -0.002636049
-------------------------   ----------------


-------------------------   --------------------
FINAL SINGLE POINT ENERGY      -153.496505237505
-------------------------   --------------------



           ************************************************************
           *        Program running with 8 parallel MPI-processes     *
           *              working on a common directory               *
           ************************************************************
------------------------------------------------------------------------------
                         ORCA SCF GRADIENT CALCULATION
------------------------------------------------------------------------------


------------------------
TD-DFT GRADIENT XC SETUP
------------------------

Building densities                     ... done
Calculating rho(r) on the grid         ... done
Building xc-kernel on the grid         ... done
Building xc 3rd derivative on the grid      ... done
                *** TD-DFT GRADIENT CALCULATION INITIALIZED ***

-------------------
TD-DFT/TDA GRADIENT
-------------------

Reference wavefunction             ... RHF
State of interest                  ... 1
Basis dimension                    ... 117
DFT-XC contribution needed         ... YES
RI-approximation                   ... ON
CIS-vectors being read from        ... ox_es1_E_orca0003.cis

 => Number of Vectors found: 1
 => Orbital Window: 3...11 -> 12...116

Reading the CIS file                     ... done
Norm of the CI vector                    ... 1.000000000
Making the CIS (pseudo)densities         ... done
Making operators G(D) and Q(T)           ... done
Transforming the Fock operators          ... done
Making the frozen-core relaxed density   ... done
Constructing the G(H) operator           ... done
Transforming the G(H) operator           ... done
Calculating the CIS Lagrangian           ... done
Solving the Z-vector equations           ... done
Finalizing the relaxed density           ... done
Storing the relaxed density              ... done
Constructing the G(Z) operator           ... done
Transforming the G(Z) operator           ... done
Making the W-matrix                      ... done
Finalizing the W-matrix                  ... done
Transforming the W-matrix                ... done
Nuclear repulsion gradient               ... done
One-Electron gradient                    ... done
Dispersion correction                    ... done
Prescreening matrices                    ... done
COSX-gradient                            ... done
Coulomb gradient (RI)                    ... done
Exchange-Correlation gradient            ... done

                 ---------------------------
                 EXCITED STATE GRADIENT DONE
                 ---------------------------

------------------
CARTESIAN GRADIENT
------------------

   1   O   :    0.008985480   -0.047404705   -0.001246294
   2   C   :   -0.068187795   -0.059238207    0.049980348
   3   C   :    0.056115506    0.041075228   -0.127431331
   4   H   :    0.027094624    0.043800546   -0.042498310
   5   H   :    0.011693242    0.033540789    0.011346871
   6   H   :   -0.038465014    0.005925754    0.066985247
   7   H   :    0.002763086   -0.017778273    0.042900057

Difference to translation invariance:
           :   -0.0000008710   -0.0000788688    0.0000365882

Difference to rotation invariance:
           :   -0.0000967367    0.0000790278   -0.0002586587

Norm of the cartesian gradient     ...    0.2192627073
RMS gradient                       ...    0.0478470454
MAX gradient                       ...    0.1274313311

------------------------------------------------------------------------------
                  RELAXED CIS/TDA DENSITY POPULATION ANALYSIS
                                   IROOT 1
------------------------------------------------------------------------------
------------------------------------------------------------------------------
                           ORCA POPULATION ANALYSIS
------------------------------------------------------------------------------
Input electron density              ... ox_es1_E_orca0003.cisp
BaseName (.gbw .S,...)              ... ox_es1_E_orca0003

                    ********************************
                    * MULLIKEN POPULATION ANALYSIS *
                    ********************************

-----------------------
MULLIKEN ATOMIC CHARGES
-----------------------
   0 O :   -0.298122
   1 C :   -0.057686
   2 C :   -0.235391
   3 H :    0.149313
   4 H :    0.164019
   5 H :    0.151966
   6 H :    0.125900
Sum of atomic charges:    0.0000000

--------------------------------
MULLIKEN REDUCED ORBITAL CHARGES
--------------------------------
  0 O s       :     3.887645  s :     3.887645
      pz      :     1.135178  p :     4.381692
      px      :     1.908148
      py      :     1.338365
      dz2     :     0.003021  d :     0.027518
      dxz     :     0.000229
      dyz     :     0.008246
      dx2y2   :     0.009664
      dxy     :     0.006357
      f0      :     0.000099  f :     0.001267
      f+1     :    -0.000012
      f-1     :     0.000088
      f+2     :     0.000229
      f-2     :     0.000031
      f+3     :     0.000362
      f-3     :     0.000470
  1 C s       :     3.186002  s :     3.186002
      pz      :     0.998192  p :     2.703067
      px      :     0.946048
      py      :     0.758827
      dz2     :     0.011861  d :     0.157151
      dxz     :     0.021494
      dyz     :     0.030904
      dx2y2   :     0.026828
      dxy     :     0.066064
      f0      :     0.001171  f :     0.011466
      f+1     :     0.001429
      f-1     :     0.000499
      f+2     :     0.001823
      f-2     :     0.000271
      f+3     :     0.003861
      f-3     :     0.002413
  2 C s       :     3.299342  s :     3.299342
      pz      :     1.020491  p :     2.890806
      px      :     0.969178
      py      :     0.901136
      dz2     :     0.006217  d :     0.040802
      dxz     :     0.014134
      dyz     :     0.002605
      dx2y2   :     0.005726
      dxy     :     0.012120
      f0      :     0.000581  f :     0.004441
      f+1     :     0.000982
      f-1     :     0.000217
      f+2     :     0.000647
      f-2     :     0.000131
      f+3     :     0.000842
      f-3     :     0.001041
  3 H s       :     0.826635  s :     0.826635
      pz      :     0.011019  p :     0.024051
      px      :     0.006999
      py      :     0.006034
  4 H s       :     0.811875  s :     0.811875
      pz      :     0.011379  p :     0.024105
      px      :     0.006385
      py      :     0.006342
  5 H s       :     0.821779  s :     0.821779
      pz      :     0.010824  p :     0.026255
      px      :     0.008075
      py      :     0.007356
  6 H s       :     0.853900  s :     0.853900
      pz      :     0.010490  p :     0.020199
      px      :     0.004928
      py      :     0.004781


                     *******************************
                     * LOEWDIN POPULATION ANALYSIS *
                     *******************************

----------------------
LOEWDIN ATOMIC CHARGES
----------------------
   0 O :    0.050801
   1 C :   -0.448077
   2 C :   -0.131333
   3 H :    0.127628
   4 H :    0.177787
   5 H :    0.084123
   6 H :    0.139070

-------------------------------
LOEWDIN REDUCED ORBITAL CHARGES
-------------------------------
  0 O s       :     3.517566  s :     3.517566
      pz      :     1.093596  p :     4.358953
      px      :     1.808633
      py      :     1.456725
      dz2     :     0.007116  d :     0.068021
      dxz     :     0.000315
      dyz     :     0.018891
      dx2y2   :     0.021398
      dxy     :     0.020302
      f0      :     0.000598  f :     0.004658
      f+1     :     0.000083
      f-1     :     0.000449
      f+2     :     0.000773
      f-2     :     0.000080
      f+3     :     0.001368
      f-3     :     0.001307
  1 C s       :     2.815266  s :     2.815266
      pz      :     0.988357  p :     2.943804
      px      :     1.053558
      py      :     0.901888
      dz2     :     0.076529  d :     0.600286
      dxz     :     0.096004
      dyz     :     0.079837
      dx2y2   :     0.163537
      dxy     :     0.184378
      f0      :     0.007905  f :     0.088721
      f+1     :     0.007419
      f-1     :     0.007550
      f+2     :     0.011610
      f-2     :     0.002323
      f+3     :     0.029109
      f-3     :     0.022805
  2 C s       :     2.927293  s :     2.927293
      pz      :     1.066909  p :     2.980871
      px      :     1.085752
      py      :     0.828210
      dz2     :     0.033272  d :     0.200734
      dxz     :     0.081295
      dyz     :     0.008441
      dx2y2   :     0.033836
      dxy     :     0.043890
      f0      :     0.003275  f :     0.022435
      f+1     :     0.003782
      f-1     :     0.001344
      f+2     :     0.003394
      f-2     :     0.001268
      f+3     :     0.004190
      f-3     :     0.005182
  3 H s       :     0.799698  s :     0.799698
      pz      :     0.034102  p :     0.072674
      px      :     0.020989
      py      :     0.017582
  4 H s       :     0.757739  s :     0.757739
      pz      :     0.031330  p :     0.064474
      px      :     0.017178
      py      :     0.015966
  5 H s       :     0.829126  s :     0.829126
      pz      :     0.037434  p :     0.086750
      px      :     0.025757
      py      :     0.023560
  6 H s       :     0.806158  s :     0.806158
      pz      :     0.028915  p :     0.054772
      px      :     0.012902
      py      :     0.012956


                      *****************************
                      * MAYER POPULATION ANALYSIS *
                      *****************************

  NA   - Mulliken gross atomic population
  ZA   - Total nuclear charge
  QA   - Mulliken gross atomic charge
  VA   - Mayer's total valence
  BVA  - Mayer's bonded valence
  FA   - Mayer's free valence

  ATOM       NA         ZA         QA         VA         BVA        FA
  0 O      8.2981     8.0000    -0.2981     1.8066     1.3062     0.5004
  1 C      6.0577     6.0000    -0.0577     4.1129     4.0259     0.0870
  2 C      6.2354     6.0000    -0.2354     3.8235     3.1230     0.7005
  3 H      0.8507     1.0000     0.1493     0.9628     0.9221     0.0407
  4 H      0.8360     1.0000     0.1640     0.9662     0.8939     0.0723
  5 H      0.8480     1.0000     0.1520     0.9698     0.9614     0.0084
  6 H      0.8741     1.0000     0.1259     0.9777     0.9697     0.0080

  Mayer bond orders larger than 0.100000
B(  0-O ,  1-C ) :   1.1377 B(  0-O ,  2-C ) :   0.1357 B(  1-C ,  2-C ) :   1.0902 
B(  1-C ,  3-H ) :   0.9240 B(  1-C ,  4-H ) :   0.8646 B(  2-C ,  5-H ) :   0.9466 
B(  2-C ,  6-H ) :   0.9543 


-------
TIMINGS
-------

Total TD-DFT gradient time         ...        6.606 sec

Fock matrix formation       ....       0.963 sec  ( 14.6%)
  Coulomb formation         ....       0.783 sec  ( 81.2% of F)
  RI-J                      ....       0.328 sec  ( 34.0% of F)
  Chain of spheres X        ....       0.454 sec  ( 47.2% of F)
  XC integration            ....       0.181 sec  ( 18.8% of F)
Z-vector equation           ....       2.544 sec  ( 38.5%)
One electron gradient       ....       0.037 sec  (  0.6%)
Prescreening matrices       ....       0.182 sec  (  2.7%)
RI-J Coulomb gradient       ....       0.301 sec  (  4.6%)
COSX gradient               ....       0.403 sec  (  6.1%)
XC gradient                 ....       1.843 sec  ( 27.9%)

Maximum memory used throughout the entire SCFGRAD-calculation: 130.2 MB

                            ***************************************
                            *     ORCA property calculations      *
                            ***************************************

                                    ---------------------
                                    Active property flags
                                    ---------------------
   (+) Dipole Moment


------------------------------------------------------------------------------
                       ORCA ELECTRIC PROPERTIES CALCULATION
------------------------------------------------------------------------------

Dipole Moment Calculation                       ... on
Quadrupole Moment Calculation                   ... off
Polarizability Calculation                      ... off
GBWName                                         ... ox_es1_E_orca0003.gbw
Electron density                                ... ox_es1_E_orca0003.scfp
The origin for moment calculation is the CENTER OF MASS  = (-0.724028, -0.027530 -0.043032)

-------------
DIPOLE MOMENT
-------------
                                X             Y             Z
Electronic contribution:     -0.56798       1.39543      -0.08112
Nuclear contribution   :      1.30841      -2.50701       0.11116
                        -----------------------------------------
Total Dipole Moment    :      0.74043      -1.11158       0.03004
                        -----------------------------------------
Magnitude (a.u.)       :      1.33594
Magnitude (Debye)      :      3.39569



--------------------
Rotational spectrum 
--------------------
 
Rotational constants in cm-1:     1.281678     0.400504     0.348089 
Rotational constants in MHz : 38423.732102 12006.810170 10435.440104 

 Dipole components along the rotational axes: 
x,y,z [a.u.] :     1.230619    -0.519867    -0.007361 
x,y,z [Debye]:     3.127986    -1.321396    -0.018709 

 

                        *** CIS RELAXED DENSITY ***

------------------------------------------------------------------------------
                       ORCA ELECTRIC PROPERTIES CALCULATION
------------------------------------------------------------------------------

Dipole Moment Calculation                       ... on
Quadrupole Moment Calculation                   ... off
Polarizability Calculation                      ... off
GBWName                                         ... ox_es1_E_orca0003.gbw
Electron density                                ... ox_es1_E_orca0003.cisp
The origin for moment calculation is the CENTER OF MASS  = (-0.724028, -0.027530 -0.043032)

-------------
DIPOLE MOMENT
-------------
                                X             Y             Z
Electronic contribution:     -1.15031       1.53979      -0.09531
Nuclear contribution   :      1.30841      -2.50701       0.11116
                        -----------------------------------------
Total Dipole Moment    :      0.15810      -0.96722       0.01585
                        -----------------------------------------
Magnitude (a.u.)       :      0.98018
Magnitude (Debye)      :      2.49142



--------------------
Rotational spectrum 
--------------------
 
Rotational constants in cm-1:     1.281678     0.400504     0.348089 
Rotational constants in MHz : 38423.732102 12006.810170 10435.440104 

 Dipole components along the rotational axes: 
x,y,z [a.u.] :     0.665812    -0.717335    -0.053665 
x,y,z [Debye]:     1.692360    -1.823321    -0.136404 

 

Timings for individual modules:

Sum of individual times         ...        9.166 sec (=   0.153 min)
GTO integral calculation        ...        0.256 sec (=   0.004 min)   2.8 %
SCF iterations                  ...        1.325 sec (=   0.022 min)  14.5 %
CIS module                      ...        0.820 sec (=   0.014 min)   8.9 %
SCF Gradient evaluation         ...        6.766 sec (=   0.113 min)  73.8 %
                             ****ORCA TERMINATED NORMALLY****
TOTAL RUN TIME: 0 days 0 hours 0 minutes 9 seconds 502 msec
