
                                 *****************
                                 * O   R   C   A *
                                 *****************

                                            #,                                       
                                            ###                                      
                                            ####                                     
                                            #####                                    
                                            ######                                   
                                           ########,                                 
                                     ,,################,,,,,                         
                               ,,#################################,,                 
                          ,,##########################################,,             
                       ,#########################################, ''#####,          
                    ,#############################################,,   '####,        
                  ,##################################################,,,,####,       
                ,###########''''           ''''###############################       
              ,#####''   ,,,,##########,,,,          '''####'''          '####       
            ,##' ,,,,###########################,,,                        '##       
           ' ,,###''''                  '''############,,,                           
         ,,##''                                '''############,,,,        ,,,,,,###''
      ,#''                                            '''#######################'''  
     '                                                          ''''####''''         
             ,#######,   #######,   ,#######,      ##                                
            ,#'     '#,  ##    ##  ,#'     '#,    #''#        ######   ,####,        
            ##       ##  ##   ,#'  ##            #'  '#       #        #'  '#        
            ##       ##  #######   ##           ,######,      #####,   #    #        
            '#,     ,#'  ##    ##  '#,     ,#' ,#      #,         ##   #,  ,#        
             '#######'   ##     ##  '#######'  #'      '#     #####' # '####'        



                  #######################################################
                  #                        -***-                        #
                  #          Department of theory and spectroscopy      #
                  #    Directorship and core code : Frank Neese         #
                  #        Max Planck Institute fuer Kohlenforschung    #
                  #                Kaiser Wilhelm Platz 1               #
                  #                 D-45470 Muelheim/Ruhr               #
                  #                      Germany                        #
                  #                                                     #
                  #                  All rights reserved                #
                  #                        -***-                        #
                  #######################################################


                         Program Version 5.0.2 -  RELEASE  -


 With contributions from (in alphabetic order):
   Daniel Aravena         : Magnetic Suceptibility
   Michael Atanasov       : Ab Initio Ligand Field Theory (pilot matlab implementation)
   Alexander A. Auer      : GIAO ZORA, VPT2 properties, NMR spectrum
   Ute Becker             : Parallelization
   Giovanni Bistoni       : ED, misc. LED, open-shell LED, HFLD
   Martin Brehm           : Molecular dynamics
   Dmytro Bykov           : SCF Hessian
   Vijay G. Chilkuri      : MRCI spin determinant printing, contributions to CSF-ICE
   Dipayan Datta          : RHF DLPNO-CCSD density
   Achintya Kumar Dutta   : EOM-CC, STEOM-CC
   Dmitry Ganyushin       : Spin-Orbit,Spin-Spin,Magnetic field MRCI
   Miquel Garcia          : C-PCM and meta-GGA Hessian, CC/C-PCM, Gaussian charge scheme
   Yang Guo               : DLPNO-NEVPT2, F12-NEVPT2, CIM, IAO-localization
   Andreas Hansen         : Spin unrestricted coupled pair/coupled cluster methods
   Benjamin Helmich-Paris : MC-RPA, TRAH-SCF, COSX integrals
   Lee Huntington         : MR-EOM, pCC
   Robert Izsak           : Overlap fitted RIJCOSX, COSX-SCS-MP3, EOM
   Marcus Kettner         : VPT2
   Christian Kollmar      : KDIIS, OOCD, Brueckner-CCSD(T), CCSD density, CASPT2, CASPT2-K
   Simone Kossmann        : Meta GGA functionals, TD-DFT gradient, OOMP2, MP2 Hessian
   Martin Krupicka        : Initial AUTO-CI
   Lucas Lang             : DCDCAS
   Marvin Lechner         : AUTO-CI (C++ implementation), FIC-MRCC
   Dagmar Lenk            : GEPOL surface, SMD
   Dimitrios Liakos       : Extrapolation schemes; Compound Job, initial MDCI parallelization
   Dimitrios Manganas     : Further ROCIS development; embedding schemes
   Dimitrios Pantazis     : SARC Basis sets
   Anastasios Papadopoulos: AUTO-CI, single reference methods and gradients
   Taras Petrenko         : DFT Hessian,TD-DFT gradient, ASA, ECA, R-Raman, ABS, FL, XAS/XES, NRVS
   Peter Pinski           : DLPNO-MP2, DLPNO-MP2 Gradient
   Christoph Reimann      : Effective Core Potentials
   Marius Retegan         : Local ZFS, SOC
   Christoph Riplinger    : Optimizer, TS searches, QM/MM, DLPNO-CCSD(T), (RO)-DLPNO pert. Triples
   Tobias Risthaus        : Range-separated hybrids, TD-DFT gradient, RPA, STAB
   Michael Roemelt        : Original ROCIS implementation
   Masaaki Saitow         : Open-shell DLPNO-CCSD energy and density
   Barbara Sandhoefer     : DKH picture change effects
   Avijit Sen             : IP-ROCIS
   Kantharuban Sivalingam : CASSCF convergence, NEVPT2, FIC-MRCI
   Bernardo de Souza      : ESD, SOC TD-DFT
   Georgi Stoychev        : AutoAux, RI-MP2 NMR, DLPNO-MP2 response
   Willem Van den Heuvel  : Paramagnetic NMR
   Boris Wezisla          : Elementary symmetry handling
   Frank Wennmohs         : Technical directorship


 We gratefully acknowledge several colleagues who have allowed us to
 interface, adapt or use parts of their codes:
   Stefan Grimme, W. Hujo, H. Kruse, P. Pracht,  : VdW corrections, initial TS optimization,
                  C. Bannwarth, S. Ehlert          DFT functionals, gCP, sTDA/sTD-DF
   Ed Valeev, F. Pavosevic, A. Kumar             : LibInt (2-el integral package), F12 methods
   Garnet Chan, S. Sharma, J. Yang, R. Olivares  : DMRG
   Ulf Ekstrom                                   : XCFun DFT Library
   Mihaly Kallay                                 : mrcc  (arbitrary order and MRCC methods)
   Jiri Pittner, Ondrej Demel                    : Mk-CCSD
   Frank Weinhold                                : gennbo (NPA and NBO analysis)
   Christopher J. Cramer and Donald G. Truhlar   : smd solvation model
   Lars Goerigk                                  : TD-DFT with DH, B97 family of functionals
   V. Asgeirsson, H. Jonsson                     : NEB implementation
   FAccTs GmbH                                   : IRC, NEB, NEB-TS, DLPNO-Multilevel, CI-OPT
                                                   MM, QMMM, 2- and 3-layer-ONIOM, Crystal-QMMM,
                                                   LR-CPCM, SF, NACMEs, symmetry and pop. for TD-DFT,
                                                   nearIR, NL-DFT gradient (VV10), updates on ESD,
                                                   ML-optimized integration grids
   S Lehtola, MJT Oliveira, MAL Marques          : LibXC Library
   Liviu Ungur et al                             : ANISO software


 Your calculation uses the libint2 library for the computation of 2-el integrals
 For citations please refer to: http://libint.valeyev.net

 Your ORCA version has been built with support for libXC version: 5.1.0
 For citations please refer to: https://tddft.org/programs/libxc/

 This ORCA versions uses:
   CBLAS   interface :  Fast vector & matrix operations
   LAPACKE interface :  Fast linear algebra routines
   SCALAPACK package :  Parallel linear algebra routines
   Shared memory     :  Shared parallel matrices
   BLAS/LAPACK       :  OpenBLAS 0.3.15  USE64BITINT DYNAMIC_ARCH NO_AFFINITY SkylakeX SINGLE_THREADED
        Core in use  :  SkylakeX
   Copyright (c) 2011-2014, The OpenBLAS Project


Your calculation utilizes the atom-pairwise dispersion correction
with the Becke-Johnson damping scheme (D3BJ)
Cite in your paper:
S.Grimme, S.Ehrlich, L.Goerigk, J Comput Chem, (2011), 32, 1456–1465 
S.Grimme, J.Antony, S.Ehrlich and H.Krieg, J.Chem.Phys., 132, (2010), 154104 
   

================================================================================

----- Orbital basis set information -----
Your calculation utilizes the basis: def2-TZVP
   F. Weigend and R. Ahlrichs, Phys. Chem. Chem. Phys. 7, 3297 (2005).

----- AuxJ basis set information -----
Your calculation utilizes the auxiliary basis: def2/J
   F. Weigend, Phys. Chem. Chem. Phys. 8, 1057 (2006).

================================================================================
                                        WARNINGS
                       Please study these warnings very carefully!
================================================================================

INFO   : Checking CIS options ...

WARNING: CIS/ROCIS methods need fully converged wavefunctions
  ===> : Setting SCFConvForced true
         You can overwrite this default with %scf ConvForced false 


INFO   : the flag for use of the SHARK integral package has been found!

================================================================================
                                       INPUT FILE
================================================================================
NAME = ox_es1_B_orca0009.inp
|  1> ! engrad PBE0 D3BJ def2-TZVP  
|  2> %pal nprocs 8 end
|  3> %maxcore 3000
|  4> 
|  5> %tddft
|  6>   nroots 1
|  7>   tda true
|  8>   Iroot 1
|  9>   end 
| 10> *xyz 0 1 
| 11> O   -0.3158925614433656 0.8940162013829134 -0.029644179624384454
| 12> C   -0.8025454106732823 -0.49184952076509353 0.05521757849301563
| 13> C   0.7073120642241977 -0.4550773354122029 0.044457874703643686
| 14> H   -1.2494040876142367 -0.7208477568785019 0.9039981500079884
| 15> H   -1.29482242438606 -0.6604209911776656 -0.9485489875539894
| 16> H   1.3167044791602307 -0.7078453004738943 -0.9462075872964235
| 17> H   1.2674167719685185 -0.5727328386361409 0.9593744041568807
| 18> *
| 19> 
| 20>                          ****END OF INPUT****
================================================================================

                     *******************************
                     * Energy+Gradient Calculation *
                     *******************************

---------------------------------
CARTESIAN COORDINATES (ANGSTROEM)
---------------------------------
  O     -0.315893    0.894016   -0.029644
  C     -0.802545   -0.491850    0.055218
  C      0.707312   -0.455077    0.044458
  H     -1.249404   -0.720848    0.903998
  H     -1.294822   -0.660421   -0.948549
  H      1.316704   -0.707845   -0.946208
  H      1.267417   -0.572733    0.959374

----------------------------
CARTESIAN COORDINATES (A.U.)
----------------------------
  NO LB      ZA    FRAG     MASS         X           Y           Z
   0 O     8.0000    0    15.999   -0.596950    1.689446   -0.056019
   1 C     6.0000    0    12.011   -1.516591   -0.929461    0.104346
   2 C     6.0000    0    12.011    1.336626   -0.859972    0.084013
   3 H     1.0000    0     1.008   -2.361032   -1.362205    1.708309
   4 H     1.0000    0     1.008   -2.446860   -1.248015   -1.792498
   5 H     1.0000    0     1.008    2.488211   -1.337634   -1.788073
   6 H     1.0000    0     1.008    2.395071   -1.082308    1.812955

--------------------------------
INTERNAL COORDINATES (ANGSTROEM)
--------------------------------
 O      0   0   0     0.000000000000     0.00000000     0.00000000
 C      1   0   0     1.471277102887     0.00000000     0.00000000
 C      2   1   0     1.510343523621    69.26740464     0.00000000
 H      2   1   3     0.986180170092   114.72403932   111.88834364
 H      2   1   3     1.130619439945   103.48860478   247.36577394
 H      3   2   1     1.190238974804   120.83622831   258.20567047
 H      3   2   1     1.079181336450   120.67367831   101.51073394

---------------------------
INTERNAL COORDINATES (A.U.)
---------------------------
 O      0   0   0     0.000000000000     0.00000000     0.00000000
 C      1   0   0     2.780310791565     0.00000000     0.00000000
 C      2   1   0     2.854135627786    69.26740464     0.00000000
 H      2   1   3     1.863610440177   114.72403932   111.88834364
 H      2   1   3     2.136561103183   103.48860478   247.36577394
 H      3   2   1     2.249225696299   120.83622831   258.20567047
 H      3   2   1     2.039357174730   120.67367831   101.51073394

---------------------
BASIS SET INFORMATION
---------------------
There are 3 groups of distinct atoms

 Group   1 Type O   : 11s6p2d1f contracted to 5s3p2d1f pattern {62111/411/11/1}
 Group   2 Type C   : 11s6p2d1f contracted to 5s3p2d1f pattern {62111/411/11/1}
 Group   3 Type H   : 5s1p contracted to 3s1p pattern {311/1}

Atom   0O    basis set group =>   1
Atom   1C    basis set group =>   2
Atom   2C    basis set group =>   2
Atom   3H    basis set group =>   3
Atom   4H    basis set group =>   3
Atom   5H    basis set group =>   3
Atom   6H    basis set group =>   3
---------------------------------
AUXILIARY/J BASIS SET INFORMATION
---------------------------------
There are 3 groups of distinct atoms

 Group   1 Type O   : 12s5p4d2f1g contracted to 6s4p3d1f1g pattern {711111/2111/211/2/1}
 Group   2 Type C   : 12s5p4d2f1g contracted to 6s4p3d1f1g pattern {711111/2111/211/2/1}
 Group   3 Type H   : 5s2p1d contracted to 3s1p1d pattern {311/2/1}

Atom   0O    basis set group =>   1
Atom   1C    basis set group =>   2
Atom   2C    basis set group =>   2
Atom   3H    basis set group =>   3
Atom   4H    basis set group =>   3
Atom   5H    basis set group =>   3
Atom   6H    basis set group =>   3

Checking for AutoStart:
The File: ox_es1_B_orca0009.gbw exists
Trying to determine its content:
     ... Fine, the file contains calculation information
     ... Fine, the calculation information was read
     ... Fine, the file contains a basis set
     ... Fine, the basis set was read
     ... Fine, the file contains a geometry
     ... Fine, the geometry was read
     ... Fine, the file contains a set of orbitals
     ... Fine, the orbitals can be read
     => possible old guess file was deleted
     => GBW file was renamed to GES file
     => GES file is set as startup file
     => Guess is set to MORead
     ... now leaving AutoStart



           ************************************************************
           *        Program running with 8 parallel MPI-processes     *
           *              working on a common directory               *
           ************************************************************
------------------------------------------------------------------------------
                           ORCA GTO INTEGRAL CALCULATION
                           -- RI-GTO INTEGRALS CHOSEN --
------------------------------------------------------------------------------
------------------------------------------------------------------------------
                   ___                                                        
                  /   \      - P O W E R E D   B Y -                         
                 /     \                                                     
                 |  |  |   _    _      __       _____    __    __             
                 |  |  |  | |  | |    /  \     |  _  \  |  |  /  |          
                  \  \/   | |  | |   /    \    | | | |  |  | /  /          
                 / \  \   | |__| |  /  /\  \   | |_| |  |  |/  /          
                |  |  |   |  __  | /  /__\  \  |    /   |      \           
                |  |  |   | |  | | |   __   |  |    \   |  |\   \          
                \     /   | |  | | |  |  |  |  | |\  \  |  | \   \       
                 \___/    |_|  |_| |__|  |__|  |_| \__\ |__|  \__/        
                                                                              
                      - O R C A' S   B I G   F R I E N D -                    
                                      &                                       
                       - I N T E G R A L  F E E D E R -                       
                                                                              
 v1 FN, 2020, v2 2021                                                         
------------------------------------------------------------------------------


Reading SHARK input file ox_es1_B_orca0009.SHARKINP.tmp ... ok
----------------------
SHARK INTEGRAL PACKAGE
----------------------

Number of atoms                             ...      7
Number of basis functions                   ...    117
Number of shells                            ...     49
Maximum angular momentum                    ...      3
Integral batch strategy                     ... SHARK/LIBINT Hybrid
RI-J (if used) integral strategy            ... SPLIT-RIJ (Revised 2003 algorithm where possible)
Printlevel                                  ...      1
Contraction scheme used                     ... SEGMENTED contraction
Coulomb Range Separation                    ... NOT USED
Exchange Range Separation                   ... NOT USED
Finite Nucleus Model                        ... NOT USED
Auxiliary Coulomb fitting basis             ... AVAILABLE
   # of basis functions in Aux-J            ...    191
   # of shells in Aux-J                     ...     65
   Maximum angular momentum in Aux-J        ...      4
Auxiliary J/K fitting basis                 ... NOT available
Auxiliary Correlation fitting basis         ... NOT available
Auxiliary 'external' fitting basis          ... NOT available
Integral threshold                          ...     2.500000e-11
Primitive cut-off                           ...     2.500000e-12
Primitive pair pre-selection threshold      ...     2.500000e-12

Calculating pre-screening integrals         ... done (  0.0 sec) Dimension = 49
Organizing shell pair data                  ... done (  0.0 sec)
Shell pair information
Total number of shell pairs                 ...      1225
Shell pairs after pre-screening             ...      1220
Total number of primitive shell pairs       ...      3648
Primitive shell pairs kept                  ...      3133
          la=0 lb=0:    373 shell pairs
          la=1 lb=0:    351 shell pairs
          la=1 lb=1:     91 shell pairs
          la=2 lb=0:    162 shell pairs
          la=2 lb=1:     78 shell pairs
          la=2 lb=2:     21 shell pairs
          la=3 lb=0:     81 shell pairs
          la=3 lb=1:     39 shell pairs
          la=3 lb=2:     18 shell pairs
          la=3 lb=3:      6 shell pairs

Calculating one electron integrals          ... done (  0.0 sec)
Calculating RI/J V-Matrix + Cholesky decomp.... done (  0.0 sec)
Calculating Nuclear repulsion               ... done (  0.0 sec) ENN=     71.044056384450 Eh

SHARK setup successfully completed in   0.1 seconds

Maximum memory used throughout the entire GTOINT-calculation: 14.9 MB


           ************************************************************
           *        Program running with 8 parallel MPI-processes     *
           *              working on a common directory               *
           ************************************************************
-------------------------------------------------------------------------------
                                 ORCA SCF
-------------------------------------------------------------------------------

------------
SCF SETTINGS
------------
Hamiltonian:
 Density Functional     Method          .... DFT(GTOs)
 Exchange Functional    Exchange        .... PBE
   PBE kappa parameter   XKappa         ....  0.804000
   PBE mue parameter    XMuePBE         ....  0.219520
 Correlation Functional Correlation     .... PBE
   PBE beta parameter  CBetaPBE         ....  0.066725
 LDA part of GGA corr.  LDAOpt          .... PW91-LDA
 Gradients option       PostSCFGGA      .... off
 Hybrid DFT is turned on
   Fraction HF Exchange ScalHFX         ....  0.250000
   Scaling of DF-GGA-X  ScalDFX         ....  0.750000
   Scaling of DF-GGA-C  ScalDFC         ....  1.000000
   Scaling of DF-LDA-C  ScalLDAC        ....  1.000000
   Perturbative correction              ....  0.000000
   Density functional embedding theory  .... OFF
   NL short-range parameter             ....  6.900000
 RI-approximation to the Coulomb term is turned on
   Number of AuxJ basis functions       .... 191
   RIJ-COSX (HFX calculated with COS-X)).... on


General Settings:
 Integral files         IntName         .... ox_es1_B_orca0009
 Hartree-Fock type      HFTyp           .... RHF
 Total Charge           Charge          ....    0
 Multiplicity           Mult            ....    1
 Number of Electrons    NEL             ....   24
 Basis Dimension        Dim             ....  117
 Nuclear Repulsion      ENuc            ....     71.0440563845 Eh

Convergence Acceleration:
 DIIS                   CNVDIIS         .... on
   Start iteration      DIISMaxIt       ....    12
   Startup error        DIISStart       ....  0.200000
   # of expansion vecs  DIISMaxEq       ....     5
   Bias factor          DIISBfac        ....   1.050
   Max. coefficient     DIISMaxC        ....  10.000
 Trust-Rad. Augm. Hess. CNVTRAH         .... auto
   Auto Start mean grad. ratio tolernc. ....  1.125000
   Auto Start start iteration           ....     1
   Auto Start num. interpolation iter.  ....    10
   Max. Number of Micro iterations      ....    16
   Max. Number of Macro iterations      .... Maxiter - #DIIS iter
   Number of Davidson start vectors     ....     2
   Converg. threshold I  (grad. norm)   ....   1.000e-05
   Converg. threshold II (energy diff.) ....   1.000e-08
   Grad. Scal. Fac. for Micro threshold ....   0.100
   Minimum threshold for Micro iter.    ....   0.010
   NR start threshold (gradient norm)   ....   0.001
   Initial trust radius                 ....   0.400
   Minimum AH scaling param. (alpha)    ....   1.000
   Maximum AH scaling param. (alpha)    .... 1000.000
   Orbital update algorithm             .... Taylor
   White noise on init. David. guess    .... on
   Maximum white noise                  ....   0.010
   Quad. conv. algorithm                .... NR
 SOSCF                  CNVSOSCF        .... on
   Start iteration      SOSCFMaxIt      ....   150
   Startup grad/error   SOSCFStart      ....  0.003300
 Level Shifting         CNVShift        .... on
   Level shift para.    LevelShift      ....    0.2500
   Turn off err/grad.   ShiftErr        ....    0.0010
 Zerner damping         CNVZerner       .... off
 Static damping         CNVDamp         .... on
   Fraction old density DampFac         ....    0.7000
   Max. Damping (<1)    DampMax         ....    0.9800
   Min. Damping (>=0)   DampMin         ....    0.0000
   Turn off err/grad.   DampErr         ....    0.1000
 Fernandez-Rico         CNVRico         .... off

SCF Procedure:
 Maximum # iterations   MaxIter         ....   125
 SCF integral mode      SCFMode         .... Direct
   Integral package                     .... SHARK and LIBINT hybrid scheme
 Reset frequency        DirectResetFreq ....    20
 Integral Threshold     Thresh          ....  2.500e-11 Eh
 Primitive CutOff       TCut            ....  2.500e-12 Eh

Convergence Tolerance:
 Convergence Check Mode ConvCheckMode   .... Total+1el-Energy
 Convergence forced     ConvForced      .... 1
 Energy Change          TolE            ....  1.000e-08 Eh
 1-El. energy change                    ....  1.000e-05 Eh
 Orbital Gradient       TolG            ....  1.000e-05
 Orbital Rotation angle TolX            ....  1.000e-05
 DIIS Error             TolErr          ....  5.000e-07


Diagonalization of the overlap matrix:
Smallest eigenvalue                        ... 5.703e-04
Time for diagonalization                   ...    0.001 sec
Threshold for overlap eigenvalues          ... 1.000e-08
Number of eigenvalues below threshold      ... 0
Time for construction of square roots      ...    0.001 sec
Total time needed                          ...    0.003 sec

---------------------
INITIAL GUESS: MOREAD
---------------------
Guess MOs are being read from file: ox_es1_B_orca0009.ges
Input Geometry matches current geometry (good)
Input basis set matches current basis set (good)
MOs were renormalized
MOs were reorthogonalized (Cholesky)
                      ------------------
                      INITIAL GUESS DONE (   0.0 sec)
                      ------------------
-------------------
DFT GRID GENERATION
-------------------

General Integration Accuracy     IntAcc      ... 4.388
Radial Grid Type                 RadialGrid  ... OptM3 with GC (2021)
Angular Grid (max. ang.)         AngularGrid ... 4 (Lebedev-302)
Angular grid pruning method      GridPruning ... 4 (adaptive)
Weight generation scheme         WeightScheme... Becke
Basis function cutoff            BFCut       ... 1.0000e-11
Integration weight cutoff        WCut        ... 1.0000e-14
Angular grids for H and He will be reduced by one unit
Partially contracted basis set               ... off
Rotationally invariant grid construction     ... off

Total number of grid points                  ...    31335
Total number of batches                      ...      493
Average number of points per batch           ...       63
Average number of grid points per atom       ...     4476
Time for grid setup =    0.120 sec

--------------------
COSX GRID GENERATION
--------------------

GRIDX 1
-------
General Integration Accuracy     IntAcc      ... 3.816
Radial Grid Type                 RadialGrid  ... OptM3 with GC (2021)
Angular Grid (max. ang.)         AngularGrid ... 1 (Lebedev-50)
Angular grid pruning method      GridPruning ... 4 (adaptive)
Weight generation scheme         WeightScheme... Becke
Basis function cutoff            BFCut       ... 1.0000e-11
Integration weight cutoff        WCut        ... 1.0000e-14
Angular grids for H and He will be reduced by one unit
Partially contracted basis set               ... on
Rotationally invariant grid construction     ... off

Total number of grid points                  ...     4039
Total number of batches                      ...       67
Average number of points per batch           ...       60
Average number of grid points per atom       ...      577
UseSFitting                                  ... on

GRIDX 2
-------
General Integration Accuracy     IntAcc      ... 4.020
Radial Grid Type                 RadialGrid  ... OptM3 with GC (2021)
Angular Grid (max. ang.)         AngularGrid ... 2 (Lebedev-110)
Angular grid pruning method      GridPruning ... 4 (adaptive)
Weight generation scheme         WeightScheme... Becke
Basis function cutoff            BFCut       ... 1.0000e-11
Integration weight cutoff        WCut        ... 1.0000e-14
Angular grids for H and He will be reduced by one unit
Partially contracted basis set               ... on
Rotationally invariant grid construction     ... off

Total number of grid points                  ...     8738
Total number of batches                      ...      140
Average number of points per batch           ...       62
Average number of grid points per atom       ...     1248
UseSFitting                                  ... on

GRIDX 3
-------
General Integration Accuracy     IntAcc      ... 4.338
Radial Grid Type                 RadialGrid  ... OptM3 with GC (2021)
Angular Grid (max. ang.)         AngularGrid ... 3 (Lebedev-194)
Angular grid pruning method      GridPruning ... 4 (adaptive)
Weight generation scheme         WeightScheme... Becke
Basis function cutoff            BFCut       ... 1.0000e-11
Integration weight cutoff        WCut        ... 1.0000e-14
Angular grids for H and He will be reduced by one unit
Partially contracted basis set               ... on
Rotationally invariant grid construction     ... off

Total number of grid points                  ...    19270
Total number of batches                      ...      304
Average number of points per batch           ...       63
Average number of grid points per atom       ...     2753
UseSFitting                                  ... on

Time for X-Grid setup             =    0.074 sec

--------------
SCF ITERATIONS
--------------
ITER       Energy         Delta-E        Max-DP      RMS-DP      [F,P]     Damp
               ***  Starting incremental Fock matrix formation  ***
                      *** Initiating the SOSCF procedure ***
                      *** Re-Reading the Fockian *** 
                      *** Removing any level shift *** 
ITER      Energy       Delta-E        Grad      Rot      Max-DP    RMS-DP
  0   -153.62698386 -153.6269838610  0.000001  0.000001  0.000001  0.000000
               *** Restarting incremental Fock matrix formation ***
                  ***Gradient check signals convergence***
              ***Rediagonalizing the Fockian in SOSCF/NRSCF***

               *****************************************************
               *                     SUCCESS                       *
               *           SCF CONVERGED AFTER   1 CYCLES          *
               *****************************************************

Old exchange energy                            =     -4.962009821 Eh
New exchange energy                            =     -4.962025660 Eh
Exchange energy change after final integration =     -0.000015839 Eh
Total energy after final integration           =   -153.626999700 Eh
Final COS-X integration done in                =     0.260 sec

----------------
TOTAL SCF ENERGY
----------------

Total Energy       :         -153.62699970 Eh           -4180.40319 eV

Components:
Nuclear Repulsion  :           71.04405638 Eh            1933.20706 eV
Electronic Energy  :         -224.67105608 Eh           -6113.61025 eV
One Electron Energy:         -348.99634526 Eh           -9496.67336 eV
Two Electron Energy:          124.32528918 Eh            3383.06311 eV
Max COSX asymmetry :            0.00000212 Eh               0.00006 eV

Virial components:
Potential Energy   :         -306.22193446 Eh           -8332.72246 eV
Kinetic Energy     :          152.59493476 Eh            4152.31927 eV
Virial Ratio       :            2.00676343


DFT components:
N(Alpha)           :       12.000001634361 electrons
N(Beta)            :       12.000001634361 electrons
N(Total)           :       24.000003268721 electrons
E(X)               :      -14.877543782330 Eh       
E(C)               :       -0.779122332473 Eh       
E(XC)              :      -15.656666114803 Eh       
DFET-embed. en.    :        0.000000000000 Eh       

---------------
SCF CONVERGENCE
---------------

  Last Energy change         ...   -6.7786e-11  Tolerance :   1.0000e-08
  Last MAX-Density change    ...    1.5543e-15  Tolerance :   1.0000e-07
  Last RMS-Density change    ...    2.6868e-17  Tolerance :   5.0000e-09
  Last Orbital Gradient      ...    4.4555e-07  Tolerance :   1.0000e-05
  Last Orbital Rotation      ...    1.1347e-06  Tolerance :   1.0000e-05

             **** THE GBW FILE WAS UPDATED (ox_es1_B_orca0009.gbw) ****
             **** DENSITY ox_es1_B_orca0009.scfp WAS UPDATED ****
             **** ENERGY FILE WAS UPDATED (ox_es1_B_orca0009.en.tmp) ****
             **** THE GBW FILE WAS UPDATED (ox_es1_B_orca0009.gbw) ****
             **** DENSITY ox_es1_B_orca0009.scfp WAS UPDATED ****
----------------
ORBITAL ENERGIES
----------------

  NO   OCC          E(Eh)            E(eV) 
   0   2.0000     -19.218038      -522.9494 
   1   2.0000     -10.302904      -280.3563 
   2   2.0000     -10.276852      -279.6474 
   3   2.0000      -1.027172       -27.9508 
   4   2.0000      -0.720207       -19.5978 
   5   2.0000      -0.646099       -17.5813 
   6   2.0000      -0.519358       -14.1324 
   7   2.0000      -0.475446       -12.9375 
   8   2.0000      -0.410819       -11.1789 
   9   2.0000      -0.377818       -10.2809 
  10   2.0000      -0.325224        -8.8498 
  11   2.0000      -0.282171        -7.6783 
  12   0.0000       0.000139         0.0038 
  13   0.0000       0.055040         1.4977 
  14   0.0000       0.072365         1.9691 
  15   0.0000       0.093939         2.5562 
  16   0.0000       0.098376         2.6769 
  17   0.0000       0.146344         3.9822 
  18   0.0000       0.182919         4.9775 
  19   0.0000       0.198264         5.3950 
  20   0.0000       0.252772         6.8783 
  21   0.0000       0.269362         7.3297 
  22   0.0000       0.283886         7.7249 
  23   0.0000       0.293636         7.9902 
  24   0.0000       0.374682        10.1956 
  25   0.0000       0.398336        10.8393 
  26   0.0000       0.403034        10.9671 
  27   0.0000       0.414759        11.2862 
  28   0.0000       0.449896        12.2423 
  29   0.0000       0.466410        12.6917 
  30   0.0000       0.492831        13.4106 
  31   0.0000       0.509709        13.8699 
  32   0.0000       0.554428        15.0867 
  33   0.0000       0.669787        18.2258 
  34   0.0000       0.689820        18.7710 
  35   0.0000       0.738241        20.0886 
  36   0.0000       0.813175        22.1276 
  37   0.0000       0.842123        22.9153 
  38   0.0000       0.873659        23.7735 
  39   0.0000       0.929047        25.2807 
  40   0.0000       0.981431        26.7061 
  41   0.0000       1.021920        27.8078 
  42   0.0000       1.050758        28.5926 
  43   0.0000       1.078126        29.3373 
  44   0.0000       1.150861        31.3165 
  45   0.0000       1.353935        36.8425 
  46   0.0000       1.454884        39.5894 
  47   0.0000       1.458558        39.6894 
  48   0.0000       1.492363        40.6093 
  49   0.0000       1.519643        41.3516 
  50   0.0000       1.578652        42.9573 
  51   0.0000       1.633173        44.4409 
  52   0.0000       1.653934        45.0058 
  53   0.0000       1.668965        45.4148 
  54   0.0000       1.742470        47.4150 
  55   0.0000       1.768012        48.1100 
  56   0.0000       1.851991        50.3952 
  57   0.0000       1.858606        50.5752 
  58   0.0000       1.907850        51.9153 
  59   0.0000       1.940207        52.7957 
  60   0.0000       2.067735        56.2659 
  61   0.0000       2.113256        57.5046 
  62   0.0000       2.175219        59.1907 
  63   0.0000       2.188716        59.5580 
  64   0.0000       2.260970        61.5241 
  65   0.0000       2.366362        64.3920 
  66   0.0000       2.423536        65.9478 
  67   0.0000       2.454520        66.7909 
  68   0.0000       2.480161        67.4886 
  69   0.0000       2.528608        68.8069 
  70   0.0000       2.569198        69.9114 
  71   0.0000       2.613628        71.1204 
  72   0.0000       2.672144        72.7127 
  73   0.0000       2.696618        73.3787 
  74   0.0000       2.746782        74.7437 
  75   0.0000       2.753135        74.9166 
  76   0.0000       2.834785        77.1384 
  77   0.0000       2.940324        80.0103 
  78   0.0000       2.967732        80.7561 
  79   0.0000       3.049723        82.9872 
  80   0.0000       3.057913        83.2100 
  81   0.0000       3.070896        83.5633 
  82   0.0000       3.138315        85.3979 
  83   0.0000       3.171673        86.3056 
  84   0.0000       3.218410        87.5774 
  85   0.0000       3.285344        89.3988 
  86   0.0000       3.317829        90.2827 
  87   0.0000       3.352573        91.2281 
  88   0.0000       3.485194        94.8370 
  89   0.0000       3.554662        96.7273 
  90   0.0000       3.617953        98.4495 
  91   0.0000       3.638690        99.0138 
  92   0.0000       3.810402       103.6863 
  93   0.0000       3.960156       107.7613 
  94   0.0000       4.009984       109.1172 
  95   0.0000       4.052222       110.2666 
  96   0.0000       4.075201       110.8919 
  97   0.0000       4.274041       116.3026 
  98   0.0000       4.287036       116.6562 
  99   0.0000       4.625842       125.8755 
 100   0.0000       4.637560       126.1944 
 101   0.0000       4.796970       130.5322 
 102   0.0000       5.254770       142.9896 
 103   0.0000       5.297258       144.1457 
 104   0.0000       5.420479       147.4987 
 105   0.0000       5.575125       151.7069 
 106   0.0000       5.665191       154.1577 
 107   0.0000       5.695127       154.9723 
 108   0.0000       5.912607       160.8902 
 109   0.0000       6.490098       176.6045 
 110   0.0000       6.507997       177.0916 
 111   0.0000       6.741869       183.4556 
 112   0.0000       6.953101       189.2035 
 113   0.0000       7.115757       193.6296 
 114   0.0000      22.066983       600.4731 
 115   0.0000      22.362590       608.5170 
 116   0.0000      43.715114      1189.5487 

                    ********************************
                    * MULLIKEN POPULATION ANALYSIS *
                    ********************************

-----------------------
MULLIKEN ATOMIC CHARGES
-----------------------
   0 O :   -0.341249
   1 C :   -0.042706
   2 C :   -0.144944
   3 H :    0.122767
   4 H :    0.119207
   5 H :    0.142751
   6 H :    0.144174
Sum of atomic charges:    0.0000000

--------------------------------
MULLIKEN REDUCED ORBITAL CHARGES
--------------------------------
  0 O s       :     3.894207  s :     3.894207
      pz      :     1.889422  p :     4.416393
      px      :     1.337256
      py      :     1.189716
      dz2     :     0.004295  d :     0.029225
      dxz     :     0.001268
      dyz     :     0.004664
      dx2y2   :     0.008345
      dxy     :     0.010653
      f0      :     0.000157  f :     0.001423
      f+1     :     0.000116
      f-1     :     0.000352
      f+2     :     0.000088
      f-2     :     0.000093
      f+3     :     0.000334
      f-3     :     0.000282
  1 C s       :     3.217873  s :     3.217873
      pz      :     1.045612  p :     2.695317
      px      :     0.915134
      py      :     0.734571
      dz2     :     0.009335  d :     0.119154
      dxz     :     0.020168
      dyz     :     0.035056
      dx2y2   :     0.028517
      dxy     :     0.026078
      f0      :     0.001596  f :     0.010363
      f+1     :     0.001271
      f-1     :     0.000695
      f+2     :     0.001704
      f-2     :     0.000801
      f+3     :     0.001656
      f-3     :     0.002640
  2 C s       :     3.290897  s :     3.290897
      pz      :     1.039259  p :     2.766678
      px      :     0.925942
      py      :     0.801478
      dz2     :     0.007827  d :     0.079676
      dxz     :     0.022694
      dyz     :     0.015168
      dx2y2   :     0.016521
      dxy     :     0.017465
      f0      :     0.000793  f :     0.007693
      f+1     :     0.001278
      f-1     :     0.000294
      f+2     :     0.000888
      f-2     :     0.000859
      f+3     :     0.001768
      f-3     :     0.001811
  3 H s       :     0.853445  s :     0.853445
      pz      :     0.011456  p :     0.023788
      px      :     0.007244
      py      :     0.005088
  4 H s       :     0.860834  s :     0.860834
      pz      :     0.011265  p :     0.019959
      px      :     0.005196
      py      :     0.003498
  5 H s       :     0.838831  s :     0.838831
      pz      :     0.009571  p :     0.018418
      px      :     0.005576
      py      :     0.003271
  6 H s       :     0.833432  s :     0.833432
      pz      :     0.011337  p :     0.022393
      px      :     0.007032
      py      :     0.004023


                     *******************************
                     * LOEWDIN POPULATION ANALYSIS *
                     *******************************

----------------------
LOEWDIN ATOMIC CHARGES
----------------------
   0 O :   -0.024784
   1 C :   -0.293569
   2 C :   -0.160210
   3 H :    0.085815
   4 H :    0.132373
   5 H :    0.143565
   6 H :    0.116810

-------------------------------
LOEWDIN REDUCED ORBITAL CHARGES
-------------------------------
  0 O s       :     3.526041  s :     3.526041
      pz      :     1.810357  p :     4.434293
      px      :     1.324805
      py      :     1.299131
      dz2     :     0.009341  d :     0.060753
      dxz     :     0.003306
      dyz     :     0.009904
      dx2y2   :     0.019537
      dxy     :     0.018664
      f0      :     0.000320  f :     0.003697
      f+1     :     0.000149
      f-1     :     0.000666
      f+2     :     0.000276
      f-2     :     0.000362
      f+3     :     0.000899
      f-3     :     0.001025
  1 C s       :     2.836959  s :     2.836959
      pz      :     1.065276  p :     2.910253
      px      :     1.037727
      py      :     0.807250
      dz2     :     0.061478  d :     0.480589
      dxz     :     0.102547
      dyz     :     0.093742
      dx2y2   :     0.119223
      dxy     :     0.103598
      f0      :     0.009569  f :     0.065769
      f+1     :     0.005001
      f-1     :     0.006370
      f+2     :     0.010200
      f-2     :     0.003279
      f+3     :     0.012491
      f-3     :     0.018859
  2 C s       :     2.900162  s :     2.900162
      pz      :     1.068487  p :     2.903734
      px      :     1.041788
      py      :     0.793460
      dz2     :     0.041309  d :     0.319657
      dxz     :     0.110126
      dyz     :     0.035808
      dx2y2   :     0.065488
      dxy     :     0.066926
      f0      :     0.004300  f :     0.036657
      f+1     :     0.003978
      f-1     :     0.002597
      f+2     :     0.004702
      f-2     :     0.002789
      f+3     :     0.009031
      f-3     :     0.009261
  3 H s       :     0.834905  s :     0.834905
      pz      :     0.039477  p :     0.079280
      px      :     0.022968
      py      :     0.016835
  4 H s       :     0.812619  s :     0.812619
      pz      :     0.031634  p :     0.055008
      px      :     0.013708
      py      :     0.009666
  5 H s       :     0.806588  s :     0.806588
      pz      :     0.027185  p :     0.049847
      px      :     0.013932
      py      :     0.008730
  6 H s       :     0.816490  s :     0.816490
      pz      :     0.035055  p :     0.066700
      px      :     0.019566
      py      :     0.012080


                      *****************************
                      * MAYER POPULATION ANALYSIS *
                      *****************************

  NA   - Mulliken gross atomic population
  ZA   - Total nuclear charge
  QA   - Mulliken gross atomic charge
  VA   - Mayer's total valence
  BVA  - Mayer's bonded valence
  FA   - Mayer's free valence

  ATOM       NA         ZA         QA         VA         BVA        FA
  0 O      8.3412     8.0000    -0.3412     1.9446     1.9446     0.0000
  1 C      6.0427     6.0000    -0.0427     3.9979     3.9979    -0.0000
  2 C      6.1449     6.0000    -0.1449     3.9108     3.9108     0.0000
  3 H      0.8772     1.0000     0.1228     0.9508     0.9508     0.0000
  4 H      0.8808     1.0000     0.1192     0.9647     0.9647    -0.0000
  5 H      0.8572     1.0000     0.1428     0.9591     0.9591     0.0000
  6 H      0.8558     1.0000     0.1442     0.9586     0.9586     0.0000

  Mayer bond orders larger than 0.100000
B(  0-O ,  1-C ) :   0.9936 B(  0-O ,  2-C ) :   0.9446 B(  1-C ,  2-C ) :   1.0709 
B(  1-C ,  3-H ) :   0.9554 B(  1-C ,  4-H ) :   0.9609 B(  2-C ,  5-H ) :   0.9387 
B(  2-C ,  6-H ) :   0.9469 

-------
TIMINGS
-------

Total SCF time: 0 days 0 hours 0 min 1 sec 

Total time                  ....       1.011 sec
Sum of individual times     ....       0.914 sec  ( 90.4%)

Fock matrix formation       ....       0.701 sec  ( 69.4%)
  Split-RI-J                ....       0.112 sec  ( 16.0% of F)
  Chain of spheres X        ....       0.523 sec  ( 74.6% of F)
  XC integration            ....       0.064 sec  (  9.1% of F)
    Basis function eval.    ....       0.018 sec  ( 27.9% of XC)
    Density eval.           ....       0.014 sec  ( 21.4% of XC)
    XC-Functional eval.     ....       0.004 sec  (  6.0% of XC)
    XC-Potential eval.      ....       0.021 sec  ( 33.4% of XC)
Diagonalization             ....       0.002 sec  (  0.2%)
Density matrix formation    ....       0.000 sec  (  0.0%)
Population analysis         ....       0.002 sec  (  0.2%)
Initial guess               ....       0.010 sec  (  1.0%)
Orbital Transformation      ....       0.000 sec  (  0.0%)
Orbital Orthonormalization  ....       0.001 sec  (  0.1%)
DIIS solution               ....       0.001 sec  (  0.1%)
SOSCF solution              ....       0.002 sec  (  0.2%)
Grid generation             ....       0.193 sec  ( 19.1%)

Maximum memory used throughout the entire SCF-calculation: 61.1 MB


           ************************************************************
           *        Program running with 8 parallel MPI-processes     *
           *              working on a common directory               *
           ************************************************************
------------------------------------------------------------------------------
                        ORCA TD-DFT/TDA CALCULATION
------------------------------------------------------------------------------

Input orbitals are from        ... ox_es1_B_orca0009.gbw
CI-vector output               ... ox_es1_B_orca0009.cis
Tamm-Dancoff approximation     ... operative
CIS-Integral strategy          ... AO-integrals
Integral handling              ... AO integral Direct
Max. core memory used          ... 3000 MB
Reference state                ... RHF
Generation of triplets         ... off
Follow IRoot                   ... off
Number of operators            ... 1
Orbital ranges used for CIS calculation:
 Operator 0:  Orbitals   3... 11  to  12...116
XAS localization array:
 Operator 0:  Orbitals  -1... -1

-------------------
XC-INTEGRATION GRID
-------------------

General Integration Accuracy     IntAcc      ... 3.467
Radial Grid Type                 RadialGrid  ... OptM3 with GC (2021)
Angular Grid (max. ang.)         AngularGrid ... 1 (Lebedev-50)
Angular grid pruning method      GridPruning ... 4 (adaptive)
Weight generation scheme         WeightScheme... Becke
Basis function cutoff            BFCut       ... 1.0000e-11
Integration weight cutoff        WCut        ... 1.0000e-14
Angular grids for H and He will be reduced by one unit
Partially contracted basis set               ... off
Rotationally invariant grid construction     ... off

Total number of grid points                  ...     4542
Total number of batches                      ...       75
Average number of points per batch           ...       60
Average number of grid points per atom       ...      649

---------------------
COSX-INTEGRATION GRID
---------------------

General Integration Accuracy     IntAcc      ... 3.067
Radial Grid Type                 RadialGrid  ... OptM3 with GC (2021)
Angular Grid (max. ang.)         AngularGrid ... 1 (Lebedev-50)
Angular grid pruning method      GridPruning ... 4 (adaptive)
Weight generation scheme         WeightScheme... Becke
Basis function cutoff            BFCut       ... 1.0000e-11
Integration weight cutoff        WCut        ... 1.0000e-14
Angular grids for H and He will be reduced by one unit
Partially contracted basis set               ... on
Rotationally invariant grid construction     ... off

Total number of grid points                  ...     2087
Total number of batches                      ...       37
Average number of points per batch           ...       56
Average number of grid points per atom       ...      298

---------------
TD-DFT XC SETUP
---------------

DFT calculation                         ... on
Name of the grid file                   ... ox_es1_B_orca0009.grid_cis.tmp
Exchange functional (TD-DFT)            ... PBE
   PBE kappa parameter  XKappa (TD-DFT) ...  0.804000
   PBE mue parameter   XMuePBE (TD-DFT) ...  0.219520
Correlation functional (TD-DFT)         ... PBE
   PBE beta parameter CBetaPBE (TD-DFT) ...  0.066725
 LDA part of GGA corr.  LDAOpt (TD-DFT) ... PW91-LDA
Hybrid DFT                              ... on
   Exchange mixing (TD-DFT)             ...  0.250
   GGA exch. scaling (TD-DFT)           ...  0.750
   GGA corr. scaling (TD-DFT)           ...  1.000

Building densities             ... done
Calculating rho(r) on the grid ... done
Building xc-kernel on the grid ... done
                    *** TD-DFT CALCULATION INITIALIZED ***

------------------------
DAVIDSON-DIAGONALIZATION
------------------------

Dimension of the eigenvalue problem            ...    945
Number of roots to be determined               ...      1
Maximum size of the expansion space            ...     10
Maximum number of iterations                   ...    100
Convergence tolerance for the residual         ...    2.500e-07
Convergence tolerance for the energies         ...    2.500e-07
Orthogonality tolerance                        ...    1.000e-14
Level Shift                                    ...    0.000e+00
Constructing the preconditioner                ... o.k.
Building the initial guess                     ... o.k.
Number of trial vectors determined             ...     10


                       ****Iteration    0****

   Memory handling for direct AO based CIS:
   Memory per vector needed      ...     1 MB
   Memory needed                 ...     1 MB
   Memory available              ...  3000 MB
   Number of vectors per batch   ...  3000
   Number of batches             ...     1
   Time for densities:            0.001
   Time for RI-J (Direct):        0.016
   Time for K (COSX):             0.056
   Time for XC-Integration:       0.016
   Time for Sigma-Completion:     0.000
   Size of expansion space: 3
   Lowest Energy          :     0.201124519278
   Maximum Energy change  :     0.201124519278 (vector 0)
   Maximum residual norm  :     0.004165643387

                       ****Iteration    1****
   Time for densities:            0.000
   Time for RI-J (Direct):        0.012
   Time for K (COSX):             0.050
   Time for XC-Integration:       0.007
   Time for Sigma-Completion:     0.000
   Size of expansion space: 4
   Lowest Energy          :     0.197627231487
   Maximum Energy change  :     0.003497287792 (vector 0)
   Maximum residual norm  :     0.000163685307

                       ****Iteration    2****
   Time for densities:            0.000
   Time for RI-J (Direct):        0.012
   Time for K (COSX):             0.050
   Time for XC-Integration:       0.007
   Time for Sigma-Completion:     0.000
   Size of expansion space: 5
   Lowest Energy          :     0.197512676418
   Maximum Energy change  :     0.000114555069 (vector 0)
   Maximum residual norm  :     0.000003471045

                       ****Iteration    3****
   Time for densities:            0.000
   Time for RI-J (Direct):        0.012
   Time for K (COSX):             0.050
   Time for XC-Integration:       0.007
   Time for Sigma-Completion:     0.000
   Size of expansion space: 6
   Lowest Energy          :     0.197506938449
   Maximum Energy change  :     0.000005737969 (vector 0)
   Maximum residual norm  :     0.000000423525

                       ****Iteration    4****
   Time for densities:            0.000
   Time for RI-J (Direct):        0.012
   Time for K (COSX):             0.050
   Time for XC-Integration:       0.007
   Time for Sigma-Completion:     0.000
   Size of expansion space: 7
   Lowest Energy          :     0.197506352238
   Maximum Energy change  :     0.000000586211 (vector 0)
   Maximum residual norm  :     0.000000050907

      *** CONVERGENCE OF RESIDUAL NORM REACHED ***

Storing the converged CI vectors               ... ox_es1_B_orca0009.cis1

                 *** DAVIDSON DONE ***

Total time for solving the CIS problem:     0.368sec

------------------------------------
TD-DFT/TDA EXCITED STATES (SINGLETS)
------------------------------------

the weight of the individual excitations are printed if larger than 1.0e-02

STATE  1:  E=   0.197506 au      5.374 eV    43347.6 cm**-1 <S**2> =   0.000000
    11a ->  12a  :     0.984418 (c=  0.99217842)


-----------------------------
TD-DFT/TDA-EXCITATION SPECTRA
-----------------------------

Center of mass = ( -0.2641,  0.0106,  0.0297)
Calculating the Dipole integrals                  ... done
Transforming integrals                            ... done
Calculating the Linear Momentum integrals         ... done
Transforming integrals                            ... done
Calculating angular momentum integrals            ... done
Transforming integrals                            ... done

-----------------------------------------------------------------------------
         ABSORPTION SPECTRUM VIA TRANSITION ELECTRIC DIPOLE MOMENTS
-----------------------------------------------------------------------------
State   Energy    Wavelength  fosc         T2        TX        TY        TZ  
        (cm-1)      (nm)                 (au**2)    (au)      (au)      (au) 
-----------------------------------------------------------------------------
   1   43347.6    230.7   0.002944948   0.02237  -0.00228  -0.02416  -0.14757

-----------------------------------------------------------------------------
         ABSORPTION SPECTRUM VIA TRANSITION VELOCITY DIPOLE MOMENTS
-----------------------------------------------------------------------------
State   Energy    Wavelength   fosc        P2         PX        PY        PZ  
        (cm-1)      (nm)                 (au**2)     (au)      (au)      (au) 
-----------------------------------------------------------------------------
   1   43347.6    230.7   0.014750744   0.00437   0.00047   0.00815   0.06560

-------------------------------------------------------------------
                             CD SPECTRUM
-------------------------------------------------------------------
State  Energy     Wavelength     R         MX        MY        MZ   
       (cm-1)       (nm)     (1e40*cgs)   (au)      (au)      (au)  
-------------------------------------------------------------------
   1   43347.6    230.7     -1.39771  -0.04002   0.19891  -0.01185

-------------------------------------------------------------------
         CD SPECTRUM VIA TRANSITION VELOCITY DIPOLE MOMENTS        
-------------------------------------------------------------------
State  Energy     Wavelength     R         MX        MY        MZ   
       (cm-1)       (nm)     (1e40*cgs)   (au)      (au)      (au)  
-------------------------------------------------------------------
   1   43347.6    230.7      1.96906  -0.04002   0.19891  -0.01185

Total run time:        0.656 sec

           *** ORCA-CIS/TD-DFT FINISHED WITHOUT ERROR ***

Maximum memory used throughout the entire CIS-calculation: 49.4 MB

-----------------------
CIS/TD-DFT TOTAL ENERGY
-----------------------

    E(SCF)  =   -153.626999700 Eh
    DE(CIS) =      0.197506352 Eh (Root  1)
    ----------------------------- ---------
    E(tot)  =   -153.429493347 Eh



-------------------------------------------------------------------------------
                          DFT DISPERSION CORRECTION                            
                                                                               
                              DFTD3 V3.1  Rev 1                                
                          USING Becke-Johnson damping                          
-------------------------------------------------------------------------------
The PBE0 functional is recognized
Active option DFTDOPT                   ...         4   

molecular C6(AA) [au] = 354.798908 


            DFT-D V3
 parameters
 s6 scaling factor         :     1.0000 
 a1 scaling factor         :     0.4145 
 s8 scaling factor         :     1.2177 
 a2 scaling factor         :     4.8593 
 ad hoc parameters k1-k3   :    16.0000     1.3333    -4.0000 

 Edisp/kcal,au: -1.513933229145  -0.002412605913 
 E6   /kcal   :  -0.991215541 
 E8   /kcal   :  -0.522717688 
 % E8         :  34.527129608 

-------------------------   ----------------
Dispersion correction           -0.002412606
-------------------------   ----------------


-------------------------   --------------------
FINAL SINGLE POINT ENERGY      -153.431905953296
-------------------------   --------------------



           ************************************************************
           *        Program running with 8 parallel MPI-processes     *
           *              working on a common directory               *
           ************************************************************
------------------------------------------------------------------------------
                         ORCA SCF GRADIENT CALCULATION
------------------------------------------------------------------------------


------------------------
TD-DFT GRADIENT XC SETUP
------------------------

Building densities                     ... done
Calculating rho(r) on the grid         ... done
Building xc-kernel on the grid         ... done
Building xc 3rd derivative on the grid      ... done
                *** TD-DFT GRADIENT CALCULATION INITIALIZED ***

-------------------
TD-DFT/TDA GRADIENT
-------------------

Reference wavefunction             ... RHF
State of interest                  ... 1
Basis dimension                    ... 117
DFT-XC contribution needed         ... YES
RI-approximation                   ... ON
CIS-vectors being read from        ... ox_es1_B_orca0009.cis

 => Number of Vectors found: 1
 => Orbital Window: 3...11 -> 12...116

Reading the CIS file                     ... done
Norm of the CI vector                    ... 1.000000000
Making the CIS (pseudo)densities         ... done
Making operators G(D) and Q(T)           ... done
Transforming the Fock operators          ... done
Making the frozen-core relaxed density   ... done
Constructing the G(H) operator           ... done
Transforming the G(H) operator           ... done
Calculating the CIS Lagrangian           ... done
Solving the Z-vector equations           ... done
Finalizing the relaxed density           ... done
Storing the relaxed density              ... done
Constructing the G(Z) operator           ... done
Transforming the G(Z) operator           ... done
Making the W-matrix                      ... done
Finalizing the W-matrix                  ... done
Transforming the W-matrix                ... done
Nuclear repulsion gradient               ... done
One-Electron gradient                    ... done
Dispersion correction                    ... done
Prescreening matrices                    ... done
COSX-gradient                            ... done
Coulomb gradient (RI)                    ... done
Exchange-Correlation gradient            ... done

                 ---------------------------
                 EXCITED STATE GRADIENT DONE
                 ---------------------------

------------------
CARTESIAN GRADIENT
------------------

   1   O   :    0.096065880   -0.072590815   -0.003661734
   2   C   :   -0.117487870   -0.057415444    0.105716216
   3   C   :   -0.060007331    0.122523259    0.045609281
   4   H   :    0.051831363    0.017439631   -0.073703948
   5   H   :   -0.002081791    0.003101598   -0.025343145
   6   H   :    0.030273137   -0.012131056   -0.045384136
   7   H   :    0.001392570   -0.000877975   -0.003282706

Difference to translation invariance:
           :   -0.0000140413    0.0000491981   -0.0000501724

Difference to rotation invariance:
           :   -0.0000804677   -0.0000737114    0.0000298361

Norm of the cartesian gradient     ...    0.2751296739
RMS gradient                       ...    0.0600382170
MAX gradient                       ...    0.1225232591

------------------------------------------------------------------------------
                  RELAXED CIS/TDA DENSITY POPULATION ANALYSIS
                                   IROOT 1
------------------------------------------------------------------------------
------------------------------------------------------------------------------
                           ORCA POPULATION ANALYSIS
------------------------------------------------------------------------------
Input electron density              ... ox_es1_B_orca0009.cisp
BaseName (.gbw .S,...)              ... ox_es1_B_orca0009

                    ********************************
                    * MULLIKEN POPULATION ANALYSIS *
                    ********************************

-----------------------
MULLIKEN ATOMIC CHARGES
-----------------------
   0 O :   -0.022024
   1 C :   -0.080680
   2 C :   -0.494752
   3 H :    0.151926
   4 H :    0.157521
   5 H :    0.141113
   6 H :    0.146896
Sum of atomic charges:    0.0000000

--------------------------------
MULLIKEN REDUCED ORBITAL CHARGES
--------------------------------
  0 O s       :     3.843577  s :     3.843577
      pz      :     1.056100  p :     4.150808
      px      :     1.695066
      py      :     1.399641
      dz2     :     0.002894  d :     0.026802
      dxz     :     0.001444
      dyz     :     0.004623
      dx2y2   :     0.007658
      dxy     :     0.010182
      f0      :     0.000003  f :     0.000838
      f+1     :    -0.000079
      f-1     :     0.000073
      f+2     :     0.000099
      f-2     :     0.000088
      f+3     :     0.000390
      f-3     :     0.000264
  1 C s       :     3.221695  s :     3.221695
      pz      :     1.040336  p :     2.752644
      px      :     0.996896
      py      :     0.715412
      dz2     :     0.009813  d :     0.096753
      dxz     :     0.019995
      dyz     :     0.013405
      dx2y2   :     0.027948
      dxy     :     0.025593
      f0      :     0.000915  f :     0.009587
      f+1     :     0.001329
      f-1     :     0.000562
      f+2     :     0.000949
      f-2     :     0.000542
      f+3     :     0.002667
      f-3     :     0.002622
  2 C s       :     3.330876  s :     3.330876
      pz      :     1.051210  p :     3.088504
      px      :     0.858337
      py      :     1.178958
      dz2     :     0.008105  d :     0.068048
      dxz     :     0.012677
      dyz     :     0.002611
      dx2y2   :     0.019036
      dxy     :     0.025619
      f0      :     0.000549  f :     0.007324
      f+1     :     0.001138
      f-1     :     0.000577
      f+2     :     0.000756
      f-2     :     0.000464
      f+3     :     0.002365
      f-3     :     0.001475
  3 H s       :     0.823826  s :     0.823826
      pz      :     0.011709  p :     0.024248
      px      :     0.007712
      py      :     0.004827
  4 H s       :     0.822148  s :     0.822148
      pz      :     0.011562  p :     0.020331
      px      :     0.005581
      py      :     0.003189
  5 H s       :     0.837854  s :     0.837854
      pz      :     0.008489  p :     0.021034
      px      :     0.005538
      py      :     0.007006
  6 H s       :     0.827548  s :     0.827548
      pz      :     0.010198  p :     0.025556
      px      :     0.006877
      py      :     0.008480


                     *******************************
                     * LOEWDIN POPULATION ANALYSIS *
                     *******************************

----------------------
LOEWDIN ATOMIC CHARGES
----------------------
   0 O :    0.213317
   1 C :   -0.276417
   2 C :   -0.442453
   3 H :    0.103746
   4 H :    0.159996
   5 H :    0.133857
   6 H :    0.107954

-------------------------------
LOEWDIN REDUCED ORBITAL CHARGES
-------------------------------
  0 O s       :     3.567421  s :     3.567421
      pz      :     1.021485  p :     4.140519
      px      :     1.649924
      py      :     1.469110
      dz2     :     0.011686  d :     0.075106
      dxz     :     0.003696
      dyz     :     0.009986
      dx2y2   :     0.019239
      dxy     :     0.030500
      f0      :     0.000327  f :     0.003636
      f+1     :     0.000077
      f-1     :     0.000499
      f+2     :     0.000258
      f-2     :     0.000354
      f+3     :     0.001131
      f-3     :     0.000990
  1 C s       :     2.839871  s :     2.839871
      pz      :     1.043356  p :     2.946671
      px      :     1.097644
      py      :     0.805671
      dz2     :     0.061710  d :     0.422972
      dxz     :     0.096840
      dyz     :     0.042807
      dx2y2   :     0.123771
      dxy     :     0.097843
      f0      :     0.006508  f :     0.066902
      f+1     :     0.004846
      f-1     :     0.006484
      f+2     :     0.006645
      f-2     :     0.002430
      f+3     :     0.020965
      f-3     :     0.019023
  2 C s       :     2.920188  s :     2.920188
      pz      :     1.065985  p :     3.116065
      px      :     1.006478
      py      :     1.043603
      dz2     :     0.052001  d :     0.362835
      dxz     :     0.096175
      dyz     :     0.013642
      dx2y2   :     0.078337
      dxy     :     0.122680
      f0      :     0.003747  f :     0.043365
      f+1     :     0.004899
      f-1     :     0.004813
      f+2     :     0.003825
      f-2     :     0.001849
      f+3     :     0.015114
      f-3     :     0.009118
  3 H s       :     0.815323  s :     0.815323
      pz      :     0.040004  p :     0.080931
      px      :     0.024778
      py      :     0.016149
  4 H s       :     0.784101  s :     0.784101
      pz      :     0.032002  p :     0.055903
      px      :     0.014941
      py      :     0.008960
  5 H s       :     0.809521  s :     0.809521
      pz      :     0.024529  p :     0.056622
      px      :     0.014016
      py      :     0.018077
  6 H s       :     0.816749  s :     0.816749
      pz      :     0.032400  p :     0.075297
      px      :     0.019362
      py      :     0.023535


                      *****************************
                      * MAYER POPULATION ANALYSIS *
                      *****************************

  NA   - Mulliken gross atomic population
  ZA   - Total nuclear charge
  QA   - Mulliken gross atomic charge
  VA   - Mayer's total valence
  BVA  - Mayer's bonded valence
  FA   - Mayer's free valence

  ATOM       NA         ZA         QA         VA         BVA        FA
  0 O      8.0220     8.0000    -0.0220     1.8832     1.0161     0.8671
  1 C      6.0807     6.0000    -0.0807     3.9250     3.8622     0.0628
  2 C      6.4948     6.0000    -0.4948     3.8964     3.0669     0.8295
  3 H      0.8481     1.0000     0.1519     0.9645     0.9449     0.0196
  4 H      0.8425     1.0000     0.1575     0.9610     0.9255     0.0355
  5 H      0.8589     1.0000     0.1411     0.9823     0.9617     0.0205
  6 H      0.8531     1.0000     0.1469     0.9848     0.9657     0.0191

  Mayer bond orders larger than 0.100000
B(  0-O ,  1-C ) :   0.9302 B(  1-C ,  2-C ) :   1.0825 B(  1-C ,  3-H ) :   0.9378 
B(  1-C ,  4-H ) :   0.9102 B(  2-C ,  5-H ) :   0.9467 B(  2-C ,  6-H ) :   0.9565 



-------
TIMINGS
-------

Total TD-DFT gradient time         ...        5.025 sec

Fock matrix formation       ....       0.832 sec  ( 16.6%)
  Coulomb formation         ....       0.674 sec  ( 81.0% of F)
  RI-J                      ....       0.291 sec  ( 34.9% of F)
  Chain of spheres X        ....       0.383 sec  ( 46.0% of F)
  XC integration            ....       0.158 sec  ( 19.0% of F)
Z-vector equation           ....       1.385 sec  ( 27.6%)
One electron gradient       ....       0.033 sec  (  0.7%)
Prescreening matrices       ....       0.163 sec  (  3.2%)
RI-J Coulomb gradient       ....       0.250 sec  (  5.0%)
COSX gradient               ....       0.353 sec  (  7.0%)
XC gradient                 ....       1.682 sec  ( 33.5%)

Maximum memory used throughout the entire SCFGRAD-calculation: 130.3 MB

                            ***************************************
                            *     ORCA property calculations      *
                            ***************************************

                                    ---------------------
                                    Active property flags
                                    ---------------------
   (+) Dipole Moment


------------------------------------------------------------------------------
                       ORCA ELECTRIC PROPERTIES CALCULATION
------------------------------------------------------------------------------

Dipole Moment Calculation                       ... on
Quadrupole Moment Calculation                   ... off
Polarizability Calculation                      ... off
GBWName                                         ... ox_es1_B_orca0009.gbw
Electron density                                ... ox_es1_B_orca0009.scfp
The origin for moment calculation is the CENTER OF MASS  = (-0.264140,  0.010582  0.029654)

-------------
DIPOLE MOMENT
-------------
                                X             Y             Z
Electronic contribution:     -0.38963       1.53154       0.16696
Nuclear contribution   :      0.55937      -2.50516      -0.08900
                        -----------------------------------------
Total Dipole Moment    :      0.16974      -0.97362       0.07796
                        -----------------------------------------
Magnitude (a.u.)       :      0.99138
Magnitude (Debye)      :      2.51988



--------------------
Rotational spectrum 
--------------------
 
Rotational constants in cm-1:     0.818765     0.608587     0.409774 
Rotational constants in MHz : 24545.962677 18244.964862 12284.702702 

 Dipole components along the rotational axes: 
x,y,z [a.u.] :    -0.764487    -0.630710     0.024358 
x,y,z [Debye]:    -1.943171    -1.603138     0.061912 

 

                        *** CIS RELAXED DENSITY ***

------------------------------------------------------------------------------
                       ORCA ELECTRIC PROPERTIES CALCULATION
------------------------------------------------------------------------------

Dipole Moment Calculation                       ... on
Quadrupole Moment Calculation                   ... off
Polarizability Calculation                      ... off
GBWName                                         ... ox_es1_B_orca0009.gbw
Electron density                                ... ox_es1_B_orca0009.cisp
The origin for moment calculation is the CENTER OF MASS  = (-0.264140,  0.010582  0.029654)

-------------
DIPOLE MOMENT
-------------
                                X             Y             Z
Electronic contribution:     -1.14846       2.15388       0.11967
Nuclear contribution   :      0.55937      -2.50516      -0.08900
                        -----------------------------------------
Total Dipole Moment    :     -0.58909      -0.35128       0.03066
                        -----------------------------------------
Magnitude (a.u.)       :      0.68656
Magnitude (Debye)      :      1.74510



--------------------
Rotational spectrum 
--------------------
 
Rotational constants in cm-1:     0.818765     0.608587     0.409774 
Rotational constants in MHz : 24545.962677 18244.964862 12284.702702 

 Dipole components along the rotational axes: 
x,y,z [a.u.] :     0.217735    -0.651041     0.010097 
x,y,z [Debye]:     0.553438    -1.654815     0.025663 

 

Timings for individual modules:

Sum of individual times         ...        7.449 sec (=   0.124 min)
GTO integral calculation        ...        0.246 sec (=   0.004 min)   3.3 %
SCF iterations                  ...        1.172 sec (=   0.020 min)  15.7 %
CIS module                      ...        0.852 sec (=   0.014 min)  11.4 %
SCF Gradient evaluation         ...        5.180 sec (=   0.086 min)  69.5 %
                             ****ORCA TERMINATED NORMALLY****
TOTAL RUN TIME: 0 days 0 hours 0 minutes 7 seconds 782 msec
