
                                 *****************
                                 * O   R   C   A *
                                 *****************

                                            #,                                       
                                            ###                                      
                                            ####                                     
                                            #####                                    
                                            ######                                   
                                           ########,                                 
                                     ,,################,,,,,                         
                               ,,#################################,,                 
                          ,,##########################################,,             
                       ,#########################################, ''#####,          
                    ,#############################################,,   '####,        
                  ,##################################################,,,,####,       
                ,###########''''           ''''###############################       
              ,#####''   ,,,,##########,,,,          '''####'''          '####       
            ,##' ,,,,###########################,,,                        '##       
           ' ,,###''''                  '''############,,,                           
         ,,##''                                '''############,,,,        ,,,,,,###''
      ,#''                                            '''#######################'''  
     '                                                          ''''####''''         
             ,#######,   #######,   ,#######,      ##                                
            ,#'     '#,  ##    ##  ,#'     '#,    #''#        ######   ,####,        
            ##       ##  ##   ,#'  ##            #'  '#       #        #'  '#        
            ##       ##  #######   ##           ,######,      #####,   #    #        
            '#,     ,#'  ##    ##  '#,     ,#' ,#      #,         ##   #,  ,#        
             '#######'   ##     ##  '#######'  #'      '#     #####' # '####'        



                  #######################################################
                  #                        -***-                        #
                  #          Department of theory and spectroscopy      #
                  #    Directorship and core code : Frank Neese         #
                  #        Max Planck Institute fuer Kohlenforschung    #
                  #                Kaiser Wilhelm Platz 1               #
                  #                 D-45470 Muelheim/Ruhr               #
                  #                      Germany                        #
                  #                                                     #
                  #                  All rights reserved                #
                  #                        -***-                        #
                  #######################################################


                         Program Version 5.0.2 -  RELEASE  -


 With contributions from (in alphabetic order):
   Daniel Aravena         : Magnetic Suceptibility
   Michael Atanasov       : Ab Initio Ligand Field Theory (pilot matlab implementation)
   Alexander A. Auer      : GIAO ZORA, VPT2 properties, NMR spectrum
   Ute Becker             : Parallelization
   Giovanni Bistoni       : ED, misc. LED, open-shell LED, HFLD
   Martin Brehm           : Molecular dynamics
   Dmytro Bykov           : SCF Hessian
   Vijay G. Chilkuri      : MRCI spin determinant printing, contributions to CSF-ICE
   Dipayan Datta          : RHF DLPNO-CCSD density
   Achintya Kumar Dutta   : EOM-CC, STEOM-CC
   Dmitry Ganyushin       : Spin-Orbit,Spin-Spin,Magnetic field MRCI
   Miquel Garcia          : C-PCM and meta-GGA Hessian, CC/C-PCM, Gaussian charge scheme
   Yang Guo               : DLPNO-NEVPT2, F12-NEVPT2, CIM, IAO-localization
   Andreas Hansen         : Spin unrestricted coupled pair/coupled cluster methods
   Benjamin Helmich-Paris : MC-RPA, TRAH-SCF, COSX integrals
   Lee Huntington         : MR-EOM, pCC
   Robert Izsak           : Overlap fitted RIJCOSX, COSX-SCS-MP3, EOM
   Marcus Kettner         : VPT2
   Christian Kollmar      : KDIIS, OOCD, Brueckner-CCSD(T), CCSD density, CASPT2, CASPT2-K
   Simone Kossmann        : Meta GGA functionals, TD-DFT gradient, OOMP2, MP2 Hessian
   Martin Krupicka        : Initial AUTO-CI
   Lucas Lang             : DCDCAS
   Marvin Lechner         : AUTO-CI (C++ implementation), FIC-MRCC
   Dagmar Lenk            : GEPOL surface, SMD
   Dimitrios Liakos       : Extrapolation schemes; Compound Job, initial MDCI parallelization
   Dimitrios Manganas     : Further ROCIS development; embedding schemes
   Dimitrios Pantazis     : SARC Basis sets
   Anastasios Papadopoulos: AUTO-CI, single reference methods and gradients
   Taras Petrenko         : DFT Hessian,TD-DFT gradient, ASA, ECA, R-Raman, ABS, FL, XAS/XES, NRVS
   Peter Pinski           : DLPNO-MP2, DLPNO-MP2 Gradient
   Christoph Reimann      : Effective Core Potentials
   Marius Retegan         : Local ZFS, SOC
   Christoph Riplinger    : Optimizer, TS searches, QM/MM, DLPNO-CCSD(T), (RO)-DLPNO pert. Triples
   Tobias Risthaus        : Range-separated hybrids, TD-DFT gradient, RPA, STAB
   Michael Roemelt        : Original ROCIS implementation
   Masaaki Saitow         : Open-shell DLPNO-CCSD energy and density
   Barbara Sandhoefer     : DKH picture change effects
   Avijit Sen             : IP-ROCIS
   Kantharuban Sivalingam : CASSCF convergence, NEVPT2, FIC-MRCI
   Bernardo de Souza      : ESD, SOC TD-DFT
   Georgi Stoychev        : AutoAux, RI-MP2 NMR, DLPNO-MP2 response
   Willem Van den Heuvel  : Paramagnetic NMR
   Boris Wezisla          : Elementary symmetry handling
   Frank Wennmohs         : Technical directorship


 We gratefully acknowledge several colleagues who have allowed us to
 interface, adapt or use parts of their codes:
   Stefan Grimme, W. Hujo, H. Kruse, P. Pracht,  : VdW corrections, initial TS optimization,
                  C. Bannwarth, S. Ehlert          DFT functionals, gCP, sTDA/sTD-DF
   Ed Valeev, F. Pavosevic, A. Kumar             : LibInt (2-el integral package), F12 methods
   Garnet Chan, S. Sharma, J. Yang, R. Olivares  : DMRG
   Ulf Ekstrom                                   : XCFun DFT Library
   Mihaly Kallay                                 : mrcc  (arbitrary order and MRCC methods)
   Jiri Pittner, Ondrej Demel                    : Mk-CCSD
   Frank Weinhold                                : gennbo (NPA and NBO analysis)
   Christopher J. Cramer and Donald G. Truhlar   : smd solvation model
   Lars Goerigk                                  : TD-DFT with DH, B97 family of functionals
   V. Asgeirsson, H. Jonsson                     : NEB implementation
   FAccTs GmbH                                   : IRC, NEB, NEB-TS, DLPNO-Multilevel, CI-OPT
                                                   MM, QMMM, 2- and 3-layer-ONIOM, Crystal-QMMM,
                                                   LR-CPCM, SF, NACMEs, symmetry and pop. for TD-DFT,
                                                   nearIR, NL-DFT gradient (VV10), updates on ESD,
                                                   ML-optimized integration grids
   S Lehtola, MJT Oliveira, MAL Marques          : LibXC Library
   Liviu Ungur et al                             : ANISO software


 Your calculation uses the libint2 library for the computation of 2-el integrals
 For citations please refer to: http://libint.valeyev.net

 Your ORCA version has been built with support for libXC version: 5.1.0
 For citations please refer to: https://tddft.org/programs/libxc/

 This ORCA versions uses:
   CBLAS   interface :  Fast vector & matrix operations
   LAPACKE interface :  Fast linear algebra routines
   SCALAPACK package :  Parallel linear algebra routines
   Shared memory     :  Shared parallel matrices
   BLAS/LAPACK       :  OpenBLAS 0.3.15  USE64BITINT DYNAMIC_ARCH NO_AFFINITY SkylakeX SINGLE_THREADED
        Core in use  :  SkylakeX
   Copyright (c) 2011-2014, The OpenBLAS Project


Your calculation utilizes the atom-pairwise dispersion correction
with the Becke-Johnson damping scheme (D3BJ)
Cite in your paper:
S.Grimme, S.Ehrlich, L.Goerigk, J Comput Chem, (2011), 32, 1456–1465 
S.Grimme, J.Antony, S.Ehrlich and H.Krieg, J.Chem.Phys., 132, (2010), 154104 
   

================================================================================

----- Orbital basis set information -----
Your calculation utilizes the basis: def2-TZVP
   F. Weigend and R. Ahlrichs, Phys. Chem. Chem. Phys. 7, 3297 (2005).

----- AuxJ basis set information -----
Your calculation utilizes the auxiliary basis: def2/J
   F. Weigend, Phys. Chem. Chem. Phys. 8, 1057 (2006).

================================================================================
                                        WARNINGS
                       Please study these warnings very carefully!
================================================================================

INFO   : Checking CIS options ...

WARNING: CIS/ROCIS methods need fully converged wavefunctions
  ===> : Setting SCFConvForced true
         You can overwrite this default with %scf ConvForced false 


INFO   : the flag for use of the SHARK integral package has been found!

================================================================================
                                       INPUT FILE
================================================================================
NAME = ox_es1_A_orca0019.inp
|  1> ! engrad PBE0 D3BJ def2-TZVP  
|  2> %pal nprocs 8 end
|  3> %maxcore 3000
|  4> 
|  5> %tddft
|  6>   nroots 1
|  7>   tda true
|  8>   Iroot 1
|  9>   end 
| 10> *xyz 0 1 
| 11> O   0.061890865598673094 0.6872029270602817 -0.029968641147688643
| 12> C   -0.7286274050140908 -0.4446714603117629 -0.022503273573962184
| 13> C   0.7600320366173748 -0.5004015114691297 -0.007118974251064675
| 14> H   -1.257808148414405 -0.6425488682970626 0.9555569639044446
| 15> H   -1.3200548745918934 -0.7449766185367812 -0.8560923789050745
| 16> H   1.2804385205989794 -0.7056951868278277 -0.8424186212238739
| 17> H   1.269606601714643 -0.6093059507968087 0.9233520940705054
| 18> *
| 19> 
| 20>                          ****END OF INPUT****
================================================================================

                     *******************************
                     * Energy+Gradient Calculation *
                     *******************************

---------------------------------
CARTESIAN COORDINATES (ANGSTROEM)
---------------------------------
  O      0.061891    0.687203   -0.029969
  C     -0.728627   -0.444671   -0.022503
  C      0.760032   -0.500402   -0.007119
  H     -1.257808   -0.642549    0.955557
  H     -1.320055   -0.744977   -0.856092
  H      1.280439   -0.705695   -0.842419
  H      1.269607   -0.609306    0.923352

----------------------------
CARTESIAN COORDINATES (A.U.)
----------------------------
  NO LB      ZA    FRAG     MASS         X           Y           Z
   0 O     8.0000    0    15.999    0.116957    1.298625   -0.056633
   1 C     6.0000    0    12.011   -1.376906   -0.840307   -0.042525
   2 C     6.0000    0    12.011    1.436252   -0.945622   -0.013453
   3 H     1.0000    0     1.008   -2.376913   -1.214241    1.805741
   4 H     1.0000    0     1.008   -2.494542   -1.407802   -1.617780
   5 H     1.0000    0     1.008    2.419678   -1.333571   -1.591940
   6 H     1.0000    0     1.008    2.399209   -1.151421    1.744883

--------------------------------
INTERNAL COORDINATES (ANGSTROEM)
--------------------------------
 O      0   0   0     0.000000000000     0.00000000     0.00000000
 C      1   0   0     1.380621054698     0.00000000     0.00000000
 C      1   2   0     1.377798063710    65.37880105     0.00000000
 H      2   1   3     1.129508546189   114.61790411   107.28629941
 H      2   1   3     1.065288898072   123.00861361   248.59181597
 H      3   1   2     1.005332731958   115.12104266   112.15059756
 H      3   1   2     1.066444008508   110.15801249   247.34397306

---------------------------
INTERNAL COORDINATES (A.U.)
---------------------------
 O      0   0   0     0.000000000000     0.00000000     0.00000000
 C      1   0   0     2.608995688104     0.00000000     0.00000000
 C      1   2   0     2.603661008259    65.37880105     0.00000000
 H      2   1   3     2.134461818220   114.61790411   107.28629941
 H      2   1   3     2.013104270862   123.00861361   248.59181597
 H      3   1   2     1.899803536867   115.12104266   112.15059756
 H      3   1   2     2.015287113241   110.15801249   247.34397306

---------------------
BASIS SET INFORMATION
---------------------
There are 3 groups of distinct atoms

 Group   1 Type O   : 11s6p2d1f contracted to 5s3p2d1f pattern {62111/411/11/1}
 Group   2 Type C   : 11s6p2d1f contracted to 5s3p2d1f pattern {62111/411/11/1}
 Group   3 Type H   : 5s1p contracted to 3s1p pattern {311/1}

Atom   0O    basis set group =>   1
Atom   1C    basis set group =>   2
Atom   2C    basis set group =>   2
Atom   3H    basis set group =>   3
Atom   4H    basis set group =>   3
Atom   5H    basis set group =>   3
Atom   6H    basis set group =>   3
---------------------------------
AUXILIARY/J BASIS SET INFORMATION
---------------------------------
There are 3 groups of distinct atoms

 Group   1 Type O   : 12s5p4d2f1g contracted to 6s4p3d1f1g pattern {711111/2111/211/2/1}
 Group   2 Type C   : 12s5p4d2f1g contracted to 6s4p3d1f1g pattern {711111/2111/211/2/1}
 Group   3 Type H   : 5s2p1d contracted to 3s1p1d pattern {311/2/1}

Atom   0O    basis set group =>   1
Atom   1C    basis set group =>   2
Atom   2C    basis set group =>   2
Atom   3H    basis set group =>   3
Atom   4H    basis set group =>   3
Atom   5H    basis set group =>   3
Atom   6H    basis set group =>   3

Checking for AutoStart:
The File: ox_es1_A_orca0019.gbw exists
Trying to determine its content:
     ... Fine, the file contains calculation information
     ... Fine, the calculation information was read
     ... Fine, the file contains a basis set
     ... Fine, the basis set was read
     ... Fine, the file contains a geometry
     ... Fine, the geometry was read
     ... Fine, the file contains a set of orbitals
     ... Fine, the orbitals can be read
     => possible old guess file was deleted
     => GBW file was renamed to GES file
     => GES file is set as startup file
     => Guess is set to MORead
     ... now leaving AutoStart



           ************************************************************
           *        Program running with 8 parallel MPI-processes     *
           *              working on a common directory               *
           ************************************************************
------------------------------------------------------------------------------
                           ORCA GTO INTEGRAL CALCULATION
                           -- RI-GTO INTEGRALS CHOSEN --
------------------------------------------------------------------------------
------------------------------------------------------------------------------
                   ___                                                        
                  /   \      - P O W E R E D   B Y -                         
                 /     \                                                     
                 |  |  |   _    _      __       _____    __    __             
                 |  |  |  | |  | |    /  \     |  _  \  |  |  /  |          
                  \  \/   | |  | |   /    \    | | | |  |  | /  /          
                 / \  \   | |__| |  /  /\  \   | |_| |  |  |/  /          
                |  |  |   |  __  | /  /__\  \  |    /   |      \           
                |  |  |   | |  | | |   __   |  |    \   |  |\   \          
                \     /   | |  | | |  |  |  |  | |\  \  |  | \   \       
                 \___/    |_|  |_| |__|  |__|  |_| \__\ |__|  \__/        
                                                                              
                      - O R C A' S   B I G   F R I E N D -                    
                                      &                                       
                       - I N T E G R A L  F E E D E R -                       
                                                                              
 v1 FN, 2020, v2 2021                                                         
------------------------------------------------------------------------------


Reading SHARK input file ox_es1_A_orca0019.SHARKINP.tmp ... ok
----------------------
SHARK INTEGRAL PACKAGE
----------------------

Number of atoms                             ...      7
Number of basis functions                   ...    117
Number of shells                            ...     49
Maximum angular momentum                    ...      3
Integral batch strategy                     ... SHARK/LIBINT Hybrid
RI-J (if used) integral strategy            ... SPLIT-RIJ (Revised 2003 algorithm where possible)
Printlevel                                  ...      1
Contraction scheme used                     ... SEGMENTED contraction
Coulomb Range Separation                    ... NOT USED
Exchange Range Separation                   ... NOT USED
Finite Nucleus Model                        ... NOT USED
Auxiliary Coulomb fitting basis             ... AVAILABLE
   # of basis functions in Aux-J            ...    191
   # of shells in Aux-J                     ...     65
   Maximum angular momentum in Aux-J        ...      4
Auxiliary J/K fitting basis                 ... NOT available
Auxiliary Correlation fitting basis         ... NOT available
Auxiliary 'external' fitting basis          ... NOT available
Integral threshold                          ...     2.500000e-11
Primitive cut-off                           ...     2.500000e-12
Primitive pair pre-selection threshold      ...     2.500000e-12

Calculating pre-screening integrals         ... done (  0.0 sec) Dimension = 49
Organizing shell pair data                  ... done (  0.0 sec)
Shell pair information
Total number of shell pairs                 ...      1225
Shell pairs after pre-screening             ...      1222
Total number of primitive shell pairs       ...      3648
Primitive shell pairs kept                  ...      3160
          la=0 lb=0:    375 shell pairs
          la=1 lb=0:    351 shell pairs
          la=1 lb=1:     91 shell pairs
          la=2 lb=0:    162 shell pairs
          la=2 lb=1:     78 shell pairs
          la=2 lb=2:     21 shell pairs
          la=3 lb=0:     81 shell pairs
          la=3 lb=1:     39 shell pairs
          la=3 lb=2:     18 shell pairs
          la=3 lb=3:      6 shell pairs

Calculating one electron integrals          ... done (  0.0 sec)
Calculating RI/J V-Matrix + Cholesky decomp.... done (  0.0 sec)
Calculating Nuclear repulsion               ... done (  0.0 sec) ENN=     76.759819848305 Eh

SHARK setup successfully completed in   0.1 seconds

Maximum memory used throughout the entire GTOINT-calculation: 14.9 MB


           ************************************************************
           *        Program running with 8 parallel MPI-processes     *
           *              working on a common directory               *
           ************************************************************
-------------------------------------------------------------------------------
                                 ORCA SCF
-------------------------------------------------------------------------------

------------
SCF SETTINGS
------------
Hamiltonian:
 Density Functional     Method          .... DFT(GTOs)
 Exchange Functional    Exchange        .... PBE
   PBE kappa parameter   XKappa         ....  0.804000
   PBE mue parameter    XMuePBE         ....  0.219520
 Correlation Functional Correlation     .... PBE
   PBE beta parameter  CBetaPBE         ....  0.066725
 LDA part of GGA corr.  LDAOpt          .... PW91-LDA
 Gradients option       PostSCFGGA      .... off
 Hybrid DFT is turned on
   Fraction HF Exchange ScalHFX         ....  0.250000
   Scaling of DF-GGA-X  ScalDFX         ....  0.750000
   Scaling of DF-GGA-C  ScalDFC         ....  1.000000
   Scaling of DF-LDA-C  ScalLDAC        ....  1.000000
   Perturbative correction              ....  0.000000
   Density functional embedding theory  .... OFF
   NL short-range parameter             ....  6.900000
 RI-approximation to the Coulomb term is turned on
   Number of AuxJ basis functions       .... 191
   RIJ-COSX (HFX calculated with COS-X)).... on


General Settings:
 Integral files         IntName         .... ox_es1_A_orca0019
 Hartree-Fock type      HFTyp           .... RHF
 Total Charge           Charge          ....    0
 Multiplicity           Mult            ....    1
 Number of Electrons    NEL             ....   24
 Basis Dimension        Dim             ....  117
 Nuclear Repulsion      ENuc            ....     76.7598198483 Eh

Convergence Acceleration:
 DIIS                   CNVDIIS         .... on
   Start iteration      DIISMaxIt       ....    12
   Startup error        DIISStart       ....  0.200000
   # of expansion vecs  DIISMaxEq       ....     5
   Bias factor          DIISBfac        ....   1.050
   Max. coefficient     DIISMaxC        ....  10.000
 Trust-Rad. Augm. Hess. CNVTRAH         .... auto
   Auto Start mean grad. ratio tolernc. ....  1.125000
   Auto Start start iteration           ....     1
   Auto Start num. interpolation iter.  ....    10
   Max. Number of Micro iterations      ....    16
   Max. Number of Macro iterations      .... Maxiter - #DIIS iter
   Number of Davidson start vectors     ....     2
   Converg. threshold I  (grad. norm)   ....   1.000e-05
   Converg. threshold II (energy diff.) ....   1.000e-08
   Grad. Scal. Fac. for Micro threshold ....   0.100
   Minimum threshold for Micro iter.    ....   0.010
   NR start threshold (gradient norm)   ....   0.001
   Initial trust radius                 ....   0.400
   Minimum AH scaling param. (alpha)    ....   1.000
   Maximum AH scaling param. (alpha)    .... 1000.000
   Orbital update algorithm             .... Taylor
   White noise on init. David. guess    .... on
   Maximum white noise                  ....   0.010
   Quad. conv. algorithm                .... NR
 SOSCF                  CNVSOSCF        .... on
   Start iteration      SOSCFMaxIt      ....   150
   Startup grad/error   SOSCFStart      ....  0.003300
 Level Shifting         CNVShift        .... on
   Level shift para.    LevelShift      ....    0.2500
   Turn off err/grad.   ShiftErr        ....    0.0010
 Zerner damping         CNVZerner       .... off
 Static damping         CNVDamp         .... on
   Fraction old density DampFac         ....    0.7000
   Max. Damping (<1)    DampMax         ....    0.9800
   Min. Damping (>=0)   DampMin         ....    0.0000
   Turn off err/grad.   DampErr         ....    0.1000
 Fernandez-Rico         CNVRico         .... off

SCF Procedure:
 Maximum # iterations   MaxIter         ....   125
 SCF integral mode      SCFMode         .... Direct
   Integral package                     .... SHARK and LIBINT hybrid scheme
 Reset frequency        DirectResetFreq ....    20
 Integral Threshold     Thresh          ....  2.500e-11 Eh
 Primitive CutOff       TCut            ....  2.500e-12 Eh

Convergence Tolerance:
 Convergence Check Mode ConvCheckMode   .... Total+1el-Energy
 Convergence forced     ConvForced      .... 1
 Energy Change          TolE            ....  1.000e-08 Eh
 1-El. energy change                    ....  1.000e-05 Eh
 Orbital Gradient       TolG            ....  1.000e-05
 Orbital Rotation angle TolX            ....  1.000e-05
 DIIS Error             TolErr          ....  5.000e-07


Diagonalization of the overlap matrix:
Smallest eigenvalue                        ... 4.305e-04
Time for diagonalization                   ...    0.001 sec
Threshold for overlap eigenvalues          ... 1.000e-08
Number of eigenvalues below threshold      ... 0
Time for construction of square roots      ...    0.001 sec
Total time needed                          ...    0.003 sec

---------------------
INITIAL GUESS: MOREAD
---------------------
Guess MOs are being read from file: ox_es1_A_orca0019.ges
Input Geometry matches current geometry (good)
Input basis set matches current basis set (good)
MOs were renormalized
MOs were reorthogonalized (Cholesky)
                      ------------------
                      INITIAL GUESS DONE (   0.0 sec)
                      ------------------
-------------------
DFT GRID GENERATION
-------------------

General Integration Accuracy     IntAcc      ... 4.388
Radial Grid Type                 RadialGrid  ... OptM3 with GC (2021)
Angular Grid (max. ang.)         AngularGrid ... 4 (Lebedev-302)
Angular grid pruning method      GridPruning ... 4 (adaptive)
Weight generation scheme         WeightScheme... Becke
Basis function cutoff            BFCut       ... 1.0000e-11
Integration weight cutoff        WCut        ... 1.0000e-14
Angular grids for H and He will be reduced by one unit
Partially contracted basis set               ... off
Rotationally invariant grid construction     ... off

Total number of grid points                  ...    31283
Total number of batches                      ...      493
Average number of points per batch           ...       63
Average number of grid points per atom       ...     4469
Time for grid setup =    0.118 sec

--------------------
COSX GRID GENERATION
--------------------

GRIDX 1
-------
General Integration Accuracy     IntAcc      ... 3.816
Radial Grid Type                 RadialGrid  ... OptM3 with GC (2021)
Angular Grid (max. ang.)         AngularGrid ... 1 (Lebedev-50)
Angular grid pruning method      GridPruning ... 4 (adaptive)
Weight generation scheme         WeightScheme... Becke
Basis function cutoff            BFCut       ... 1.0000e-11
Integration weight cutoff        WCut        ... 1.0000e-14
Angular grids for H and He will be reduced by one unit
Partially contracted basis set               ... on
Rotationally invariant grid construction     ... off

Total number of grid points                  ...     4032
Total number of batches                      ...       68
Average number of points per batch           ...       59
Average number of grid points per atom       ...      576
UseSFitting                                  ... on

GRIDX 2
-------
General Integration Accuracy     IntAcc      ... 4.020
Radial Grid Type                 RadialGrid  ... OptM3 with GC (2021)
Angular Grid (max. ang.)         AngularGrid ... 2 (Lebedev-110)
Angular grid pruning method      GridPruning ... 4 (adaptive)
Weight generation scheme         WeightScheme... Becke
Basis function cutoff            BFCut       ... 1.0000e-11
Integration weight cutoff        WCut        ... 1.0000e-14
Angular grids for H and He will be reduced by one unit
Partially contracted basis set               ... on
Rotationally invariant grid construction     ... off

Total number of grid points                  ...     8706
Total number of batches                      ...      141
Average number of points per batch           ...       61
Average number of grid points per atom       ...     1244
UseSFitting                                  ... on

GRIDX 3
-------
General Integration Accuracy     IntAcc      ... 4.338
Radial Grid Type                 RadialGrid  ... OptM3 with GC (2021)
Angular Grid (max. ang.)         AngularGrid ... 3 (Lebedev-194)
Angular grid pruning method      GridPruning ... 4 (adaptive)
Weight generation scheme         WeightScheme... Becke
Basis function cutoff            BFCut       ... 1.0000e-11
Integration weight cutoff        WCut        ... 1.0000e-14
Angular grids for H and He will be reduced by one unit
Partially contracted basis set               ... on
Rotationally invariant grid construction     ... off

Total number of grid points                  ...    19239
Total number of batches                      ...      303
Average number of points per batch           ...       63
Average number of grid points per atom       ...     2748
UseSFitting                                  ... on

Time for X-Grid setup             =    0.072 sec

--------------
SCF ITERATIONS
--------------
ITER       Energy         Delta-E        Max-DP      RMS-DP      [F,P]     Damp
               ***  Starting incremental Fock matrix formation  ***
                      *** Initiating the SOSCF procedure ***
                      *** Re-Reading the Fockian *** 
                      *** Removing any level shift *** 
ITER      Energy       Delta-E        Grad      Rot      Max-DP    RMS-DP
  0   -153.66288117 -153.6628811656  0.000000  0.000000  0.000001  0.000000
               *** Restarting incremental Fock matrix formation ***
                 **** Energy Check signals convergence ****
              ***Rediagonalizing the Fockian in SOSCF/NRSCF***

               *****************************************************
               *                     SUCCESS                       *
               *           SCF CONVERGED AFTER   1 CYCLES          *
               *****************************************************

Old exchange energy                            =     -5.014208972 Eh
New exchange energy                            =     -5.014196123 Eh
Exchange energy change after final integration =      0.000012849 Eh
Total energy after final integration           =   -153.662868316 Eh
Final COS-X integration done in                =     0.251 sec

----------------
TOTAL SCF ENERGY
----------------

Total Energy       :         -153.66286832 Eh           -4181.37922 eV

Components:
Nuclear Repulsion  :           76.75981985 Eh            2088.74089 eV
Electronic Energy  :         -230.42268816 Eh           -6270.12011 eV
One Electron Energy:         -360.05133397 Eh           -9797.49489 eV
Two Electron Energy:          129.62864581 Eh            3527.37478 eV
Max COSX asymmetry :            0.00000319 Eh               0.00009 eV

Virial components:
Potential Energy   :         -306.87118609 Eh           -8350.38950 eV
Kinetic Energy     :          153.20831778 Eh            4169.01028 eV
Virial Ratio       :            2.00296688


DFT components:
N(Alpha)           :       12.000001516005 electrons
N(Beta)            :       12.000001516005 electrons
N(Total)           :       24.000003032011 electrons
E(X)               :      -15.005078568716 Eh       
E(C)               :       -0.794206072721 Eh       
E(XC)              :      -15.799284641437 Eh       
DFET-embed. en.    :        0.000000000000 Eh       

---------------
SCF CONVERGENCE
---------------

  Last Energy change         ...   -4.4338e-12  Tolerance :   1.0000e-08
  Last MAX-Density change    ...    4.8225e-16  Tolerance :   1.0000e-07
  Last RMS-Density change    ...    1.7025e-17  Tolerance :   5.0000e-09
  Last Orbital Gradient      ...    2.6138e-07  Tolerance :   1.0000e-05
  Last Orbital Rotation      ...    5.4359e-07  Tolerance :   1.0000e-05

             **** THE GBW FILE WAS UPDATED (ox_es1_A_orca0019.gbw) ****
             **** DENSITY ox_es1_A_orca0019.scfp WAS UPDATED ****
             **** ENERGY FILE WAS UPDATED (ox_es1_A_orca0019.en.tmp) ****
             **** THE GBW FILE WAS UPDATED (ox_es1_A_orca0019.gbw) ****
             **** DENSITY ox_es1_A_orca0019.scfp WAS UPDATED ****
----------------
ORBITAL ENERGIES
----------------

  NO   OCC          E(Eh)            E(eV) 
   0   2.0000     -19.222568      -523.0727 
   1   2.0000     -10.277635      -279.6687 
   2   2.0000     -10.262540      -279.2579 
   3   2.0000      -1.135106       -30.8878 
   4   2.0000      -0.691571       -18.8186 
   5   2.0000      -0.670496       -18.2451 
   6   2.0000      -0.541125       -14.7248 
   7   2.0000      -0.510029       -13.8786 
   8   2.0000      -0.436638       -11.8815 
   9   2.0000      -0.398706       -10.8493 
  10   2.0000      -0.321946        -8.7606 
  11   2.0000      -0.289780        -7.8853 
  12   0.0000       0.068197         1.8557 
  13   0.0000       0.078249         2.1293 
  14   0.0000       0.089853         2.4450 
  15   0.0000       0.108651         2.9565 
  16   0.0000       0.115606         3.1458 
  17   0.0000       0.154913         4.2154 
  18   0.0000       0.194239         5.2855 
  19   0.0000       0.217655         5.9227 
  20   0.0000       0.270332         7.3561 
  21   0.0000       0.271767         7.3951 
  22   0.0000       0.290153         7.8955 
  23   0.0000       0.360864         9.8196 
  24   0.0000       0.388119        10.5613 
  25   0.0000       0.396169        10.7803 
  26   0.0000       0.411177        11.1887 
  27   0.0000       0.435350        11.8465 
  28   0.0000       0.453721        12.3464 
  29   0.0000       0.472688        12.8625 
  30   0.0000       0.506042        13.7701 
  31   0.0000       0.523739        14.2516 
  32   0.0000       0.544425        14.8146 
  33   0.0000       0.714011        19.4292 
  34   0.0000       0.716468        19.4961 
  35   0.0000       0.723175        19.6786 
  36   0.0000       0.832648        22.6575 
  37   0.0000       0.851347        23.1663 
  38   0.0000       0.896716        24.4009 
  39   0.0000       0.937516        25.5111 
  40   0.0000       1.024795        27.8861 
  41   0.0000       1.033389        28.1200 
  42   0.0000       1.073322        29.2066 
  43   0.0000       1.082496        29.4562 
  44   0.0000       1.168738        31.8030 
  45   0.0000       1.352627        36.8068 
  46   0.0000       1.448769        39.4230 
  47   0.0000       1.493741        40.6468 
  48   0.0000       1.516316        41.2610 
  49   0.0000       1.527839        41.5746 
  50   0.0000       1.583645        43.0932 
  51   0.0000       1.642153        44.6853 
  52   0.0000       1.669289        45.4237 
  53   0.0000       1.707556        46.4650 
  54   0.0000       1.784173        48.5498 
  55   0.0000       1.807675        49.1893 
  56   0.0000       1.823075        49.6084 
  57   0.0000       1.923900        52.3520 
  58   0.0000       1.956778        53.2466 
  59   0.0000       1.989136        54.1272 
  60   0.0000       2.136263        58.1307 
  61   0.0000       2.165374        58.9228 
  62   0.0000       2.178013        59.2667 
  63   0.0000       2.282082        62.0986 
  64   0.0000       2.286876        62.2291 
  65   0.0000       2.428962        66.0954 
  66   0.0000       2.468565        67.1731 
  67   0.0000       2.522529        68.6415 
  68   0.0000       2.578881        70.1749 
  69   0.0000       2.602035        70.8050 
  70   0.0000       2.630662        71.5840 
  71   0.0000       2.684124        73.0387 
  72   0.0000       2.702048        73.5265 
  73   0.0000       2.735634        74.4404 
  74   0.0000       2.763247        75.1918 
  75   0.0000       2.852956        77.6329 
  76   0.0000       2.875095        78.2353 
  77   0.0000       2.970092        80.8203 
  78   0.0000       2.996069        81.5272 
  79   0.0000       3.025659        82.3324 
  80   0.0000       3.063778        83.3696 
  81   0.0000       3.101062        84.3842 
  82   0.0000       3.149447        85.7008 
  83   0.0000       3.259278        88.6895 
  84   0.0000       3.319213        90.3204 
  85   0.0000       3.333427        90.7072 
  86   0.0000       3.396928        92.4351 
  87   0.0000       3.444644        93.7335 
  88   0.0000       3.587936        97.6327 
  89   0.0000       3.633164        98.8634 
  90   0.0000       3.679032       100.1115 
  91   0.0000       3.734730       101.6272 
  92   0.0000       3.876354       105.4809 
  93   0.0000       4.049917       110.2039 
  94   0.0000       4.113069       111.9223 
  95   0.0000       4.168875       113.4409 
  96   0.0000       4.264347       116.0388 
  97   0.0000       4.312837       117.3583 
  98   0.0000       4.360585       118.6576 
  99   0.0000       4.612866       125.5225 
 100   0.0000       4.791639       130.3871 
 101   0.0000       4.841350       131.7398 
 102   0.0000       5.354167       145.6943 
 103   0.0000       5.519846       150.2026 
 104   0.0000       5.794121       157.6660 
 105   0.0000       5.837306       158.8412 
 106   0.0000       5.872747       159.8056 
 107   0.0000       5.979364       162.7068 
 108   0.0000       6.127953       166.7501 
 109   0.0000       6.647361       180.8839 
 110   0.0000       6.690832       182.0668 
 111   0.0000       6.816948       185.4986 
 112   0.0000       6.986855       190.1220 
 113   0.0000       7.189824       195.6450 
 114   0.0000      22.388088       609.2108 
 115   0.0000      22.614333       615.3673 
 116   0.0000      43.901549      1194.6219 

                    ********************************
                    * MULLIKEN POPULATION ANALYSIS *
                    ********************************

-----------------------
MULLIKEN ATOMIC CHARGES
-----------------------
   0 O :   -0.304822
   1 C :   -0.066575
   2 C :   -0.073249
   3 H :    0.100049
   4 H :    0.116801
   5 H :    0.115648
   6 H :    0.112147
Sum of atomic charges:   -0.0000000

--------------------------------
MULLIKEN REDUCED ORBITAL CHARGES
--------------------------------
  0 O s       :     3.837937  s :     3.837937
      pz      :     1.824701  p :     4.416016
      px      :     1.294054
      py      :     1.297261
      dz2     :     0.006062  d :     0.048380
      dxz     :     0.003477
      dyz     :     0.007574
      dx2y2   :     0.013938
      dxy     :     0.017329
      f0      :     0.000308  f :     0.002489
      f+1     :     0.000240
      f-1     :     0.000495
      f+2     :     0.000083
      f-2     :     0.000269
      f+3     :     0.000370
      f-3     :     0.000723
  1 C s       :     3.217718  s :     3.217718
      pz      :     1.036651  p :     2.724114
      px      :     0.886283
      py      :     0.801181
      dz2     :     0.004964  d :     0.112262
      dxz     :     0.027760
      dyz     :     0.030122
      dx2y2   :     0.029668
      dxy     :     0.019747
      f0      :     0.001616  f :     0.012481
      f+1     :     0.001439
      f-1     :     0.000639
      f+2     :     0.001124
      f-2     :     0.002125
      f+3     :     0.002475
      f-3     :     0.003063
  2 C s       :     3.211399  s :     3.211399
      pz      :     1.057657  p :     2.735449
      px      :     0.893958
      py      :     0.783833
      dz2     :     0.005893  d :     0.113898
      dxz     :     0.025880
      dyz     :     0.031834
      dx2y2   :     0.031371
      dxy     :     0.018920
      f0      :     0.001801  f :     0.012503
      f+1     :     0.001467
      f-1     :     0.000606
      f+2     :     0.001343
      f-2     :     0.001860
      f+3     :     0.002284
      f-3     :     0.003142
  3 H s       :     0.880018  s :     0.880018
      pz      :     0.010676  p :     0.019934
      px      :     0.005727
      py      :     0.003531
  4 H s       :     0.861238  s :     0.861238
      pz      :     0.009777  p :     0.021960
      px      :     0.007592
      py      :     0.004591
  5 H s       :     0.860781  s :     0.860781
      pz      :     0.010834  p :     0.023571
      px      :     0.007495
      py      :     0.005242
  6 H s       :     0.865891  s :     0.865891
      pz      :     0.011435  p :     0.021961
      px      :     0.006302
      py      :     0.004225


                     *******************************
                     * LOEWDIN POPULATION ANALYSIS *
                     *******************************

----------------------
LOEWDIN ATOMIC CHARGES
----------------------
   0 O :    0.179030
   1 C :   -0.315188
   2 C :   -0.300729
   3 H :    0.122089
   4 H :    0.107888
   5 H :    0.093699
   6 H :    0.113211

-------------------------------
LOEWDIN REDUCED ORBITAL CHARGES
-------------------------------
  0 O s       :     3.328800  s :     3.328800
      pz      :     1.688401  p :     4.372469
      px      :     1.278872
      py      :     1.405196
      dz2     :     0.012136  d :     0.111263
      dxz     :     0.010852
      dyz     :     0.018309
      dx2y2   :     0.040184
      dxy     :     0.029783
      f0      :     0.000853  f :     0.008438
      f+1     :     0.000335
      f-1     :     0.000951
      f+2     :     0.000167
      f-2     :     0.001317
      f+3     :     0.001427
      f-3     :     0.003388
  1 C s       :     2.817542  s :     2.817542
      pz      :     1.051798  p :     2.929100
      px      :     1.009214
      py      :     0.868087
      dz2     :     0.051956  d :     0.490304
      dxz     :     0.137611
      dyz     :     0.091616
      dx2y2   :     0.106715
      dxy     :     0.102407
      f0      :     0.010507  f :     0.078242
      f+1     :     0.006250
      f-1     :     0.005581
      f+2     :     0.007047
      f-2     :     0.009980
      f+3     :     0.016871
      f-3     :     0.022006
  2 C s       :     2.802982  s :     2.802982
      pz      :     1.060115  p :     2.926589
      px      :     1.010056
      py      :     0.856418
      dz2     :     0.057127  d :     0.489564
      dxz     :     0.133355
      dyz     :     0.089391
      dx2y2   :     0.112212
      dxy     :     0.097479
      f0      :     0.011702  f :     0.081593
      f+1     :     0.006650
      f-1     :     0.006325
      f+2     :     0.009209
      f-2     :     0.008560
      f+3     :     0.015774
      f-3     :     0.023374
  3 H s       :     0.822785  s :     0.822785
      pz      :     0.030692  p :     0.055126
      px      :     0.014347
      py      :     0.010087
  4 H s       :     0.826167  s :     0.826167
      pz      :     0.031146  p :     0.065945
      px      :     0.020664
      py      :     0.014134
  5 H s       :     0.831026  s :     0.831026
      pz      :     0.036032  p :     0.075274
      px      :     0.022419
      py      :     0.016824
  6 H s       :     0.822566  s :     0.822566
      pz      :     0.034109  p :     0.064223
      px      :     0.017410
      py      :     0.012705


                      *****************************
                      * MAYER POPULATION ANALYSIS *
                      *****************************

  NA   - Mulliken gross atomic population
  ZA   - Total nuclear charge
  QA   - Mulliken gross atomic charge
  VA   - Mayer's total valence
  BVA  - Mayer's bonded valence
  FA   - Mayer's free valence

  ATOM       NA         ZA         QA         VA         BVA        FA
  0 O      8.3048     8.0000    -0.3048     1.9944     1.9944     0.0000
  1 C      6.0666     6.0000    -0.0666     3.9724     3.9724    -0.0000
  2 C      6.0732     6.0000    -0.0732     3.9802     3.9802    -0.0000
  3 H      0.9000     1.0000     0.1000     0.9625     0.9625    -0.0000
  4 H      0.8832     1.0000     0.1168     0.9555     0.9555    -0.0000
  5 H      0.8844     1.0000     0.1156     0.9628     0.9628    -0.0000
  6 H      0.8879     1.0000     0.1121     0.9668     0.9668    -0.0000

  Mayer bond orders larger than 0.100000
B(  0-O ,  1-C ) :   1.0053 B(  0-O ,  2-C ) :   0.9717 B(  1-C ,  2-C ) :   1.0586 
B(  1-C ,  3-H ) :   0.9510 B(  1-C ,  4-H ) :   0.9485 B(  2-C ,  5-H ) :   0.9654 
B(  2-C ,  6-H ) :   0.9662 

-------
TIMINGS
-------

Total SCF time: 0 days 0 hours 0 min 0 sec 

Total time                  ....       0.969 sec
Sum of individual times     ....       0.887 sec  ( 91.6%)

Fock matrix formation       ....       0.681 sec  ( 70.3%)
  Split-RI-J                ....       0.114 sec  ( 16.7% of F)
  Chain of spheres X        ....       0.504 sec  ( 73.9% of F)
  XC integration            ....       0.062 sec  (  9.0% of F)
    Basis function eval.    ....       0.017 sec  ( 28.0% of XC)
    Density eval.           ....       0.014 sec  ( 21.9% of XC)
    XC-Functional eval.     ....       0.004 sec  (  6.0% of XC)
    XC-Potential eval.      ....       0.020 sec  ( 32.9% of XC)
Diagonalization             ....       0.002 sec  (  0.2%)
Density matrix formation    ....       0.000 sec  (  0.0%)
Population analysis         ....       0.002 sec  (  0.2%)
Initial guess               ....       0.007 sec  (  0.8%)
Orbital Transformation      ....       0.000 sec  (  0.0%)
Orbital Orthonormalization  ....       0.001 sec  (  0.1%)
DIIS solution               ....       0.001 sec  (  0.1%)
SOSCF solution              ....       0.002 sec  (  0.2%)
Grid generation             ....       0.190 sec  ( 19.7%)

Maximum memory used throughout the entire SCF-calculation: 61.1 MB


           ************************************************************
           *        Program running with 8 parallel MPI-processes     *
           *              working on a common directory               *
           ************************************************************
------------------------------------------------------------------------------
                        ORCA TD-DFT/TDA CALCULATION
------------------------------------------------------------------------------

Input orbitals are from        ... ox_es1_A_orca0019.gbw
CI-vector output               ... ox_es1_A_orca0019.cis
Tamm-Dancoff approximation     ... operative
CIS-Integral strategy          ... AO-integrals
Integral handling              ... AO integral Direct
Max. core memory used          ... 3000 MB
Reference state                ... RHF
Generation of triplets         ... off
Follow IRoot                   ... off
Number of operators            ... 1
Orbital ranges used for CIS calculation:
 Operator 0:  Orbitals   3... 11  to  12...116
XAS localization array:
 Operator 0:  Orbitals  -1... -1

-------------------
XC-INTEGRATION GRID
-------------------

General Integration Accuracy     IntAcc      ... 3.467
Radial Grid Type                 RadialGrid  ... OptM3 with GC (2021)
Angular Grid (max. ang.)         AngularGrid ... 1 (Lebedev-50)
Angular grid pruning method      GridPruning ... 4 (adaptive)
Weight generation scheme         WeightScheme... Becke
Basis function cutoff            BFCut       ... 1.0000e-11
Integration weight cutoff        WCut        ... 1.0000e-14
Angular grids for H and He will be reduced by one unit
Partially contracted basis set               ... off
Rotationally invariant grid construction     ... off

Total number of grid points                  ...     4533
Total number of batches                      ...       75
Average number of points per batch           ...       60
Average number of grid points per atom       ...      648

---------------------
COSX-INTEGRATION GRID
---------------------

General Integration Accuracy     IntAcc      ... 3.067
Radial Grid Type                 RadialGrid  ... OptM3 with GC (2021)
Angular Grid (max. ang.)         AngularGrid ... 1 (Lebedev-50)
Angular grid pruning method      GridPruning ... 4 (adaptive)
Weight generation scheme         WeightScheme... Becke
Basis function cutoff            BFCut       ... 1.0000e-11
Integration weight cutoff        WCut        ... 1.0000e-14
Angular grids for H and He will be reduced by one unit
Partially contracted basis set               ... on
Rotationally invariant grid construction     ... off

Total number of grid points                  ...     2081
Total number of batches                      ...       37
Average number of points per batch           ...       56
Average number of grid points per atom       ...      297

---------------
TD-DFT XC SETUP
---------------

DFT calculation                         ... on
Name of the grid file                   ... ox_es1_A_orca0019.grid_cis.tmp
Exchange functional (TD-DFT)            ... PBE
   PBE kappa parameter  XKappa (TD-DFT) ...  0.804000
   PBE mue parameter   XMuePBE (TD-DFT) ...  0.219520
Correlation functional (TD-DFT)         ... PBE
   PBE beta parameter CBetaPBE (TD-DFT) ...  0.066725
 LDA part of GGA corr.  LDAOpt (TD-DFT) ... PW91-LDA
Hybrid DFT                              ... on
   Exchange mixing (TD-DFT)             ...  0.250
   GGA exch. scaling (TD-DFT)           ...  0.750
   GGA corr. scaling (TD-DFT)           ...  1.000

Building densities             ... done
Calculating rho(r) on the grid ... done
Building xc-kernel on the grid ... done
                    *** TD-DFT CALCULATION INITIALIZED ***

------------------------
DAVIDSON-DIAGONALIZATION
------------------------

Dimension of the eigenvalue problem            ...    945
Number of roots to be determined               ...      1
Maximum size of the expansion space            ...     10
Maximum number of iterations                   ...    100
Convergence tolerance for the residual         ...    2.500e-07
Convergence tolerance for the energies         ...    2.500e-07
Orthogonality tolerance                        ...    1.000e-14
Level Shift                                    ...    0.000e+00
Constructing the preconditioner                ... o.k.
Building the initial guess                     ... o.k.
Number of trial vectors determined             ...     10


                       ****Iteration    0****

   Memory handling for direct AO based CIS:
   Memory per vector needed      ...     1 MB
   Memory needed                 ...     1 MB
   Memory available              ...  3000 MB
   Number of vectors per batch   ...  3000
   Number of batches             ...     1
   Time for densities:            0.000
   Time for RI-J (Direct):        0.016
   Time for K (COSX):             0.054
   Time for XC-Integration:       0.016
   Time for Sigma-Completion:     0.000
   Size of expansion space: 3
   Lowest Energy          :     0.307931722939
   Maximum Energy change  :     0.307931722939 (vector 0)
   Maximum residual norm  :     0.000928431400

                       ****Iteration    1****
   Time for densities:            0.000
   Time for RI-J (Direct):        0.013
   Time for K (COSX):             0.048
   Time for XC-Integration:       0.006
   Time for Sigma-Completion:     0.000
   Size of expansion space: 4
   Lowest Energy          :     0.303332903996
   Maximum Energy change  :     0.004598818943 (vector 0)
   Maximum residual norm  :     0.000453817730

                       ****Iteration    2****
   Time for densities:            0.000
   Time for RI-J (Direct):        0.012
   Time for K (COSX):             0.048
   Time for XC-Integration:       0.006
   Time for Sigma-Completion:     0.000
   Size of expansion space: 5
   Lowest Energy          :     0.302673226814
   Maximum Energy change  :     0.000659677182 (vector 0)
   Maximum residual norm  :     0.000166740912

                       ****Iteration    3****
   Time for densities:            0.000
   Time for RI-J (Direct):        0.012
   Time for K (COSX):             0.048
   Time for XC-Integration:       0.006
   Time for Sigma-Completion:     0.000
   Size of expansion space: 6
   Lowest Energy          :     0.302466829480
   Maximum Energy change  :     0.000206397334 (vector 0)
   Maximum residual norm  :     0.000007217096

                       ****Iteration    4****
   Time for densities:            0.000
   Time for RI-J (Direct):        0.012
   Time for K (COSX):             0.048
   Time for XC-Integration:       0.006
   Time for Sigma-Completion:     0.000
   Size of expansion space: 7
   Lowest Energy          :     0.302458730681
   Maximum Energy change  :     0.000008098799 (vector 0)
   Maximum residual norm  :     0.000000547107

                       ****Iteration    5****
   Time for densities:            0.000
   Time for RI-J (Direct):        0.012
   Time for K (COSX):             0.048
   Time for XC-Integration:       0.006
   Time for Sigma-Completion:     0.000
   Size of expansion space: 8
   Lowest Energy          :     0.302458075788
   Maximum Energy change  :     0.000000654893 (vector 0)
   Maximum residual norm  :     0.000000062872

      *** CONVERGENCE OF RESIDUAL NORM REACHED ***

Storing the converged CI vectors               ... ox_es1_A_orca0019.cis1

                 *** DAVIDSON DONE ***

Total time for solving the CIS problem:     0.429sec

------------------------------------
TD-DFT/TDA EXCITED STATES (SINGLETS)
------------------------------------

the weight of the individual excitations are printed if larger than 1.0e-02

STATE  1:  E=   0.302458 au      8.230 eV    66381.9 cm**-1 <S**2> =   0.000000
    11a ->  13a  :     0.873563 (c= -0.93464593)
    11a ->  14a  :     0.020405 (c= -0.14284545)
    11a ->  16a  :     0.100293 (c= -0.31669020)


-----------------------------
TD-DFT/TDA-EXCITATION SPECTRA
-----------------------------

Center of mass = (  0.0575, -0.1322, -0.0280)
Calculating the Dipole integrals                  ... done
Transforming integrals                            ... done
Calculating the Linear Momentum integrals         ... done
Transforming integrals                            ... done
Calculating angular momentum integrals            ... done
Transforming integrals                            ... done

-----------------------------------------------------------------------------
         ABSORPTION SPECTRUM VIA TRANSITION ELECTRIC DIPOLE MOMENTS
-----------------------------------------------------------------------------
State   Energy    Wavelength  fosc         T2        TX        TY        TZ  
        (cm-1)      (nm)                 (au**2)    (au)      (au)      (au) 
-----------------------------------------------------------------------------
   1   66381.9    150.6   0.000704148   0.00349   0.03920  -0.00975   0.04313

-----------------------------------------------------------------------------
         ABSORPTION SPECTRUM VIA TRANSITION VELOCITY DIPOLE MOMENTS
-----------------------------------------------------------------------------
State   Energy    Wavelength   fosc        P2         PX        PY        PZ  
        (cm-1)      (nm)                 (au**2)     (au)      (au)      (au) 
-----------------------------------------------------------------------------
   1   66381.9    150.6   0.000182986   0.00008  -0.00880   0.00011  -0.00235

-------------------------------------------------------------------
                             CD SPECTRUM
-------------------------------------------------------------------
State  Energy     Wavelength     R         MX        MY        MZ   
       (cm-1)       (nm)     (1e40*cgs)   (au)      (au)      (au)  
-------------------------------------------------------------------
   1   66381.9    150.6     -2.09749  -0.05692   0.19318  -0.00775

-------------------------------------------------------------------
         CD SPECTRUM VIA TRANSITION VELOCITY DIPOLE MOMENTS        
-------------------------------------------------------------------
State  Energy     Wavelength     R         MX        MY        MZ   
       (cm-1)       (nm)     (1e40*cgs)   (au)      (au)      (au)  
-------------------------------------------------------------------
   1   66381.9    150.6      0.84329  -0.05692   0.19318  -0.00775

Total run time:        0.688 sec

           *** ORCA-CIS/TD-DFT FINISHED WITHOUT ERROR ***

Maximum memory used throughout the entire CIS-calculation: 49.4 MB

-----------------------
CIS/TD-DFT TOTAL ENERGY
-----------------------

    E(SCF)  =   -153.662868316 Eh
    DE(CIS) =      0.302458076 Eh (Root  1)
    ----------------------------- ---------
    E(tot)  =   -153.360410241 Eh



-------------------------------------------------------------------------------
                          DFT DISPERSION CORRECTION                            
                                                                               
                              DFTD3 V3.1  Rev 1                                
                          USING Becke-Johnson damping                          
-------------------------------------------------------------------------------
The PBE0 functional is recognized
Active option DFTDOPT                   ...         4   

molecular C6(AA) [au] = 350.713845 


            DFT-D V3
 parameters
 s6 scaling factor         :     1.0000 
 a1 scaling factor         :     0.4145 
 s8 scaling factor         :     1.2177 
 a2 scaling factor         :     4.8593 
 ad hoc parameters k1-k3   :    16.0000     1.3333    -4.0000 

 Edisp/kcal,au: -1.509872638402  -0.002406134951 
 E6   /kcal   :  -0.990165241 
 E8   /kcal   :  -0.519707397 
 % E8         :  34.420611656 

-------------------------   ----------------
Dispersion correction           -0.002406135
-------------------------   ----------------


-------------------------   --------------------
FINAL SINGLE POINT ENERGY      -153.362816375633
-------------------------   --------------------



           ************************************************************
           *        Program running with 8 parallel MPI-processes     *
           *              working on a common directory               *
           ************************************************************
------------------------------------------------------------------------------
                         ORCA SCF GRADIENT CALCULATION
------------------------------------------------------------------------------


------------------------
TD-DFT GRADIENT XC SETUP
------------------------

Building densities                     ... done
Calculating rho(r) on the grid         ... done
Building xc-kernel on the grid         ... done
Building xc 3rd derivative on the grid      ... done
                *** TD-DFT GRADIENT CALCULATION INITIALIZED ***

-------------------
TD-DFT/TDA GRADIENT
-------------------

Reference wavefunction             ... RHF
State of interest                  ... 1
Basis dimension                    ... 117
DFT-XC contribution needed         ... YES
RI-approximation                   ... ON
CIS-vectors being read from        ... ox_es1_A_orca0019.cis

 => Number of Vectors found: 1
 => Orbital Window: 3...11 -> 12...116

Reading the CIS file                     ... done
Norm of the CI vector                    ... 1.000000000
Making the CIS (pseudo)densities         ... done
Making operators G(D) and Q(T)           ... done
Transforming the Fock operators          ... done
Making the frozen-core relaxed density   ... done
Constructing the G(H) operator           ... done
Transforming the G(H) operator           ... done
Calculating the CIS Lagrangian           ... done
Solving the Z-vector equations           ... done
Finalizing the relaxed density           ... done
Storing the relaxed density              ... done
Constructing the G(Z) operator           ... done
Transforming the G(Z) operator           ... done
Making the W-matrix                      ... done
Finalizing the W-matrix                  ... done
Transforming the W-matrix                ... done
Nuclear repulsion gradient               ... done
One-Electron gradient                    ... done
Dispersion correction                    ... done
Prescreening matrices                    ... done
COSX-gradient                            ... done
Coulomb gradient (RI)                    ... done
Exchange-Correlation gradient            ... done

                 ---------------------------
                 EXCITED STATE GRADIENT DONE
                 ---------------------------

------------------
CARTESIAN GRADIENT
------------------

   1   O   :    0.016719519   -0.072084617    0.007655248
   2   C   :    0.093214190    0.047199656   -0.040863224
   3   C   :   -0.048164282    0.051221199   -0.047280474
   4   H   :   -0.005779644   -0.014235600    0.021149556
   5   H   :    0.009732412   -0.012518033    0.015559124
   6   H   :   -0.045418123    0.004780923    0.058894858
   7   H   :   -0.020294872   -0.004394498   -0.015109230

Difference to translation invariance:
           :    0.0000091994   -0.0000309680    0.0000058572

Difference to rotation invariance:
           :   -0.0003926627    0.0000201556    0.0000529779

Norm of the cartesian gradient     ...    0.1808045987
RMS gradient                       ...    0.0394547981
MAX gradient                       ...    0.0932141897

------------------------------------------------------------------------------
                  RELAXED CIS/TDA DENSITY POPULATION ANALYSIS
                                   IROOT 1
------------------------------------------------------------------------------
------------------------------------------------------------------------------
                           ORCA POPULATION ANALYSIS
------------------------------------------------------------------------------
Input electron density              ... ox_es1_A_orca0019.cisp
BaseName (.gbw .S,...)              ... ox_es1_A_orca0019

                    ********************************
                    * MULLIKEN POPULATION ANALYSIS *
                    ********************************

-----------------------
MULLIKEN ATOMIC CHARGES
-----------------------
   0 O :    0.084614
   1 C :   -0.319961
   2 C :   -0.224539
   3 H :    0.154693
   4 H :    0.156078
   5 H :    0.087617
   6 H :    0.061499
Sum of atomic charges:   -0.0000000

--------------------------------
MULLIKEN REDUCED ORBITAL CHARGES
--------------------------------
  0 O s       :     3.856078  s :     3.856078
      pz      :     1.146811  p :     4.008136
      px      :     1.470638
      py      :     1.390687
      dz2     :     0.005503  d :     0.049113
      dxz     :     0.004138
      dyz     :     0.008792
      dx2y2   :     0.014849
      dxy     :     0.015832
      f0      :     0.000182  f :     0.002059
      f+1     :     0.000016
      f-1     :     0.000272
      f+2     :     0.000103
      f-2     :     0.000307
      f+3     :     0.000414
      f-3     :     0.000765
  1 C s       :     3.120441  s :     3.120441
      pz      :     1.052792  p :     3.114885
      px      :     1.150312
      py      :     0.911780
      dz2     :     0.001600  d :     0.073571
      dxz     :     0.016811
      dyz     :     0.007389
      dx2y2   :     0.023046
      dxy     :     0.024726
      f0      :     0.001085  f :     0.011064
      f+1     :     0.001448
      f-1     :     0.000580
      f+2     :     0.000825
      f-2     :     0.001624
      f+3     :     0.002731
      f-3     :     0.002772
  2 C s       :     3.021287  s :     3.021287
      pz      :     1.069424  p :     3.111617
      px      :     1.069061
      py      :     0.973132
      dz2     :     0.009635  d :     0.080746
      dxz     :     0.016131
      dyz     :     0.007711
      dx2y2   :     0.025923
      dxy     :     0.021345
      f0      :     0.001174  f :     0.010890
      f+1     :     0.001545
      f-1     :     0.000616
      f+2     :     0.000941
      f-2     :     0.001299
      f+3     :     0.002544
      f-3     :     0.002772
  3 H s       :     0.821350  s :     0.821350
      pz      :     0.010471  p :     0.023958
      px      :     0.008446
      py      :     0.005041
  4 H s       :     0.816513  s :     0.816513
      pz      :     0.009532  p :     0.027408
      px      :     0.011256
      py      :     0.006620
  5 H s       :     0.882530  s :     0.882530
      pz      :     0.011449  p :     0.029854
      px      :     0.010739
      py      :     0.007666
  6 H s       :     0.910235  s :     0.910235
      pz      :     0.012146  p :     0.028267
      px      :     0.009759
      py      :     0.006362


                     *******************************
                     * LOEWDIN POPULATION ANALYSIS *
                     *******************************

----------------------
LOEWDIN ATOMIC CHARGES
----------------------
   0 O :    0.495616
   1 C :   -0.467460
   2 C :   -0.503557
   3 H :    0.155518
   4 H :    0.127522
   5 H :    0.089660
   6 H :    0.102703

-------------------------------
LOEWDIN REDUCED ORBITAL CHARGES
-------------------------------
  0 O s       :     3.349763  s :     3.349763
      pz      :     1.076773  p :     4.030679
      px      :     1.471292
      py      :     1.482615
      dz2     :     0.010823  d :     0.115917
      dxz     :     0.012662
      dyz     :     0.018197
      dx2y2   :     0.044190
      dxy     :     0.030046
      f0      :     0.000859  f :     0.008025
      f+1     :     0.000156
      f-1     :     0.000663
      f+2     :     0.000164
      f-2     :     0.001458
      f+3     :     0.001224
      f-3     :     0.003501
  1 C s       :     2.819766  s :     2.819766
      pz      :     1.028192  p :     3.058632
      px      :     1.085127
      py      :     0.945312
      dz2     :     0.056739  d :     0.511264
      dxz     :     0.111867
      dyz     :     0.036727
      dx2y2   :     0.169949
      dxy     :     0.135982
      f0      :     0.007942  f :     0.077799
      f+1     :     0.007137
      f-1     :     0.006530
      f+2     :     0.004901
      f-2     :     0.007506
      f+3     :     0.020920
      f-3     :     0.022862
  2 C s       :     2.820343  s :     2.820343
      pz      :     1.039667  p :     3.068263
      px      :     1.053785
      py      :     0.974811
      dz2     :     0.060710  d :     0.533702
      dxz     :     0.109884
      dyz     :     0.037057
      dx2y2   :     0.203054
      dxy     :     0.122998
      f0      :     0.008792  f :     0.081249
      f+1     :     0.007940
      f-1     :     0.007413
      f+2     :     0.005760
      f-2     :     0.006001
      f+3     :     0.021357
      f-3     :     0.023987
  3 H s       :     0.779570  s :     0.779570
      pz      :     0.029964  p :     0.064913
      px      :     0.020055
      py      :     0.014893
  4 H s       :     0.793385  s :     0.793385
      pz      :     0.030620  p :     0.079093
      px      :     0.028129
      py      :     0.020344
  5 H s       :     0.819755  s :     0.819755
      pz      :     0.038129  p :     0.090586
      px      :     0.029003
      py      :     0.023454
  6 H s       :     0.817076  s :     0.817076
      pz      :     0.036558  p :     0.080221
      px      :     0.025156
      py      :     0.018507


                      *****************************
                      * MAYER POPULATION ANALYSIS *
                      *****************************

  NA   - Mulliken gross atomic population
  ZA   - Total nuclear charge
  QA   - Mulliken gross atomic charge
  VA   - Mayer's total valence
  BVA  - Mayer's bonded valence
  FA   - Mayer's free valence

  ATOM       NA         ZA         QA         VA         BVA        FA
  0 O      7.9154     8.0000     0.0846     2.2396     1.5337     0.7060
  1 C      6.3200     6.0000    -0.3200     3.3374     2.9367     0.4007
  2 C      6.2245     6.0000    -0.2245     3.1435     2.7592     0.3843
  3 H      0.8453     1.0000     0.1547     1.0125     0.9429     0.0696
  4 H      0.8439     1.0000     0.1561     1.0301     0.9644     0.0657
  5 H      0.9124     1.0000     0.0876     1.1148     1.0004     0.1144
  6 H      0.9385     1.0000     0.0615     1.1326     0.9866     0.1460

  Mayer bond orders larger than 0.100000
B(  0-O ,  1-C ) :   0.7894 B(  0-O ,  2-C ) :   0.7456 B(  1-C ,  2-C ) :   0.1830 
B(  1-C ,  3-H ) :   0.9078 B(  1-C ,  4-H ) :   0.9258 B(  2-C ,  5-H ) :   0.9160 
B(  2-C ,  6-H ) :   0.8796 


-------
TIMINGS
-------

Total TD-DFT gradient time         ...        5.045 sec

Fock matrix formation       ....       0.825 sec  ( 16.4%)
  Coulomb formation         ....       0.667 sec  ( 80.8% of F)
  RI-J                      ....       0.287 sec  ( 34.8% of F)
  Chain of spheres X        ....       0.379 sec  ( 46.0% of F)
  XC integration            ....       0.159 sec  ( 19.2% of F)
Z-vector equation           ....       1.381 sec  ( 27.4%)
One electron gradient       ....       0.032 sec  (  0.6%)
Prescreening matrices       ....       0.156 sec  (  3.1%)
RI-J Coulomb gradient       ....       0.245 sec  (  4.9%)
COSX gradient               ....       0.342 sec  (  6.8%)
XC gradient                 ....       1.755 sec  ( 34.8%)

Maximum memory used throughout the entire SCFGRAD-calculation: 130.3 MB

                            ***************************************
                            *     ORCA property calculations      *
                            ***************************************

                                    ---------------------
                                    Active property flags
                                    ---------------------
   (+) Dipole Moment


------------------------------------------------------------------------------
                       ORCA ELECTRIC PROPERTIES CALCULATION
------------------------------------------------------------------------------

Dipole Moment Calculation                       ... on
Quadrupole Moment Calculation                   ... off
Polarizability Calculation                      ... off
GBWName                                         ... ox_es1_A_orca0019.gbw
Electron density                                ... ox_es1_A_orca0019.scfp
The origin for moment calculation is the CENTER OF MASS  = ( 0.057454, -0.132159 -0.028030)

-------------
DIPOLE MOMENT
-------------
                                X             Y             Z
Electronic contribution:      0.14209       1.63425      -0.24282
Nuclear contribution   :     -0.13973      -2.26180       0.22468
                        -----------------------------------------
Total Dipole Moment    :      0.00236      -0.62755      -0.01813
                        -----------------------------------------
Magnitude (a.u.)       :      0.62781
Magnitude (Debye)      :      1.59578



--------------------
Rotational spectrum 
--------------------
 
Rotational constants in cm-1:     0.946521     0.726143     0.488036 
Rotational constants in MHz : 28375.981771 21769.206255 14630.949934 

 Dipole components along the rotational axes: 
x,y,z [a.u.] :    -0.022380    -0.626839    -0.026899 
x,y,z [Debye]:    -0.056886    -1.593297    -0.068372 

 

                        *** CIS RELAXED DENSITY ***

------------------------------------------------------------------------------
                       ORCA ELECTRIC PROPERTIES CALCULATION
------------------------------------------------------------------------------

Dipole Moment Calculation                       ... on
Quadrupole Moment Calculation                   ... off
Polarizability Calculation                      ... off
GBWName                                         ... ox_es1_A_orca0019.gbw
Electron density                                ... ox_es1_A_orca0019.cisp
The origin for moment calculation is the CENTER OF MASS  = ( 0.057454, -0.132159 -0.028030)

-------------
DIPOLE MOMENT
-------------
                                X             Y             Z
Electronic contribution:     -0.13550       2.08221      -0.24008
Nuclear contribution   :     -0.13973      -2.26180       0.22468
                        -----------------------------------------
Total Dipole Moment    :     -0.27523      -0.17959      -0.01539
                        -----------------------------------------
Magnitude (a.u.)       :      0.32900
Magnitude (Debye)      :      0.83625



--------------------
Rotational spectrum 
--------------------
 
Rotational constants in cm-1:     0.946521     0.726143     0.488036 
Rotational constants in MHz : 28375.981771 21769.206255 14630.949934 

 Dipole components along the rotational axes: 
x,y,z [a.u.] :    -0.282170    -0.168468    -0.015473 
x,y,z [Debye]:    -0.717218    -0.428211    -0.039329 

 

Timings for individual modules:

Sum of individual times         ...        7.617 sec (=   0.127 min)
GTO integral calculation        ...        0.314 sec (=   0.005 min)   4.1 %
SCF iterations                  ...        1.158 sec (=   0.019 min)  15.2 %
CIS module                      ...        0.915 sec (=   0.015 min)  12.0 %
SCF Gradient evaluation         ...        5.231 sec (=   0.087 min)  68.7 %
                             ****ORCA TERMINATED NORMALLY****
TOTAL RUN TIME: 0 days 0 hours 0 minutes 7 seconds 982 msec
