
                                 *****************
                                 * O   R   C   A *
                                 *****************

                                            #,                                       
                                            ###                                      
                                            ####                                     
                                            #####                                    
                                            ######                                   
                                           ########,                                 
                                     ,,################,,,,,                         
                               ,,#################################,,                 
                          ,,##########################################,,             
                       ,#########################################, ''#####,          
                    ,#############################################,,   '####,        
                  ,##################################################,,,,####,       
                ,###########''''           ''''###############################       
              ,#####''   ,,,,##########,,,,          '''####'''          '####       
            ,##' ,,,,###########################,,,                        '##       
           ' ,,###''''                  '''############,,,                           
         ,,##''                                '''############,,,,        ,,,,,,###''
      ,#''                                            '''#######################'''  
     '                                                          ''''####''''         
             ,#######,   #######,   ,#######,      ##                                
            ,#'     '#,  ##    ##  ,#'     '#,    #''#        ######   ,####,        
            ##       ##  ##   ,#'  ##            #'  '#       #        #'  '#        
            ##       ##  #######   ##           ,######,      #####,   #    #        
            '#,     ,#'  ##    ##  '#,     ,#' ,#      #,         ##   #,  ,#        
             '#######'   ##     ##  '#######'  #'      '#     #####' # '####'        



                  #######################################################
                  #                        -***-                        #
                  #          Department of theory and spectroscopy      #
                  #    Directorship and core code : Frank Neese         #
                  #        Max Planck Institute fuer Kohlenforschung    #
                  #                Kaiser Wilhelm Platz 1               #
                  #                 D-45470 Muelheim/Ruhr               #
                  #                      Germany                        #
                  #                                                     #
                  #                  All rights reserved                #
                  #                        -***-                        #
                  #######################################################


                         Program Version 5.0.2 -  RELEASE  -


 With contributions from (in alphabetic order):
   Daniel Aravena         : Magnetic Suceptibility
   Michael Atanasov       : Ab Initio Ligand Field Theory (pilot matlab implementation)
   Alexander A. Auer      : GIAO ZORA, VPT2 properties, NMR spectrum
   Ute Becker             : Parallelization
   Giovanni Bistoni       : ED, misc. LED, open-shell LED, HFLD
   Martin Brehm           : Molecular dynamics
   Dmytro Bykov           : SCF Hessian
   Vijay G. Chilkuri      : MRCI spin determinant printing, contributions to CSF-ICE
   Dipayan Datta          : RHF DLPNO-CCSD density
   Achintya Kumar Dutta   : EOM-CC, STEOM-CC
   Dmitry Ganyushin       : Spin-Orbit,Spin-Spin,Magnetic field MRCI
   Miquel Garcia          : C-PCM and meta-GGA Hessian, CC/C-PCM, Gaussian charge scheme
   Yang Guo               : DLPNO-NEVPT2, F12-NEVPT2, CIM, IAO-localization
   Andreas Hansen         : Spin unrestricted coupled pair/coupled cluster methods
   Benjamin Helmich-Paris : MC-RPA, TRAH-SCF, COSX integrals
   Lee Huntington         : MR-EOM, pCC
   Robert Izsak           : Overlap fitted RIJCOSX, COSX-SCS-MP3, EOM
   Marcus Kettner         : VPT2
   Christian Kollmar      : KDIIS, OOCD, Brueckner-CCSD(T), CCSD density, CASPT2, CASPT2-K
   Simone Kossmann        : Meta GGA functionals, TD-DFT gradient, OOMP2, MP2 Hessian
   Martin Krupicka        : Initial AUTO-CI
   Lucas Lang             : DCDCAS
   Marvin Lechner         : AUTO-CI (C++ implementation), FIC-MRCC
   Dagmar Lenk            : GEPOL surface, SMD
   Dimitrios Liakos       : Extrapolation schemes; Compound Job, initial MDCI parallelization
   Dimitrios Manganas     : Further ROCIS development; embedding schemes
   Dimitrios Pantazis     : SARC Basis sets
   Anastasios Papadopoulos: AUTO-CI, single reference methods and gradients
   Taras Petrenko         : DFT Hessian,TD-DFT gradient, ASA, ECA, R-Raman, ABS, FL, XAS/XES, NRVS
   Peter Pinski           : DLPNO-MP2, DLPNO-MP2 Gradient
   Christoph Reimann      : Effective Core Potentials
   Marius Retegan         : Local ZFS, SOC
   Christoph Riplinger    : Optimizer, TS searches, QM/MM, DLPNO-CCSD(T), (RO)-DLPNO pert. Triples
   Tobias Risthaus        : Range-separated hybrids, TD-DFT gradient, RPA, STAB
   Michael Roemelt        : Original ROCIS implementation
   Masaaki Saitow         : Open-shell DLPNO-CCSD energy and density
   Barbara Sandhoefer     : DKH picture change effects
   Avijit Sen             : IP-ROCIS
   Kantharuban Sivalingam : CASSCF convergence, NEVPT2, FIC-MRCI
   Bernardo de Souza      : ESD, SOC TD-DFT
   Georgi Stoychev        : AutoAux, RI-MP2 NMR, DLPNO-MP2 response
   Willem Van den Heuvel  : Paramagnetic NMR
   Boris Wezisla          : Elementary symmetry handling
   Frank Wennmohs         : Technical directorship


 We gratefully acknowledge several colleagues who have allowed us to
 interface, adapt or use parts of their codes:
   Stefan Grimme, W. Hujo, H. Kruse, P. Pracht,  : VdW corrections, initial TS optimization,
                  C. Bannwarth, S. Ehlert          DFT functionals, gCP, sTDA/sTD-DF
   Ed Valeev, F. Pavosevic, A. Kumar             : LibInt (2-el integral package), F12 methods
   Garnet Chan, S. Sharma, J. Yang, R. Olivares  : DMRG
   Ulf Ekstrom                                   : XCFun DFT Library
   Mihaly Kallay                                 : mrcc  (arbitrary order and MRCC methods)
   Jiri Pittner, Ondrej Demel                    : Mk-CCSD
   Frank Weinhold                                : gennbo (NPA and NBO analysis)
   Christopher J. Cramer and Donald G. Truhlar   : smd solvation model
   Lars Goerigk                                  : TD-DFT with DH, B97 family of functionals
   V. Asgeirsson, H. Jonsson                     : NEB implementation
   FAccTs GmbH                                   : IRC, NEB, NEB-TS, DLPNO-Multilevel, CI-OPT
                                                   MM, QMMM, 2- and 3-layer-ONIOM, Crystal-QMMM,
                                                   LR-CPCM, SF, NACMEs, symmetry and pop. for TD-DFT,
                                                   nearIR, NL-DFT gradient (VV10), updates on ESD,
                                                   ML-optimized integration grids
   S Lehtola, MJT Oliveira, MAL Marques          : LibXC Library
   Liviu Ungur et al                             : ANISO software


 Your calculation uses the libint2 library for the computation of 2-el integrals
 For citations please refer to: http://libint.valeyev.net

 Your ORCA version has been built with support for libXC version: 5.1.0
 For citations please refer to: https://tddft.org/programs/libxc/

 This ORCA versions uses:
   CBLAS   interface :  Fast vector & matrix operations
   LAPACKE interface :  Fast linear algebra routines
   SCALAPACK package :  Parallel linear algebra routines
   Shared memory     :  Shared parallel matrices
   BLAS/LAPACK       :  OpenBLAS 0.3.15  USE64BITINT DYNAMIC_ARCH NO_AFFINITY SkylakeX SINGLE_THREADED
        Core in use  :  SkylakeX
   Copyright (c) 2011-2014, The OpenBLAS Project


Your calculation utilizes the atom-pairwise dispersion correction
with the Becke-Johnson damping scheme (D3BJ)
Cite in your paper:
S.Grimme, S.Ehrlich, L.Goerigk, J Comput Chem, (2011), 32, 1456–1465 
S.Grimme, J.Antony, S.Ehrlich and H.Krieg, J.Chem.Phys., 132, (2010), 154104 
   

================================================================================

----- Orbital basis set information -----
Your calculation utilizes the basis: def2-TZVP
   F. Weigend and R. Ahlrichs, Phys. Chem. Chem. Phys. 7, 3297 (2005).

----- AuxJ basis set information -----
Your calculation utilizes the auxiliary basis: def2/J
   F. Weigend, Phys. Chem. Chem. Phys. 8, 1057 (2006).

================================================================================
                                        WARNINGS
                       Please study these warnings very carefully!
================================================================================

INFO   : Checking CIS options ...

WARNING: CIS/ROCIS methods need fully converged wavefunctions
  ===> : Setting SCFConvForced true
         You can overwrite this default with %scf ConvForced false 


INFO   : the flag for use of the SHARK integral package has been found!

================================================================================
                                       INPUT FILE
================================================================================
NAME = ox_es1_A_orca0030.inp
|  1> ! engrad PBE0 D3BJ def2-TZVP  
|  2> %pal nprocs 8 end
|  3> %maxcore 3000
|  4> 
|  5> %tddft
|  6>   nroots 1
|  7>   tda true
|  8>   Iroot 1
|  9>   end 
| 10> *xyz 0 1 
| 11> O   -0.08462318148574097 0.8434018259730307 -0.007900284928949472
| 12> C   -0.750233643497371 -0.4976257087630084 -0.08274283359328848
| 13> C   0.7700480691980957 -0.4433545916405798 -0.0644980449870527
| 14> H   -1.3285768686031807 -0.6850600449645065 1.0034272962644697
| 15> H   -1.2768023375681803 -0.7434280576559054 -0.9322633732042972
| 16> H   1.2501866415126164 -0.8031151921470786 -0.9226909633258906
| 17> H   1.2522761434895662 -0.6334604917593291 1.0124239747472672
| 18> *
| 19> 
| 20>                          ****END OF INPUT****
================================================================================

                     *******************************
                     * Energy+Gradient Calculation *
                     *******************************

---------------------------------
CARTESIAN COORDINATES (ANGSTROEM)
---------------------------------
  O     -0.084623    0.843402   -0.007900
  C     -0.750234   -0.497626   -0.082743
  C      0.770048   -0.443355   -0.064498
  H     -1.328577   -0.685060    1.003427
  H     -1.276802   -0.743428   -0.932263
  H      1.250187   -0.803115   -0.922691
  H      1.252276   -0.633460    1.012424

----------------------------
CARTESIAN COORDINATES (A.U.)
----------------------------
  NO LB      ZA    FRAG     MASS         X           Y           Z
   0 O     8.0000    0    15.999   -0.159915    1.593798   -0.014929
   1 C     6.0000    0    12.011   -1.417736   -0.940376   -0.156361
   2 C     6.0000    0    12.011    1.455180   -0.837819   -0.121884
   3 H     1.0000    0     1.008   -2.510646   -1.294576    1.896203
   4 H     1.0000    0     1.008   -2.412807   -1.404875   -1.761722
   5 H     1.0000    0     1.008    2.362510   -1.517668   -1.743633
   6 H     1.0000    0     1.008    2.366459   -1.197067    1.913204

--------------------------------
INTERNAL COORDINATES (ANGSTROEM)
--------------------------------
 O      0   0   0     0.000000000000     0.00000000     0.00000000
 C      1   0   0     1.498997512723     0.00000000     0.00000000
 C      2   1   0     1.521359494801    61.56022788     0.00000000
 H      2   1   3     1.244740160599   107.30493920   112.22540843
 H      2   1   3     1.029261158073   118.81776631   247.07520054
 H      3   2   1     1.047117865089   115.85682038   243.55610511
 H      3   2   1     1.195175805262   114.09963561    98.06476707

---------------------------
INTERNAL COORDINATES (A.U.)
---------------------------
 O      0   0   0     0.000000000000     0.00000000     0.00000000
 C      1   0   0     2.832694774476     0.00000000     0.00000000
 C      2   1   0     2.874952796415    61.56022788     0.00000000
 H      2   1   3     2.352218011425   107.30493920   112.22540843
 H      2   1   3     1.945021709041   118.81776631   247.07520054
 H      3   2   1     1.978765994954   115.85682038   243.55610511
 H      3   2   1     2.258554953834   114.09963561    98.06476707

---------------------
BASIS SET INFORMATION
---------------------
There are 3 groups of distinct atoms

 Group   1 Type O   : 11s6p2d1f contracted to 5s3p2d1f pattern {62111/411/11/1}
 Group   2 Type C   : 11s6p2d1f contracted to 5s3p2d1f pattern {62111/411/11/1}
 Group   3 Type H   : 5s1p contracted to 3s1p pattern {311/1}

Atom   0O    basis set group =>   1
Atom   1C    basis set group =>   2
Atom   2C    basis set group =>   2
Atom   3H    basis set group =>   3
Atom   4H    basis set group =>   3
Atom   5H    basis set group =>   3
Atom   6H    basis set group =>   3
---------------------------------
AUXILIARY/J BASIS SET INFORMATION
---------------------------------
There are 3 groups of distinct atoms

 Group   1 Type O   : 12s5p4d2f1g contracted to 6s4p3d1f1g pattern {711111/2111/211/2/1}
 Group   2 Type C   : 12s5p4d2f1g contracted to 6s4p3d1f1g pattern {711111/2111/211/2/1}
 Group   3 Type H   : 5s2p1d contracted to 3s1p1d pattern {311/2/1}

Atom   0O    basis set group =>   1
Atom   1C    basis set group =>   2
Atom   2C    basis set group =>   2
Atom   3H    basis set group =>   3
Atom   4H    basis set group =>   3
Atom   5H    basis set group =>   3
Atom   6H    basis set group =>   3

Checking for AutoStart:
The File: ox_es1_A_orca0030.gbw exists
Trying to determine its content:
     ... Fine, the file contains calculation information
     ... Fine, the calculation information was read
     ... Fine, the file contains a basis set
     ... Fine, the basis set was read
     ... Fine, the file contains a geometry
     ... Fine, the geometry was read
     ... Fine, the file contains a set of orbitals
     ... Fine, the orbitals can be read
     => possible old guess file was deleted
     => GBW file was renamed to GES file
     => GES file is set as startup file
     => Guess is set to MORead
     ... now leaving AutoStart



           ************************************************************
           *        Program running with 8 parallel MPI-processes     *
           *              working on a common directory               *
           ************************************************************
------------------------------------------------------------------------------
                           ORCA GTO INTEGRAL CALCULATION
                           -- RI-GTO INTEGRALS CHOSEN --
------------------------------------------------------------------------------
------------------------------------------------------------------------------
                   ___                                                        
                  /   \      - P O W E R E D   B Y -                         
                 /     \                                                     
                 |  |  |   _    _      __       _____    __    __             
                 |  |  |  | |  | |    /  \     |  _  \  |  |  /  |          
                  \  \/   | |  | |   /    \    | | | |  |  | /  /          
                 / \  \   | |__| |  /  /\  \   | |_| |  |  |/  /          
                |  |  |   |  __  | /  /__\  \  |    /   |      \           
                |  |  |   | |  | | |   __   |  |    \   |  |\   \          
                \     /   | |  | | |  |  |  |  | |\  \  |  | \   \       
                 \___/    |_|  |_| |__|  |__|  |_| \__\ |__|  \__/        
                                                                              
                      - O R C A' S   B I G   F R I E N D -                    
                                      &                                       
                       - I N T E G R A L  F E E D E R -                       
                                                                              
 v1 FN, 2020, v2 2021                                                         
------------------------------------------------------------------------------


Reading SHARK input file ox_es1_A_orca0030.SHARKINP.tmp ... ok
----------------------
SHARK INTEGRAL PACKAGE
----------------------

Number of atoms                             ...      7
Number of basis functions                   ...    117
Number of shells                            ...     49
Maximum angular momentum                    ...      3
Integral batch strategy                     ... SHARK/LIBINT Hybrid
RI-J (if used) integral strategy            ... SPLIT-RIJ (Revised 2003 algorithm where possible)
Printlevel                                  ...      1
Contraction scheme used                     ... SEGMENTED contraction
Coulomb Range Separation                    ... NOT USED
Exchange Range Separation                   ... NOT USED
Finite Nucleus Model                        ... NOT USED
Auxiliary Coulomb fitting basis             ... AVAILABLE
   # of basis functions in Aux-J            ...    191
   # of shells in Aux-J                     ...     65
   Maximum angular momentum in Aux-J        ...      4
Auxiliary J/K fitting basis                 ... NOT available
Auxiliary Correlation fitting basis         ... NOT available
Auxiliary 'external' fitting basis          ... NOT available
Integral threshold                          ...     2.500000e-11
Primitive cut-off                           ...     2.500000e-12
Primitive pair pre-selection threshold      ...     2.500000e-12

Calculating pre-screening integrals         ... done (  0.1 sec) Dimension = 49
Organizing shell pair data                  ... done (  0.0 sec)
Shell pair information
Total number of shell pairs                 ...      1225
Shell pairs after pre-screening             ...      1220
Total number of primitive shell pairs       ...      3648
Primitive shell pairs kept                  ...      3135
          la=0 lb=0:    373 shell pairs
          la=1 lb=0:    351 shell pairs
          la=1 lb=1:     91 shell pairs
          la=2 lb=0:    162 shell pairs
          la=2 lb=1:     78 shell pairs
          la=2 lb=2:     21 shell pairs
          la=3 lb=0:     81 shell pairs
          la=3 lb=1:     39 shell pairs
          la=3 lb=2:     18 shell pairs
          la=3 lb=3:      6 shell pairs

Calculating one electron integrals          ... done (  0.0 sec)
Calculating RI/J V-Matrix + Cholesky decomp.... done (  0.0 sec)
Calculating Nuclear repulsion               ... done (  0.0 sec) ENN=     71.677923160585 Eh

SHARK setup successfully completed in   0.3 seconds

Maximum memory used throughout the entire GTOINT-calculation: 14.9 MB


           ************************************************************
           *        Program running with 8 parallel MPI-processes     *
           *              working on a common directory               *
           ************************************************************
-------------------------------------------------------------------------------
                                 ORCA SCF
-------------------------------------------------------------------------------

------------
SCF SETTINGS
------------
Hamiltonian:
 Density Functional     Method          .... DFT(GTOs)
 Exchange Functional    Exchange        .... PBE
   PBE kappa parameter   XKappa         ....  0.804000
   PBE mue parameter    XMuePBE         ....  0.219520
 Correlation Functional Correlation     .... PBE
   PBE beta parameter  CBetaPBE         ....  0.066725
 LDA part of GGA corr.  LDAOpt          .... PW91-LDA
 Gradients option       PostSCFGGA      .... off
 Hybrid DFT is turned on
   Fraction HF Exchange ScalHFX         ....  0.250000
   Scaling of DF-GGA-X  ScalDFX         ....  0.750000
   Scaling of DF-GGA-C  ScalDFC         ....  1.000000
   Scaling of DF-LDA-C  ScalLDAC        ....  1.000000
   Perturbative correction              ....  0.000000
   Density functional embedding theory  .... OFF
   NL short-range parameter             ....  6.900000
 RI-approximation to the Coulomb term is turned on
   Number of AuxJ basis functions       .... 191
   RIJ-COSX (HFX calculated with COS-X)).... on


General Settings:
 Integral files         IntName         .... ox_es1_A_orca0030
 Hartree-Fock type      HFTyp           .... RHF
 Total Charge           Charge          ....    0
 Multiplicity           Mult            ....    1
 Number of Electrons    NEL             ....   24
 Basis Dimension        Dim             ....  117
 Nuclear Repulsion      ENuc            ....     71.6779231606 Eh

Convergence Acceleration:
 DIIS                   CNVDIIS         .... on
   Start iteration      DIISMaxIt       ....    12
   Startup error        DIISStart       ....  0.200000
   # of expansion vecs  DIISMaxEq       ....     5
   Bias factor          DIISBfac        ....   1.050
   Max. coefficient     DIISMaxC        ....  10.000
 Trust-Rad. Augm. Hess. CNVTRAH         .... auto
   Auto Start mean grad. ratio tolernc. ....  1.125000
   Auto Start start iteration           ....     1
   Auto Start num. interpolation iter.  ....    10
   Max. Number of Micro iterations      ....    16
   Max. Number of Macro iterations      .... Maxiter - #DIIS iter
   Number of Davidson start vectors     ....     2
   Converg. threshold I  (grad. norm)   ....   1.000e-05
   Converg. threshold II (energy diff.) ....   1.000e-08
   Grad. Scal. Fac. for Micro threshold ....   0.100
   Minimum threshold for Micro iter.    ....   0.010
   NR start threshold (gradient norm)   ....   0.001
   Initial trust radius                 ....   0.400
   Minimum AH scaling param. (alpha)    ....   1.000
   Maximum AH scaling param. (alpha)    .... 1000.000
   Orbital update algorithm             .... Taylor
   White noise on init. David. guess    .... on
   Maximum white noise                  ....   0.010
   Quad. conv. algorithm                .... NR
 SOSCF                  CNVSOSCF        .... on
   Start iteration      SOSCFMaxIt      ....   150
   Startup grad/error   SOSCFStart      ....  0.003300
 Level Shifting         CNVShift        .... on
   Level shift para.    LevelShift      ....    0.2500
   Turn off err/grad.   ShiftErr        ....    0.0010
 Zerner damping         CNVZerner       .... off
 Static damping         CNVDamp         .... on
   Fraction old density DampFac         ....    0.7000
   Max. Damping (<1)    DampMax         ....    0.9800
   Min. Damping (>=0)   DampMin         ....    0.0000
   Turn off err/grad.   DampErr         ....    0.1000
 Fernandez-Rico         CNVRico         .... off

SCF Procedure:
 Maximum # iterations   MaxIter         ....   125
 SCF integral mode      SCFMode         .... Direct
   Integral package                     .... SHARK and LIBINT hybrid scheme
 Reset frequency        DirectResetFreq ....    20
 Integral Threshold     Thresh          ....  2.500e-11 Eh
 Primitive CutOff       TCut            ....  2.500e-12 Eh

Convergence Tolerance:
 Convergence Check Mode ConvCheckMode   .... Total+1el-Energy
 Convergence forced     ConvForced      .... 1
 Energy Change          TolE            ....  1.000e-08 Eh
 1-El. energy change                    ....  1.000e-05 Eh
 Orbital Gradient       TolG            ....  1.000e-05
 Orbital Rotation angle TolX            ....  1.000e-05
 DIIS Error             TolErr          ....  5.000e-07


Diagonalization of the overlap matrix:
Smallest eigenvalue                        ... 5.976e-04
Time for diagonalization                   ...    0.003 sec
Threshold for overlap eigenvalues          ... 1.000e-08
Number of eigenvalues below threshold      ... 0
Time for construction of square roots      ...    0.004 sec
Total time needed                          ...    0.008 sec

---------------------
INITIAL GUESS: MOREAD
---------------------
Guess MOs are being read from file: ox_es1_A_orca0030.ges
Input Geometry matches current geometry (good)
Input basis set matches current basis set (good)
MOs were renormalized
MOs were reorthogonalized (Cholesky)
                      ------------------
                      INITIAL GUESS DONE (   0.0 sec)
                      ------------------
-------------------
DFT GRID GENERATION
-------------------

General Integration Accuracy     IntAcc      ... 4.388
Radial Grid Type                 RadialGrid  ... OptM3 with GC (2021)
Angular Grid (max. ang.)         AngularGrid ... 4 (Lebedev-302)
Angular grid pruning method      GridPruning ... 4 (adaptive)
Weight generation scheme         WeightScheme... Becke
Basis function cutoff            BFCut       ... 1.0000e-11
Integration weight cutoff        WCut        ... 1.0000e-14
Angular grids for H and He will be reduced by one unit
Partially contracted basis set               ... off
Rotationally invariant grid construction     ... off

Total number of grid points                  ...    31326
Total number of batches                      ...      493
Average number of points per batch           ...       63
Average number of grid points per atom       ...     4475
Time for grid setup =    0.426 sec

--------------------
COSX GRID GENERATION
--------------------

GRIDX 1
-------
General Integration Accuracy     IntAcc      ... 3.816
Radial Grid Type                 RadialGrid  ... OptM3 with GC (2021)
Angular Grid (max. ang.)         AngularGrid ... 1 (Lebedev-50)
Angular grid pruning method      GridPruning ... 4 (adaptive)
Weight generation scheme         WeightScheme... Becke
Basis function cutoff            BFCut       ... 1.0000e-11
Integration weight cutoff        WCut        ... 1.0000e-14
Angular grids for H and He will be reduced by one unit
Partially contracted basis set               ... on
Rotationally invariant grid construction     ... off

Total number of grid points                  ...     4041
Total number of batches                      ...       68
Average number of points per batch           ...       59
Average number of grid points per atom       ...      577
UseSFitting                                  ... on

GRIDX 2
-------
General Integration Accuracy     IntAcc      ... 4.020
Radial Grid Type                 RadialGrid  ... OptM3 with GC (2021)
Angular Grid (max. ang.)         AngularGrid ... 2 (Lebedev-110)
Angular grid pruning method      GridPruning ... 4 (adaptive)
Weight generation scheme         WeightScheme... Becke
Basis function cutoff            BFCut       ... 1.0000e-11
Integration weight cutoff        WCut        ... 1.0000e-14
Angular grids for H and He will be reduced by one unit
Partially contracted basis set               ... on
Rotationally invariant grid construction     ... off

Total number of grid points                  ...     8729
Total number of batches                      ...      139
Average number of points per batch           ...       62
Average number of grid points per atom       ...     1247
UseSFitting                                  ... on

GRIDX 3
-------
General Integration Accuracy     IntAcc      ... 4.338
Radial Grid Type                 RadialGrid  ... OptM3 with GC (2021)
Angular Grid (max. ang.)         AngularGrid ... 3 (Lebedev-194)
Angular grid pruning method      GridPruning ... 4 (adaptive)
Weight generation scheme         WeightScheme... Becke
Basis function cutoff            BFCut       ... 1.0000e-11
Integration weight cutoff        WCut        ... 1.0000e-14
Angular grids for H and He will be reduced by one unit
Partially contracted basis set               ... on
Rotationally invariant grid construction     ... off

Total number of grid points                  ...    19270
Total number of batches                      ...      304
Average number of points per batch           ...       63
Average number of grid points per atom       ...     2753
UseSFitting                                  ... on

Time for X-Grid setup             =    0.251 sec

--------------
SCF ITERATIONS
--------------
ITER       Energy         Delta-E        Max-DP      RMS-DP      [F,P]     Damp
               ***  Starting incremental Fock matrix formation  ***
                      *** Initiating the SOSCF procedure ***
                      *** Re-Reading the Fockian *** 
                      *** Removing any level shift *** 
ITER      Energy       Delta-E        Grad      Rot      Max-DP    RMS-DP
  0   -153.63373975 -153.6337397506  0.000002  0.000002  0.000005  0.000000
               *** Restarting incremental Fock matrix formation ***
                  ***Gradient check signals convergence***
              ***Rediagonalizing the Fockian in SOSCF/NRSCF***

               *****************************************************
               *                     SUCCESS                       *
               *           SCF CONVERGED AFTER   1 CYCLES          *
               *****************************************************

Old exchange energy                            =     -4.956579640 Eh
New exchange energy                            =     -4.956590948 Eh
Exchange energy change after final integration =     -0.000011309 Eh
Total energy after final integration           =   -153.633751059 Eh
Final COS-X integration done in                =     0.674 sec

----------------
TOTAL SCF ENERGY
----------------

Total Energy       :         -153.63375106 Eh           -4180.58690 eV

Components:
Nuclear Repulsion  :           71.67792316 Eh            1950.45545 eV
Electronic Energy  :         -225.31167422 Eh           -6131.04235 eV
One Electron Energy:         -350.22447130 Eh           -9530.09236 eV
Two Electron Energy:          124.91279708 Eh            3399.05001 eV
Max COSX asymmetry :            0.00000131 Eh               0.00004 eV

Virial components:
Potential Energy   :         -306.10929175 Eh           -8329.65730 eV
Kinetic Energy     :          152.47554069 Eh            4149.07040 eV
Virial Ratio       :            2.00759604


DFT components:
N(Alpha)           :       12.000005889044 electrons
N(Beta)            :       12.000005889044 electrons
N(Total)           :       24.000011778088 electrons
E(X)               :      -14.859713612876 Eh       
E(C)               :       -0.780737969208 Eh       
E(XC)              :      -15.640451582084 Eh       
DFET-embed. en.    :        0.000000000000 Eh       

---------------
SCF CONVERGENCE
---------------

  Last Energy change         ...   -1.3489e-10  Tolerance :   1.0000e-08
  Last MAX-Density change    ...    2.7756e-15  Tolerance :   1.0000e-07
  Last RMS-Density change    ...    4.2019e-17  Tolerance :   5.0000e-09
  Last Orbital Gradient      ...    1.3728e-06  Tolerance :   1.0000e-05
  Last Orbital Rotation      ...    3.4812e-06  Tolerance :   1.0000e-05

             **** THE GBW FILE WAS UPDATED (ox_es1_A_orca0030.gbw) ****
             **** DENSITY ox_es1_A_orca0030.scfp WAS UPDATED ****
             **** ENERGY FILE WAS UPDATED (ox_es1_A_orca0030.en.tmp) ****
             **** THE GBW FILE WAS UPDATED (ox_es1_A_orca0030.gbw) ****
             **** DENSITY ox_es1_A_orca0030.scfp WAS UPDATED ****
----------------
ORBITAL ENERGIES
----------------

  NO   OCC          E(Eh)            E(eV) 
   0   2.0000     -19.227755      -523.2138 
   1   2.0000     -10.295347      -280.1506 
   2   2.0000     -10.291344      -280.0417 
   3   2.0000      -1.051244       -28.6058 
   4   2.0000      -0.709657       -19.3108 
   5   2.0000      -0.642850       -17.4928 
   6   2.0000      -0.515330       -14.0229 
   7   2.0000      -0.474686       -12.9169 
   8   2.0000      -0.415560       -11.3080 
   9   2.0000      -0.372559       -10.1378 
  10   2.0000      -0.328823        -8.9477 
  11   2.0000      -0.289438        -7.8760 
  12   0.0000       0.041925         1.1408 
  13   0.0000       0.047303         1.2872 
  14   0.0000       0.065535         1.7833 
  15   0.0000       0.086714         2.3596 
  16   0.0000       0.098315         2.6753 
  17   0.0000       0.144155         3.9226 
  18   0.0000       0.187439         5.1005 
  19   0.0000       0.195814         5.3284 
  20   0.0000       0.261349         7.1117 
  21   0.0000       0.269572         7.3354 
  22   0.0000       0.287333         7.8187 
  23   0.0000       0.300315         8.1720 
  24   0.0000       0.363446         9.8899 
  25   0.0000       0.377131        10.2623 
  26   0.0000       0.387631        10.5480 
  27   0.0000       0.411629        11.2010 
  28   0.0000       0.445760        12.1297 
  29   0.0000       0.454610        12.3706 
  30   0.0000       0.465273        12.6607 
  31   0.0000       0.519507        14.1365 
  32   0.0000       0.530856        14.4453 
  33   0.0000       0.679596        18.4928 
  34   0.0000       0.704222        19.1629 
  35   0.0000       0.722703        19.6658 
  36   0.0000       0.816239        22.2110 
  37   0.0000       0.869239        23.6532 
  38   0.0000       0.890906        24.2428 
  39   0.0000       0.927009        25.2252 
  40   0.0000       0.990947        26.9650 
  41   0.0000       1.017832        27.6966 
  42   0.0000       1.038609        28.2620 
  43   0.0000       1.082269        29.4500 
  44   0.0000       1.129304        30.7299 
  45   0.0000       1.358606        36.9695 
  46   0.0000       1.463814        39.8324 
  47   0.0000       1.478005        40.2186 
  48   0.0000       1.491646        40.5897 
  49   0.0000       1.515019        41.2258 
  50   0.0000       1.568922        42.6925 
  51   0.0000       1.614253        43.9261 
  52   0.0000       1.634288        44.4712 
  53   0.0000       1.650473        44.9117 
  54   0.0000       1.766179        48.0602 
  55   0.0000       1.819874        49.5213 
  56   0.0000       1.835623        49.9498 
  57   0.0000       1.868291        50.8388 
  58   0.0000       1.890900        51.4540 
  59   0.0000       1.898830        51.6698 
  60   0.0000       2.116970        57.6057 
  61   0.0000       2.148551        58.4651 
  62   0.0000       2.159545        58.7642 
  63   0.0000       2.180062        59.3225 
  64   0.0000       2.225772        60.5663 
  65   0.0000       2.388902        65.0053 
  66   0.0000       2.417260        65.7770 
  67   0.0000       2.433673        66.2236 
  68   0.0000       2.483508        67.5797 
  69   0.0000       2.532414        68.9105 
  70   0.0000       2.566433        69.8362 
  71   0.0000       2.588604        70.4395 
  72   0.0000       2.641685        71.8839 
  73   0.0000       2.674843        72.7862 
  74   0.0000       2.703210        73.5581 
  75   0.0000       2.789854        75.9158 
  76   0.0000       2.820283        76.7438 
  77   0.0000       2.921863        79.5079 
  78   0.0000       2.980239        81.0964 
  79   0.0000       3.013679        82.0064 
  80   0.0000       3.046101        82.8886 
  81   0.0000       3.084499        83.9335 
  82   0.0000       3.122876        84.9778 
  83   0.0000       3.177298        86.4587 
  84   0.0000       3.211663        87.3938 
  85   0.0000       3.300792        89.8191 
  86   0.0000       3.342455        90.9528 
  87   0.0000       3.356379        91.3317 
  88   0.0000       3.513837        95.6164 
  89   0.0000       3.517582        95.7183 
  90   0.0000       3.614131        98.3455 
  91   0.0000       3.660348        99.6031 
  92   0.0000       3.773182       102.6735 
  93   0.0000       3.930045       106.9420 
  94   0.0000       3.995624       108.7265 
  95   0.0000       4.020443       109.4018 
  96   0.0000       4.162331       113.2628 
  97   0.0000       4.209075       114.5348 
  98   0.0000       4.311922       117.3334 
  99   0.0000       4.522221       123.0559 
 100   0.0000       4.688651       127.5847 
 101   0.0000       4.742947       129.0622 
 102   0.0000       5.244341       142.7058 
 103   0.0000       5.378715       146.3623 
 104   0.0000       5.566025       151.4592 
 105   0.0000       5.637010       153.3909 
 106   0.0000       5.650472       153.7572 
 107   0.0000       5.731336       155.9576 
 108   0.0000       5.909353       160.8017 
 109   0.0000       6.541657       178.0075 
 110   0.0000       6.562163       178.5655 
 111   0.0000       6.730416       183.1439 
 112   0.0000       6.950361       189.1289 
 113   0.0000       7.176024       195.2696 
 114   0.0000      22.108734       601.6092 
 115   0.0000      22.158781       602.9711 
 116   0.0000      43.760361      1190.7800 

                    ********************************
                    * MULLIKEN POPULATION ANALYSIS *
                    ********************************

-----------------------
MULLIKEN ATOMIC CHARGES
-----------------------
   0 O :   -0.311192
   1 C :   -0.094995
   2 C :   -0.104024
   3 H :    0.117506
   4 H :    0.133683
   5 H :    0.133553
   6 H :    0.125469
Sum of atomic charges:    0.0000000

--------------------------------
MULLIKEN REDUCED ORBITAL CHARGES
--------------------------------
  0 O s       :     3.879125  s :     3.879125
      pz      :     1.862462  p :     4.396300
      px      :     1.320427
      py      :     1.213411
      dz2     :     0.004967  d :     0.034126
      dxz     :     0.001774
      dyz     :     0.005080
      dx2y2   :     0.009695
      dxy     :     0.012611
      f0      :     0.000183  f :     0.001641
      f+1     :     0.000152
      f-1     :     0.000388
      f+2     :     0.000069
      f-2     :     0.000131
      f+3     :     0.000324
      f-3     :     0.000393
  1 C s       :     3.254820  s :     3.254820
      pz      :     1.040900  p :     2.722436
      px      :     0.920616
      py      :     0.760921
      dz2     :     0.008257  d :     0.107539
      dxz     :     0.024225
      dyz     :     0.028934
      dx2y2   :     0.026580
      dxy     :     0.019542
      f0      :     0.001351  f :     0.010200
      f+1     :     0.001305
      f-1     :     0.000616
      f+2     :     0.001328
      f-2     :     0.001173
      f+3     :     0.001919
      f-3     :     0.002508
  2 C s       :     3.261187  s :     3.261187
      pz      :     1.023758  p :     2.734490
      px      :     0.922486
      py      :     0.788245
      dz2     :     0.009389  d :     0.098916
      dxz     :     0.022591
      dyz     :     0.023984
      dx2y2   :     0.022650
      dxy     :     0.020302
      f0      :     0.001255  f :     0.009431
      f+1     :     0.001230
      f-1     :     0.000588
      f+2     :     0.000787
      f-2     :     0.001342
      f+3     :     0.001989
      f-3     :     0.002240
  3 H s       :     0.866758  s :     0.866758
      pz      :     0.009110  p :     0.015736
      px      :     0.004258
      py      :     0.002368
  4 H s       :     0.843118  s :     0.843118
      pz      :     0.010967  p :     0.023199
      px      :     0.007550
      py      :     0.004682
  5 H s       :     0.843139  s :     0.843139
      pz      :     0.010790  p :     0.023308
      px      :     0.007093
      py      :     0.005425
  6 H s       :     0.856540  s :     0.856540
      pz      :     0.010748  p :     0.017992
      px      :     0.004385
      py      :     0.002859


                     *******************************
                     * LOEWDIN POPULATION ANALYSIS *
                     *******************************

----------------------
LOEWDIN ATOMIC CHARGES
----------------------
   0 O :    0.022661
   1 C :   -0.270451
   2 C :   -0.238841
   3 H :    0.141213
   4 H :    0.095635
   5 H :    0.106281
   6 H :    0.143501

-------------------------------
LOEWDIN REDUCED ORBITAL CHARGES
-------------------------------
  0 O s       :     3.483995  s :     3.483995
      pz      :     1.777801  p :     4.418182
      px      :     1.318646
      py      :     1.321735
      dz2     :     0.010542  d :     0.070790
      dxz     :     0.004981
      dyz     :     0.009994
      dx2y2   :     0.023812
      dxy     :     0.021461
      f0      :     0.000361  f :     0.004371
      f+1     :     0.000190
      f-1     :     0.000743
      f+2     :     0.000144
      f-2     :     0.000535
      f+3     :     0.000937
      f-3     :     0.001460
  1 C s       :     2.870964  s :     2.870964
      pz      :     1.056750  p :     2.908286
      px      :     1.036458
      py      :     0.815078
      dz2     :     0.051999  d :     0.432855
      dxz     :     0.113026
      dyz     :     0.076574
      dx2y2   :     0.103296
      dxy     :     0.087960
      f0      :     0.007624  f :     0.058347
      f+1     :     0.004612
      f-1     :     0.005198
      f+2     :     0.007683
      f-2     :     0.004423
      f+3     :     0.012858
      f-3     :     0.015948
  2 C s       :     2.872679  s :     2.872679
      pz      :     1.059346  p :     2.919836
      px      :     1.042260
      py      :     0.818230
      dz2     :     0.051809  d :     0.394780
      dxz     :     0.103269
      dyz     :     0.066941
      dx2y2   :     0.087499
      dxy     :     0.085261
      f0      :     0.007036  f :     0.051546
      f+1     :     0.004411
      f-1     :     0.004355
      f+2     :     0.004666
      f-2     :     0.005246
      f+3     :     0.012648
      f-3     :     0.013184
  3 H s       :     0.817751  s :     0.817751
      pz      :     0.024737  p :     0.041036
      px      :     0.010243
      py      :     0.006055
  4 H s       :     0.830818  s :     0.830818
      pz      :     0.036254  p :     0.073546
      px      :     0.022401
      py      :     0.014892
  5 H s       :     0.822371  s :     0.822371
      pz      :     0.034419  p :     0.071348
      px      :     0.020289
      py      :     0.016640
  6 H s       :     0.808637  s :     0.808637
      pz      :     0.029379  p :     0.047861
      px      :     0.010727
      py      :     0.007755


                      *****************************
                      * MAYER POPULATION ANALYSIS *
                      *****************************

  NA   - Mulliken gross atomic population
  ZA   - Total nuclear charge
  QA   - Mulliken gross atomic charge
  VA   - Mayer's total valence
  BVA  - Mayer's bonded valence
  FA   - Mayer's free valence

  ATOM       NA         ZA         QA         VA         BVA        FA
  0 O      8.3112     8.0000    -0.3112     1.9922     1.9922     0.0000
  1 C      6.0950     6.0000    -0.0950     3.9529     3.9529     0.0000
  2 C      6.1040     6.0000    -0.1040     3.9623     3.9623     0.0000
  3 H      0.8825     1.0000     0.1175     0.9639     0.9639    -0.0000
  4 H      0.8663     1.0000     0.1337     0.9541     0.9541     0.0000
  5 H      0.8664     1.0000     0.1336     0.9502     0.9502     0.0000
  6 H      0.8745     1.0000     0.1255     0.9620     0.9620    -0.0000

  Mayer bond orders larger than 0.100000
B(  0-O ,  1-C ) :   0.9761 B(  0-O ,  2-C ) :   0.9924 B(  1-C ,  2-C ) :   1.0690 
B(  1-C ,  3-H ) :   0.9450 B(  1-C ,  4-H ) :   0.9490 B(  2-C ,  5-H ) :   0.9404 
B(  2-C ,  6-H ) :   0.9452 

-------
TIMINGS
-------

Total SCF time: 0 days 0 hours 0 min 3 sec 

Total time                  ....       3.281 sec
Sum of individual times     ....       2.949 sec  ( 89.9%)

Fock matrix formation       ....       2.150 sec  ( 65.5%)
  Split-RI-J                ....       0.426 sec  ( 19.8% of F)
  Chain of spheres X        ....       1.463 sec  ( 68.1% of F)
  XC integration            ....       0.234 sec  ( 10.9% of F)
    Basis function eval.    ....       0.065 sec  ( 28.0% of XC)
    Density eval.           ....       0.039 sec  ( 16.7% of XC)
    XC-Functional eval.     ....       0.013 sec  (  5.4% of XC)
    XC-Potential eval.      ....       0.059 sec  ( 25.2% of XC)
Diagonalization             ....       0.021 sec  (  0.6%)
Density matrix formation    ....       0.003 sec  (  0.1%)
Population analysis         ....       0.070 sec  (  2.1%)
Initial guess               ....       0.015 sec  (  0.5%)
Orbital Transformation      ....       0.000 sec  (  0.0%)
Orbital Orthonormalization  ....       0.005 sec  (  0.1%)
DIIS solution               ....       0.007 sec  (  0.2%)
SOSCF solution              ....       0.007 sec  (  0.2%)
Grid generation             ....       0.676 sec  ( 20.6%)

Maximum memory used throughout the entire SCF-calculation: 61.1 MB


           ************************************************************
           *        Program running with 8 parallel MPI-processes     *
           *              working on a common directory               *
           ************************************************************
------------------------------------------------------------------------------
                        ORCA TD-DFT/TDA CALCULATION
------------------------------------------------------------------------------

Input orbitals are from        ... ox_es1_A_orca0030.gbw
CI-vector output               ... ox_es1_A_orca0030.cis
Tamm-Dancoff approximation     ... operative
CIS-Integral strategy          ... AO-integrals
Integral handling              ... AO integral Direct
Max. core memory used          ... 3000 MB
Reference state                ... RHF
Generation of triplets         ... off
Follow IRoot                   ... off
Number of operators            ... 1
Orbital ranges used for CIS calculation:
 Operator 0:  Orbitals   3... 11  to  12...116
XAS localization array:
 Operator 0:  Orbitals  -1... -1

-------------------
XC-INTEGRATION GRID
-------------------

General Integration Accuracy     IntAcc      ... 3.467
Radial Grid Type                 RadialGrid  ... OptM3 with GC (2021)
Angular Grid (max. ang.)         AngularGrid ... 1 (Lebedev-50)
Angular grid pruning method      GridPruning ... 4 (adaptive)
Weight generation scheme         WeightScheme... Becke
Basis function cutoff            BFCut       ... 1.0000e-11
Integration weight cutoff        WCut        ... 1.0000e-14
Angular grids for H and He will be reduced by one unit
Partially contracted basis set               ... off
Rotationally invariant grid construction     ... off

Total number of grid points                  ...     4540
Total number of batches                      ...       74
Average number of points per batch           ...       61
Average number of grid points per atom       ...      649

---------------------
COSX-INTEGRATION GRID
---------------------

General Integration Accuracy     IntAcc      ... 3.067
Radial Grid Type                 RadialGrid  ... OptM3 with GC (2021)
Angular Grid (max. ang.)         AngularGrid ... 1 (Lebedev-50)
Angular grid pruning method      GridPruning ... 4 (adaptive)
Weight generation scheme         WeightScheme... Becke
Basis function cutoff            BFCut       ... 1.0000e-11
Integration weight cutoff        WCut        ... 1.0000e-14
Angular grids for H and He will be reduced by one unit
Partially contracted basis set               ... on
Rotationally invariant grid construction     ... off

Total number of grid points                  ...     2088
Total number of batches                      ...       36
Average number of points per batch           ...       58
Average number of grid points per atom       ...      298

---------------
TD-DFT XC SETUP
---------------

DFT calculation                         ... on
Name of the grid file                   ... ox_es1_A_orca0030.grid_cis.tmp
Exchange functional (TD-DFT)            ... PBE
   PBE kappa parameter  XKappa (TD-DFT) ...  0.804000
   PBE mue parameter   XMuePBE (TD-DFT) ...  0.219520
Correlation functional (TD-DFT)         ... PBE
   PBE beta parameter CBetaPBE (TD-DFT) ...  0.066725
 LDA part of GGA corr.  LDAOpt (TD-DFT) ... PW91-LDA
Hybrid DFT                              ... on
   Exchange mixing (TD-DFT)             ...  0.250
   GGA exch. scaling (TD-DFT)           ...  0.750
   GGA corr. scaling (TD-DFT)           ...  1.000

Building densities             ... done
Calculating rho(r) on the grid ... done
Building xc-kernel on the grid ... done
                    *** TD-DFT CALCULATION INITIALIZED ***

------------------------
DAVIDSON-DIAGONALIZATION
------------------------

Dimension of the eigenvalue problem            ...    945
Number of roots to be determined               ...      1
Maximum size of the expansion space            ...     10
Maximum number of iterations                   ...    100
Convergence tolerance for the residual         ...    2.500e-07
Convergence tolerance for the energies         ...    2.500e-07
Orthogonality tolerance                        ...    1.000e-14
Level Shift                                    ...    0.000e+00
Constructing the preconditioner                ... o.k.
Building the initial guess                     ... o.k.
Number of trial vectors determined             ...     10


                       ****Iteration    0****

   Memory handling for direct AO based CIS:
   Memory per vector needed      ...     1 MB
   Memory needed                 ...     1 MB
   Memory available              ...  3000 MB
   Number of vectors per batch   ...  3000
   Number of batches             ...     1
   Time for densities:            0.001
   Time for RI-J (Direct):        0.048
   Time for K (COSX):             0.189
   Time for XC-Integration:       0.053
   Time for Sigma-Completion:     0.002
   Size of expansion space: 3
   Lowest Energy          :     0.260616595862
   Maximum Energy change  :     0.260616595862 (vector 0)
   Maximum residual norm  :     0.004466468240

                       ****Iteration    1****
   Time for densities:            0.000
   Time for RI-J (Direct):        0.064
   Time for K (COSX):             0.171
   Time for XC-Integration:       0.023
   Time for Sigma-Completion:     0.001
   Size of expansion space: 4
   Lowest Energy          :     0.256556283794
   Maximum Energy change  :     0.004060312068 (vector 0)
   Maximum residual norm  :     0.000593339340

                       ****Iteration    2****
   Time for densities:            0.000
   Time for RI-J (Direct):        0.053
   Time for K (COSX):             0.171
   Time for XC-Integration:       0.030
   Time for Sigma-Completion:     0.006
   Size of expansion space: 5
   Lowest Energy          :     0.255905984201
   Maximum Energy change  :     0.000650299593 (vector 0)
   Maximum residual norm  :     0.000131270301

                       ****Iteration    3****
   Time for densities:            0.000
   Time for RI-J (Direct):        0.080
   Time for K (COSX):             0.126
   Time for XC-Integration:       0.017
   Time for Sigma-Completion:     0.000
   Size of expansion space: 6
   Lowest Energy          :     0.255800932483
   Maximum Energy change  :     0.000105051719 (vector 0)
   Maximum residual norm  :     0.000013213995

                       ****Iteration    4****
   Time for densities:            0.000
   Time for RI-J (Direct):        0.046
   Time for K (COSX):             0.163
   Time for XC-Integration:       0.022
   Time for Sigma-Completion:     0.001
   Size of expansion space: 7
   Lowest Energy          :     0.255782450820
   Maximum Energy change  :     0.000018481663 (vector 0)
   Maximum residual norm  :     0.000002717013

                       ****Iteration    5****
   Time for densities:            0.000
   Time for RI-J (Direct):        0.063
   Time for K (COSX):             0.161
   Time for XC-Integration:       0.024
   Time for Sigma-Completion:     0.004
   Size of expansion space: 8
   Lowest Energy          :     0.255777330758
   Maximum Energy change  :     0.000005120062 (vector 0)
   Maximum residual norm  :     0.000000661976

                       ****Iteration    6****
   Time for densities:            0.000
   Time for RI-J (Direct):        0.061
   Time for K (COSX):             0.185
   Time for XC-Integration:       0.035
   Time for Sigma-Completion:     0.000
   Size of expansion space: 9
   Lowest Energy          :     0.255776443483
   Maximum Energy change  :     0.000000887275 (vector 0)
   Maximum residual norm  :     0.000000089654

      *** CONVERGENCE OF RESIDUAL NORM REACHED ***

Storing the converged CI vectors               ... ox_es1_A_orca0030.cis1

                 *** DAVIDSON DONE ***

Total time for solving the CIS problem:     1.842sec

------------------------------------
TD-DFT/TDA EXCITED STATES (SINGLETS)
------------------------------------

the weight of the individual excitations are printed if larger than 1.0e-02

STATE  1:  E=   0.255776 au      6.960 eV    56136.4 cm**-1 <S**2> =   0.000000
    11a ->  12a  :     0.670259 (c=  0.81869369)
    11a ->  13a  :     0.272478 (c= -0.52199402)
    11a ->  14a  :     0.033056 (c= -0.18181270)


-----------------------------
TD-DFT/TDA-EXCITATION SPECTRA
-----------------------------

Center of mass = ( -0.0523, -0.0299, -0.0743)
Calculating the Dipole integrals                  ... done
Transforming integrals                            ... done
Calculating the Linear Momentum integrals         ... done
Transforming integrals                            ... done
Calculating angular momentum integrals            ... done
Transforming integrals                            ... done

-----------------------------------------------------------------------------
         ABSORPTION SPECTRUM VIA TRANSITION ELECTRIC DIPOLE MOMENTS
-----------------------------------------------------------------------------
State   Energy    Wavelength  fosc         T2        TX        TY        TZ  
        (cm-1)      (nm)                 (au**2)    (au)      (au)      (au) 
-----------------------------------------------------------------------------
   1   56136.4    178.1   0.006456659   0.03787  -0.01219   0.03273  -0.19143

-----------------------------------------------------------------------------
         ABSORPTION SPECTRUM VIA TRANSITION VELOCITY DIPOLE MOMENTS
-----------------------------------------------------------------------------
State   Energy    Wavelength   fosc        P2         PX        PY        PZ  
        (cm-1)      (nm)                 (au**2)     (au)      (au)      (au) 
-----------------------------------------------------------------------------
   1   56136.4    178.1   0.021352696   0.00819  -0.00072  -0.01414   0.08940

-------------------------------------------------------------------
                             CD SPECTRUM
-------------------------------------------------------------------
State  Energy     Wavelength     R         MX        MY        MZ   
       (cm-1)       (nm)     (1e40*cgs)   (au)      (au)      (au)  
-------------------------------------------------------------------
   1   56136.4    178.1      4.23614  -0.15257   0.16078  -0.00973

-------------------------------------------------------------------
         CD SPECTRUM VIA TRANSITION VELOCITY DIPOLE MOMENTS        
-------------------------------------------------------------------
State  Energy     Wavelength     R         MX        MY        MZ   
       (cm-1)       (nm)     (1e40*cgs)   (au)      (au)      (au)  
-------------------------------------------------------------------
   1   56136.4    178.1     -5.59079  -0.15257   0.16078  -0.00973

Total run time:        2.622 sec

           *** ORCA-CIS/TD-DFT FINISHED WITHOUT ERROR ***

Maximum memory used throughout the entire CIS-calculation: 49.4 MB

-----------------------
CIS/TD-DFT TOTAL ENERGY
-----------------------

    E(SCF)  =   -153.633751059 Eh
    DE(CIS) =      0.255776443 Eh (Root  1)
    ----------------------------- ---------
    E(tot)  =   -153.377974616 Eh



-------------------------------------------------------------------------------
                          DFT DISPERSION CORRECTION                            
                                                                               
                              DFTD3 V3.1  Rev 1                                
                          USING Becke-Johnson damping                          
-------------------------------------------------------------------------------
The PBE0 functional is recognized
Active option DFTDOPT                   ...         4   

molecular C6(AA) [au] = 352.788078 


            DFT-D V3
 parameters
 s6 scaling factor         :     1.0000 
 a1 scaling factor         :     0.4145 
 s8 scaling factor         :     1.2177 
 a2 scaling factor         :     4.8593 
 ad hoc parameters k1-k3   :    16.0000     1.3333    -4.0000 

 Edisp/kcal,au: -1.506216862241  -0.002400309101 
 E6   /kcal   :  -0.986362174 
 E8   /kcal   :  -0.519854688 
 % E8         :  34.513933645 

-------------------------   ----------------
Dispersion correction           -0.002400309
-------------------------   ----------------


-------------------------   --------------------
FINAL SINGLE POINT ENERGY      -153.380374924935
-------------------------   --------------------



           ************************************************************
           *        Program running with 8 parallel MPI-processes     *
           *              working on a common directory               *
           ************************************************************
------------------------------------------------------------------------------
                         ORCA SCF GRADIENT CALCULATION
------------------------------------------------------------------------------


------------------------
TD-DFT GRADIENT XC SETUP
------------------------

Building densities                     ... done
Calculating rho(r) on the grid         ... done
Building xc-kernel on the grid         ... done
Building xc 3rd derivative on the grid      ... done
                *** TD-DFT GRADIENT CALCULATION INITIALIZED ***

-------------------
TD-DFT/TDA GRADIENT
-------------------

Reference wavefunction             ... RHF
State of interest                  ... 1
Basis dimension                    ... 117
DFT-XC contribution needed         ... YES
RI-approximation                   ... ON
CIS-vectors being read from        ... ox_es1_A_orca0030.cis

 => Number of Vectors found: 1
 => Orbital Window: 3...11 -> 12...116

Reading the CIS file                     ... done
Norm of the CI vector                    ... 1.000000000
Making the CIS (pseudo)densities         ... done
Making operators G(D) and Q(T)           ... done
Transforming the Fock operators          ... done
Making the frozen-core relaxed density   ... done
Constructing the G(H) operator           ... done
Transforming the G(H) operator           ... done
Calculating the CIS Lagrangian           ... done
Solving the Z-vector equations           ... done
Finalizing the relaxed density           ... done
Storing the relaxed density              ... done
Constructing the G(Z) operator           ... done
Transforming the G(Z) operator           ... done
Making the W-matrix                      ... done
Finalizing the W-matrix                  ... done
Transforming the W-matrix                ... done
Nuclear repulsion gradient               ... done
One-Electron gradient                    ... done
Dispersion correction                    ... done
Prescreening matrices                    ... done
COSX-gradient                            ... done
Coulomb gradient (RI)                    ... done
Exchange-Correlation gradient            ... done

                 ---------------------------
                 EXCITED STATE GRADIENT DONE
                 ---------------------------

------------------
CARTESIAN GRADIENT
------------------

   1   O   :    0.105324067   -0.091710410   -0.005409887
   2   C   :   -0.062027346   -0.027902960   -0.101546611
   3   C   :   -0.035796035    0.125605314   -0.067579165
   4   H   :   -0.026365087   -0.012392757    0.060154951
   5   H   :    0.026345219    0.002778298    0.037882287
   6   H   :   -0.022744357    0.014979665    0.021320153
   7   H   :    0.015244830   -0.011399482    0.055171353

Difference to translation invariance:
           :   -0.0000187082   -0.0000423303   -0.0000069185

Difference to rotation invariance:
           :   -0.0001074411   -0.0000839690    0.0002526242

Norm of the cartesian gradient     ...    0.2594273512
RMS gradient                       ...    0.0566116892
MAX gradient                       ...    0.1256053137

------------------------------------------------------------------------------
                  RELAXED CIS/TDA DENSITY POPULATION ANALYSIS
                                   IROOT 1
------------------------------------------------------------------------------
------------------------------------------------------------------------------
                           ORCA POPULATION ANALYSIS
------------------------------------------------------------------------------
Input electron density              ... ox_es1_A_orca0030.cisp
BaseName (.gbw .S,...)              ... ox_es1_A_orca0030

                    ********************************
                    * MULLIKEN POPULATION ANALYSIS *
                    ********************************

-----------------------
MULLIKEN ATOMIC CHARGES
-----------------------
   0 O :    0.124243
   1 C :   -0.155066
   2 C :   -0.605460
   3 H :    0.163116
   4 H :    0.160214
   5 H :    0.146161
   6 H :    0.166790
Sum of atomic charges:    0.0000000

--------------------------------
MULLIKEN REDUCED ORBITAL CHARGES
--------------------------------
  0 O s       :     3.764866  s :     3.764866
      pz      :     1.093862  p :     4.080547
      px      :     1.552451
      py      :     1.434235
      dz2     :     0.002772  d :     0.029402
      dxz     :     0.002080
      dyz     :     0.004801
      dx2y2   :     0.008889
      dxy     :     0.010860
      f0      :     0.000023  f :     0.000942
      f+1     :    -0.000043
      f-1     :     0.000091
      f+2     :     0.000066
      f-2     :     0.000128
      f+3     :     0.000297
      f-3     :     0.000381
  1 C s       :     3.264563  s :     3.264563
      pz      :     1.038618  p :     2.794583
      px      :     1.010352
      py      :     0.745613
      dz2     :     0.009190  d :     0.086621
      dxz     :     0.023647
      dyz     :     0.010214
      dx2y2   :     0.026220
      dxy     :     0.017349
      f0      :     0.000825  f :     0.009299
      f+1     :     0.001388
      f-1     :     0.000547
      f+2     :     0.000790
      f-2     :     0.000809
      f+3     :     0.002575
      f-3     :     0.002364
  2 C s       :     3.341579  s :     3.341579
      pz      :     1.051669  p :     3.168706
      px      :     0.848771
      py      :     1.268266
      dz2     :     0.011311  d :     0.086205
      dxz     :     0.012110
      dyz     :     0.005279
      dx2y2   :     0.029384
      dxy     :     0.028121
      f0      :     0.000814  f :     0.008970
      f+1     :     0.001134
      f-1     :     0.000981
      f+2     :     0.000605
      f-2     :     0.000870
      f+3     :     0.002712
      f-3     :     0.001854
  3 H s       :     0.820545  s :     0.820545
      pz      :     0.009499  p :     0.016339
      px      :     0.004625
      py      :     0.002215
  4 H s       :     0.815631  s :     0.815631
      pz      :     0.011197  p :     0.024155
      px      :     0.008418
      py      :     0.004540
  5 H s       :     0.824579  s :     0.824579
      pz      :     0.009805  p :     0.029259
      px      :     0.006701
      py      :     0.012754
  6 H s       :     0.812485  s :     0.812485
      pz      :     0.009908  p :     0.020725
      px      :     0.004525
      py      :     0.006292


                     *******************************
                     * LOEWDIN POPULATION ANALYSIS *
                     *******************************

----------------------
LOEWDIN ATOMIC CHARGES
----------------------
   0 O :    0.300075
   1 C :   -0.276613
   2 C :   -0.568977
   3 H :    0.173278
   4 H :    0.113469
   5 H :    0.101235
   6 H :    0.157534

-------------------------------
LOEWDIN REDUCED ORBITAL CHARGES
-------------------------------
  0 O s       :     3.543613  s :     3.543613
      pz      :     1.052389  p :     4.067476
      px      :     1.527523
      py      :     1.487564
      dz2     :     0.013384  d :     0.084563
      dxz     :     0.005835
      dyz     :     0.010623
      dx2y2   :     0.025555
      dxy     :     0.029166
      f0      :     0.000373  f :     0.004272
      f+1     :     0.000097
      f-1     :     0.000645
      f+2     :     0.000143
      f-2     :     0.000568
      f+3     :     0.000979
      f-3     :     0.001468
  1 C s       :     2.879240  s :     2.879240
      pz      :     1.038788  p :     2.948890
      px      :     1.098301
      py      :     0.811801
      dz2     :     0.057739  d :     0.389656
      dxz     :     0.107829
      dyz     :     0.034672
      dx2y2   :     0.105180
      dxy     :     0.084236
      f0      :     0.005589  f :     0.058827
      f+1     :     0.004797
      f-1     :     0.005679
      f+2     :     0.005266
      f-2     :     0.003161
      f+3     :     0.018589
      f-3     :     0.015746
  2 C s       :     2.892346  s :     2.892346
      pz      :     1.056320  p :     3.149366
      px      :     1.004061
      py      :     1.088985
      dz2     :     0.066419  d :     0.464474
      dxz     :     0.084805
      dyz     :     0.026754
      dx2y2   :     0.127240
      dxy     :     0.159255
      f0      :     0.005399  f :     0.062791
      f+1     :     0.005263
      f-1     :     0.008479
      f+2     :     0.003460
      f-2     :     0.003767
      f+3     :     0.023490
      f-3     :     0.012934
  3 H s       :     0.784360  s :     0.784360
      pz      :     0.025434  p :     0.042363
      px      :     0.011340
      py      :     0.005588
  4 H s       :     0.810202  s :     0.810202
      pz      :     0.036893  p :     0.076329
      px      :     0.025342
      py      :     0.014094
  5 H s       :     0.811903  s :     0.811903
      pz      :     0.032372  p :     0.086862
      px      :     0.019814
      py      :     0.034676
  6 H s       :     0.788311  s :     0.788311
      pz      :     0.027140  p :     0.054155
      px      :     0.010878
      py      :     0.016137


                      *****************************
                      * MAYER POPULATION ANALYSIS *
                      *****************************

  NA   - Mulliken gross atomic population
  ZA   - Total nuclear charge
  QA   - Mulliken gross atomic charge
  VA   - Mayer's total valence
  BVA  - Mayer's bonded valence
  FA   - Mayer's free valence

  ATOM       NA         ZA         QA         VA         BVA        FA
  0 O      7.8758     8.0000     0.1242     1.7819     1.0119     0.7700
  1 C      6.1551     6.0000    -0.1551     3.8799     3.7470     0.1329
  2 C      6.6055     6.0000    -0.6055     3.9906     3.1317     0.8589
  3 H      0.8369     1.0000     0.1631     0.9564     0.9237     0.0327
  4 H      0.8398     1.0000     0.1602     0.9705     0.9468     0.0237
  5 H      0.8538     1.0000     0.1462     1.0021     0.9503     0.0518
  6 H      0.8332     1.0000     0.1668     0.9671     0.9460     0.0211

  Mayer bond orders larger than 0.100000
B(  0-O ,  1-C ) :   0.8445 B(  0-O ,  2-C ) :   0.1412 B(  1-C ,  2-C ) :   1.0930 
B(  1-C ,  3-H ) :   0.8988 B(  1-C ,  4-H ) :   0.9250 B(  2-C ,  5-H ) :   0.9437 
B(  2-C ,  6-H ) :   0.9334 


-------
TIMINGS
-------

Total TD-DFT gradient time         ...       10.791 sec

Fock matrix formation       ....       2.084 sec  ( 19.3%)
  Coulomb formation         ....       1.624 sec  ( 78.0% of F)
  RI-J                      ....       0.600 sec  ( 28.8% of F)
  Chain of spheres X        ....       1.023 sec  ( 49.1% of F)
  XC integration            ....       0.459 sec  ( 22.0% of F)
Z-vector equation           ....       3.699 sec  ( 34.3%)
One electron gradient       ....       0.056 sec  (  0.5%)
Prescreening matrices       ....       0.281 sec  (  2.6%)
RI-J Coulomb gradient       ....       0.527 sec  (  4.9%)
COSX gradient               ....       0.627 sec  (  5.8%)
XC gradient                 ....       2.692 sec  ( 24.9%)

Maximum memory used throughout the entire SCFGRAD-calculation: 130.3 MB

                            ***************************************
                            *     ORCA property calculations      *
                            ***************************************

                                    ---------------------
                                    Active property flags
                                    ---------------------
   (+) Dipole Moment


------------------------------------------------------------------------------
                       ORCA ELECTRIC PROPERTIES CALCULATION
------------------------------------------------------------------------------

Dipole Moment Calculation                       ... on
Quadrupole Moment Calculation                   ... off
Polarizability Calculation                      ... off
GBWName                                         ... ox_es1_A_orca0030.gbw
Electron density                                ... ox_es1_A_orca0030.scfp
The origin for moment calculation is the CENTER OF MASS  = (-0.052318, -0.029878 -0.074328)

-------------
DIPOLE MOMENT
-------------
                                X             Y             Z
Electronic contribution:      0.03959       1.74110      -0.38835
Nuclear contribution   :      0.00650      -2.61589       0.29902
                        -----------------------------------------
Total Dipole Moment    :      0.04609      -0.87480      -0.08934
                        -----------------------------------------
Magnitude (a.u.)       :      0.88055
Magnitude (Debye)      :      2.23819



--------------------
Rotational spectrum 
--------------------
 
Rotational constants in cm-1:     0.753248     0.685219     0.428116 
Rotational constants in MHz : 22581.796134 20542.355993 12834.596027 

 Dipole components along the rotational axes: 
x,y,z [a.u.] :     0.341271    -0.810645    -0.042011 
x,y,z [Debye]:     0.867442    -2.060495    -0.106783 

 

                        *** CIS RELAXED DENSITY ***

------------------------------------------------------------------------------
                       ORCA ELECTRIC PROPERTIES CALCULATION
------------------------------------------------------------------------------

Dipole Moment Calculation                       ... on
Quadrupole Moment Calculation                   ... off
Polarizability Calculation                      ... off
GBWName                                         ... ox_es1_A_orca0030.gbw
Electron density                                ... ox_es1_A_orca0030.cisp
The origin for moment calculation is the CENTER OF MASS  = (-0.052318, -0.029878 -0.074328)

-------------
DIPOLE MOMENT
-------------
                                X             Y             Z
Electronic contribution:     -0.72967       2.41515      -0.25112
Nuclear contribution   :      0.00650      -2.61589       0.29902
                        -----------------------------------------
Total Dipole Moment    :     -0.72317      -0.20074       0.04789
                        -----------------------------------------
Magnitude (a.u.)       :      0.75204
Magnitude (Debye)      :      1.91154



--------------------
Rotational spectrum 
--------------------
 
Rotational constants in cm-1:     0.753248     0.685219     0.428116 
Rotational constants in MHz : 22581.796134 20542.355993 12834.596027 

 Dipole components along the rotational axes: 
x,y,z [a.u.] :    -0.612630    -0.431459     0.063989 
x,y,z [Debye]:    -1.557183    -1.096682     0.162647 

 

Timings for individual modules:

Sum of individual times         ...       19.206 sec (=   0.320 min)
GTO integral calculation        ...        0.936 sec (=   0.016 min)   4.9 %
SCF iterations                  ...        3.758 sec (=   0.063 min)  19.6 %
CIS module                      ...        3.183 sec (=   0.053 min)  16.6 %
SCF Gradient evaluation         ...       11.330 sec (=   0.189 min)  59.0 %
                             ****ORCA TERMINATED NORMALLY****
TOTAL RUN TIME: 0 days 0 hours 0 minutes 20 seconds 183 msec
