
                                 *****************
                                 * O   R   C   A *
                                 *****************

                                            #,                                       
                                            ###                                      
                                            ####                                     
                                            #####                                    
                                            ######                                   
                                           ########,                                 
                                     ,,################,,,,,                         
                               ,,#################################,,                 
                          ,,##########################################,,             
                       ,#########################################, ''#####,          
                    ,#############################################,,   '####,        
                  ,##################################################,,,,####,       
                ,###########''''           ''''###############################       
              ,#####''   ,,,,##########,,,,          '''####'''          '####       
            ,##' ,,,,###########################,,,                        '##       
           ' ,,###''''                  '''############,,,                           
         ,,##''                                '''############,,,,        ,,,,,,###''
      ,#''                                            '''#######################'''  
     '                                                          ''''####''''         
             ,#######,   #######,   ,#######,      ##                                
            ,#'     '#,  ##    ##  ,#'     '#,    #''#        ######   ,####,        
            ##       ##  ##   ,#'  ##            #'  '#       #        #'  '#        
            ##       ##  #######   ##           ,######,      #####,   #    #        
            '#,     ,#'  ##    ##  '#,     ,#' ,#      #,         ##   #,  ,#        
             '#######'   ##     ##  '#######'  #'      '#     #####' # '####'        



                  #######################################################
                  #                        -***-                        #
                  #          Department of theory and spectroscopy      #
                  #    Directorship and core code : Frank Neese         #
                  #        Max Planck Institute fuer Kohlenforschung    #
                  #                Kaiser Wilhelm Platz 1               #
                  #                 D-45470 Muelheim/Ruhr               #
                  #                      Germany                        #
                  #                                                     #
                  #                  All rights reserved                #
                  #                        -***-                        #
                  #######################################################


                         Program Version 5.0.2 -  RELEASE  -


 With contributions from (in alphabetic order):
   Daniel Aravena         : Magnetic Suceptibility
   Michael Atanasov       : Ab Initio Ligand Field Theory (pilot matlab implementation)
   Alexander A. Auer      : GIAO ZORA, VPT2 properties, NMR spectrum
   Ute Becker             : Parallelization
   Giovanni Bistoni       : ED, misc. LED, open-shell LED, HFLD
   Martin Brehm           : Molecular dynamics
   Dmytro Bykov           : SCF Hessian
   Vijay G. Chilkuri      : MRCI spin determinant printing, contributions to CSF-ICE
   Dipayan Datta          : RHF DLPNO-CCSD density
   Achintya Kumar Dutta   : EOM-CC, STEOM-CC
   Dmitry Ganyushin       : Spin-Orbit,Spin-Spin,Magnetic field MRCI
   Miquel Garcia          : C-PCM and meta-GGA Hessian, CC/C-PCM, Gaussian charge scheme
   Yang Guo               : DLPNO-NEVPT2, F12-NEVPT2, CIM, IAO-localization
   Andreas Hansen         : Spin unrestricted coupled pair/coupled cluster methods
   Benjamin Helmich-Paris : MC-RPA, TRAH-SCF, COSX integrals
   Lee Huntington         : MR-EOM, pCC
   Robert Izsak           : Overlap fitted RIJCOSX, COSX-SCS-MP3, EOM
   Marcus Kettner         : VPT2
   Christian Kollmar      : KDIIS, OOCD, Brueckner-CCSD(T), CCSD density, CASPT2, CASPT2-K
   Simone Kossmann        : Meta GGA functionals, TD-DFT gradient, OOMP2, MP2 Hessian
   Martin Krupicka        : Initial AUTO-CI
   Lucas Lang             : DCDCAS
   Marvin Lechner         : AUTO-CI (C++ implementation), FIC-MRCC
   Dagmar Lenk            : GEPOL surface, SMD
   Dimitrios Liakos       : Extrapolation schemes; Compound Job, initial MDCI parallelization
   Dimitrios Manganas     : Further ROCIS development; embedding schemes
   Dimitrios Pantazis     : SARC Basis sets
   Anastasios Papadopoulos: AUTO-CI, single reference methods and gradients
   Taras Petrenko         : DFT Hessian,TD-DFT gradient, ASA, ECA, R-Raman, ABS, FL, XAS/XES, NRVS
   Peter Pinski           : DLPNO-MP2, DLPNO-MP2 Gradient
   Christoph Reimann      : Effective Core Potentials
   Marius Retegan         : Local ZFS, SOC
   Christoph Riplinger    : Optimizer, TS searches, QM/MM, DLPNO-CCSD(T), (RO)-DLPNO pert. Triples
   Tobias Risthaus        : Range-separated hybrids, TD-DFT gradient, RPA, STAB
   Michael Roemelt        : Original ROCIS implementation
   Masaaki Saitow         : Open-shell DLPNO-CCSD energy and density
   Barbara Sandhoefer     : DKH picture change effects
   Avijit Sen             : IP-ROCIS
   Kantharuban Sivalingam : CASSCF convergence, NEVPT2, FIC-MRCI
   Bernardo de Souza      : ESD, SOC TD-DFT
   Georgi Stoychev        : AutoAux, RI-MP2 NMR, DLPNO-MP2 response
   Willem Van den Heuvel  : Paramagnetic NMR
   Boris Wezisla          : Elementary symmetry handling
   Frank Wennmohs         : Technical directorship


 We gratefully acknowledge several colleagues who have allowed us to
 interface, adapt or use parts of their codes:
   Stefan Grimme, W. Hujo, H. Kruse, P. Pracht,  : VdW corrections, initial TS optimization,
                  C. Bannwarth, S. Ehlert          DFT functionals, gCP, sTDA/sTD-DF
   Ed Valeev, F. Pavosevic, A. Kumar             : LibInt (2-el integral package), F12 methods
   Garnet Chan, S. Sharma, J. Yang, R. Olivares  : DMRG
   Ulf Ekstrom                                   : XCFun DFT Library
   Mihaly Kallay                                 : mrcc  (arbitrary order and MRCC methods)
   Jiri Pittner, Ondrej Demel                    : Mk-CCSD
   Frank Weinhold                                : gennbo (NPA and NBO analysis)
   Christopher J. Cramer and Donald G. Truhlar   : smd solvation model
   Lars Goerigk                                  : TD-DFT with DH, B97 family of functionals
   V. Asgeirsson, H. Jonsson                     : NEB implementation
   FAccTs GmbH                                   : IRC, NEB, NEB-TS, DLPNO-Multilevel, CI-OPT
                                                   MM, QMMM, 2- and 3-layer-ONIOM, Crystal-QMMM,
                                                   LR-CPCM, SF, NACMEs, symmetry and pop. for TD-DFT,
                                                   nearIR, NL-DFT gradient (VV10), updates on ESD,
                                                   ML-optimized integration grids
   S Lehtola, MJT Oliveira, MAL Marques          : LibXC Library
   Liviu Ungur et al                             : ANISO software


 Your calculation uses the libint2 library for the computation of 2-el integrals
 For citations please refer to: http://libint.valeyev.net

 Your ORCA version has been built with support for libXC version: 5.1.0
 For citations please refer to: https://tddft.org/programs/libxc/

 This ORCA versions uses:
   CBLAS   interface :  Fast vector & matrix operations
   LAPACKE interface :  Fast linear algebra routines
   SCALAPACK package :  Parallel linear algebra routines
   Shared memory     :  Shared parallel matrices
   BLAS/LAPACK       :  OpenBLAS 0.3.15  USE64BITINT DYNAMIC_ARCH NO_AFFINITY SkylakeX SINGLE_THREADED
        Core in use  :  SkylakeX
   Copyright (c) 2011-2014, The OpenBLAS Project


Your calculation utilizes the atom-pairwise dispersion correction
with the Becke-Johnson damping scheme (D3BJ)
Cite in your paper:
S.Grimme, S.Ehrlich, L.Goerigk, J Comput Chem, (2011), 32, 1456–1465 
S.Grimme, J.Antony, S.Ehrlich and H.Krieg, J.Chem.Phys., 132, (2010), 154104 
   

================================================================================

----- Orbital basis set information -----
Your calculation utilizes the basis: def2-TZVP
   F. Weigend and R. Ahlrichs, Phys. Chem. Chem. Phys. 7, 3297 (2005).

----- AuxJ basis set information -----
Your calculation utilizes the auxiliary basis: def2/J
   F. Weigend, Phys. Chem. Chem. Phys. 8, 1057 (2006).

================================================================================
                                        WARNINGS
                       Please study these warnings very carefully!
================================================================================

INFO   : Checking CIS options ...

WARNING: CIS/ROCIS methods need fully converged wavefunctions
  ===> : Setting SCFConvForced true
         You can overwrite this default with %scf ConvForced false 


INFO   : the flag for use of the SHARK integral package has been found!

================================================================================
                                       INPUT FILE
================================================================================
NAME = ox_es1_A_orca0007.inp
|  1> ! engrad PBE0 D3BJ def2-TZVP  
|  2> %pal nprocs 8 end
|  3> %maxcore 3000
|  4> 
|  5> %tddft
|  6>   nroots 1
|  7>   tda true
|  8>   Iroot 1
|  9>   end 
| 10> *xyz 0 1 
| 11> O   -0.06602278065421381 0.7930213882808449 0.014849343661659303
| 12> C   -0.7163649474827062 -0.4296980795251512 -0.034001236078924545
| 13> C   0.7405022248580502 -0.43236686633506594 -0.03571757090131839
| 14> H   -1.170534204442762 -0.6445791639544106 0.8604110451398675
| 15> H   -1.2309950895683084 -0.7170049935113662 -0.8806219898128774
| 16> H   1.32175259895037 -0.7093049759175856 -0.8718074135377839
| 17> H   1.284461916346825 -0.6271678020002754 1.0148158191326972
| 18> *
| 19> 
| 20>                          ****END OF INPUT****
================================================================================

                     *******************************
                     * Energy+Gradient Calculation *
                     *******************************

---------------------------------
CARTESIAN COORDINATES (ANGSTROEM)
---------------------------------
  O     -0.066023    0.793021    0.014849
  C     -0.716365   -0.429698   -0.034001
  C      0.740502   -0.432367   -0.035718
  H     -1.170534   -0.644579    0.860411
  H     -1.230995   -0.717005   -0.880622
  H      1.321753   -0.709305   -0.871807
  H      1.284462   -0.627168    1.014816

----------------------------
CARTESIAN COORDINATES (A.U.)
----------------------------
  NO LB      ZA    FRAG     MASS         X           Y           Z
   0 O     8.0000    0    15.999   -0.124765    1.498593    0.028061
   1 C     6.0000    0    12.011   -1.353734   -0.812012   -0.064253
   2 C     6.0000    0    12.011    1.399346   -0.817055   -0.067496
   3 H     1.0000    0     1.008   -2.211989   -1.218078    1.625941
   4 H     1.0000    0     1.008   -2.326244   -1.354943   -1.664134
   5 H     1.0000    0     1.008    2.497750   -1.340392   -1.647477
   6 H     1.0000    0     1.008    2.427281   -1.185175    1.917724

--------------------------------
INTERNAL COORDINATES (ANGSTROEM)
--------------------------------
 O      0   0   0     0.000000000000     0.00000000     0.00000000
 C      1   0   0     1.385775670896     0.00000000     0.00000000
 C      2   1   0     1.456870627775    62.11883025     0.00000000
 H      2   1   3     1.025873736484   111.21363896   109.43206270
 H      2   1   3     1.031579442709   120.58349254   250.06380580
 H      3   2   1     1.055269131019   123.51948594   249.40403440
 H      3   2   1     1.198941180408   116.93403362    98.12492030

---------------------------
INTERNAL COORDINATES (A.U.)
---------------------------
 O      0   0   0     0.000000000000     0.00000000     0.00000000
 C      1   0   0     2.618736501045     0.00000000     0.00000000
 C      2   1   0     2.753086499048    62.11883025     0.00000000
 H      2   1   3     1.938620409938   111.21363896   109.43206270
 H      2   1   3     1.949402632104   120.58349254   250.06380580
 H      3   2   1     1.994169655207   123.51948594   249.40403440
 H      3   2   1     2.265670481650   116.93403362    98.12492030

---------------------
BASIS SET INFORMATION
---------------------
There are 3 groups of distinct atoms

 Group   1 Type O   : 11s6p2d1f contracted to 5s3p2d1f pattern {62111/411/11/1}
 Group   2 Type C   : 11s6p2d1f contracted to 5s3p2d1f pattern {62111/411/11/1}
 Group   3 Type H   : 5s1p contracted to 3s1p pattern {311/1}

Atom   0O    basis set group =>   1
Atom   1C    basis set group =>   2
Atom   2C    basis set group =>   2
Atom   3H    basis set group =>   3
Atom   4H    basis set group =>   3
Atom   5H    basis set group =>   3
Atom   6H    basis set group =>   3
---------------------------------
AUXILIARY/J BASIS SET INFORMATION
---------------------------------
There are 3 groups of distinct atoms

 Group   1 Type O   : 12s5p4d2f1g contracted to 6s4p3d1f1g pattern {711111/2111/211/2/1}
 Group   2 Type C   : 12s5p4d2f1g contracted to 6s4p3d1f1g pattern {711111/2111/211/2/1}
 Group   3 Type H   : 5s2p1d contracted to 3s1p1d pattern {311/2/1}

Atom   0O    basis set group =>   1
Atom   1C    basis set group =>   2
Atom   2C    basis set group =>   2
Atom   3H    basis set group =>   3
Atom   4H    basis set group =>   3
Atom   5H    basis set group =>   3
Atom   6H    basis set group =>   3

Checking for AutoStart:
The File: ox_es1_A_orca0007.gbw exists
Trying to determine its content:
     ... Fine, the file contains calculation information
     ... Fine, the calculation information was read
     ... Fine, the file contains a basis set
     ... Fine, the basis set was read
     ... Fine, the file contains a geometry
     ... Fine, the geometry was read
     ... Fine, the file contains a set of orbitals
     ... Fine, the orbitals can be read
     => possible old guess file was deleted
     => GBW file was renamed to GES file
     => GES file is set as startup file
     => Guess is set to MORead
     ... now leaving AutoStart



           ************************************************************
           *        Program running with 8 parallel MPI-processes     *
           *              working on a common directory               *
           ************************************************************
------------------------------------------------------------------------------
                           ORCA GTO INTEGRAL CALCULATION
                           -- RI-GTO INTEGRALS CHOSEN --
------------------------------------------------------------------------------
------------------------------------------------------------------------------
                   ___                                                        
                  /   \      - P O W E R E D   B Y -                         
                 /     \                                                     
                 |  |  |   _    _      __       _____    __    __             
                 |  |  |  | |  | |    /  \     |  _  \  |  |  /  |          
                  \  \/   | |  | |   /    \    | | | |  |  | /  /          
                 / \  \   | |__| |  /  /\  \   | |_| |  |  |/  /          
                |  |  |   |  __  | /  /__\  \  |    /   |      \           
                |  |  |   | |  | | |   __   |  |    \   |  |\   \          
                \     /   | |  | | |  |  |  |  | |\  \  |  | \   \       
                 \___/    |_|  |_| |__|  |__|  |_| \__\ |__|  \__/        
                                                                              
                      - O R C A' S   B I G   F R I E N D -                    
                                      &                                       
                       - I N T E G R A L  F E E D E R -                       
                                                                              
 v1 FN, 2020, v2 2021                                                         
------------------------------------------------------------------------------


Reading SHARK input file ox_es1_A_orca0007.SHARKINP.tmp ... ok
----------------------
SHARK INTEGRAL PACKAGE
----------------------

Number of atoms                             ...      7
Number of basis functions                   ...    117
Number of shells                            ...     49
Maximum angular momentum                    ...      3
Integral batch strategy                     ... SHARK/LIBINT Hybrid
RI-J (if used) integral strategy            ... SPLIT-RIJ (Revised 2003 algorithm where possible)
Printlevel                                  ...      1
Contraction scheme used                     ... SEGMENTED contraction
Coulomb Range Separation                    ... NOT USED
Exchange Range Separation                   ... NOT USED
Finite Nucleus Model                        ... NOT USED
Auxiliary Coulomb fitting basis             ... AVAILABLE
   # of basis functions in Aux-J            ...    191
   # of shells in Aux-J                     ...     65
   Maximum angular momentum in Aux-J        ...      4
Auxiliary J/K fitting basis                 ... NOT available
Auxiliary Correlation fitting basis         ... NOT available
Auxiliary 'external' fitting basis          ... NOT available
Integral threshold                          ...     2.500000e-11
Primitive cut-off                           ...     2.500000e-12
Primitive pair pre-selection threshold      ...     2.500000e-12

Calculating pre-screening integrals         ... done (  0.0 sec) Dimension = 49
Organizing shell pair data                  ... done (  0.0 sec)
Shell pair information
Total number of shell pairs                 ...      1225
Shell pairs after pre-screening             ...      1220
Total number of primitive shell pairs       ...      3648
Primitive shell pairs kept                  ...      3153
          la=0 lb=0:    373 shell pairs
          la=1 lb=0:    351 shell pairs
          la=1 lb=1:     91 shell pairs
          la=2 lb=0:    162 shell pairs
          la=2 lb=1:     78 shell pairs
          la=2 lb=2:     21 shell pairs
          la=3 lb=0:     81 shell pairs
          la=3 lb=1:     39 shell pairs
          la=3 lb=2:     18 shell pairs
          la=3 lb=3:      6 shell pairs

Calculating one electron integrals          ... done (  0.0 sec)
Calculating RI/J V-Matrix + Cholesky decomp.... done (  0.0 sec)
Calculating Nuclear repulsion               ... done (  0.0 sec) ENN=     75.630787143768 Eh

SHARK setup successfully completed in   0.1 seconds

Maximum memory used throughout the entire GTOINT-calculation: 14.9 MB


           ************************************************************
           *        Program running with 8 parallel MPI-processes     *
           *              working on a common directory               *
           ************************************************************
-------------------------------------------------------------------------------
                                 ORCA SCF
-------------------------------------------------------------------------------

------------
SCF SETTINGS
------------
Hamiltonian:
 Density Functional     Method          .... DFT(GTOs)
 Exchange Functional    Exchange        .... PBE
   PBE kappa parameter   XKappa         ....  0.804000
   PBE mue parameter    XMuePBE         ....  0.219520
 Correlation Functional Correlation     .... PBE
   PBE beta parameter  CBetaPBE         ....  0.066725
 LDA part of GGA corr.  LDAOpt          .... PW91-LDA
 Gradients option       PostSCFGGA      .... off
 Hybrid DFT is turned on
   Fraction HF Exchange ScalHFX         ....  0.250000
   Scaling of DF-GGA-X  ScalDFX         ....  0.750000
   Scaling of DF-GGA-C  ScalDFC         ....  1.000000
   Scaling of DF-LDA-C  ScalLDAC        ....  1.000000
   Perturbative correction              ....  0.000000
   Density functional embedding theory  .... OFF
   NL short-range parameter             ....  6.900000
 RI-approximation to the Coulomb term is turned on
   Number of AuxJ basis functions       .... 191
   RIJ-COSX (HFX calculated with COS-X)).... on


General Settings:
 Integral files         IntName         .... ox_es1_A_orca0007
 Hartree-Fock type      HFTyp           .... RHF
 Total Charge           Charge          ....    0
 Multiplicity           Mult            ....    1
 Number of Electrons    NEL             ....   24
 Basis Dimension        Dim             ....  117
 Nuclear Repulsion      ENuc            ....     75.6307871438 Eh

Convergence Acceleration:
 DIIS                   CNVDIIS         .... on
   Start iteration      DIISMaxIt       ....    12
   Startup error        DIISStart       ....  0.200000
   # of expansion vecs  DIISMaxEq       ....     5
   Bias factor          DIISBfac        ....   1.050
   Max. coefficient     DIISMaxC        ....  10.000
 Trust-Rad. Augm. Hess. CNVTRAH         .... auto
   Auto Start mean grad. ratio tolernc. ....  1.125000
   Auto Start start iteration           ....     1
   Auto Start num. interpolation iter.  ....    10
   Max. Number of Micro iterations      ....    16
   Max. Number of Macro iterations      .... Maxiter - #DIIS iter
   Number of Davidson start vectors     ....     2
   Converg. threshold I  (grad. norm)   ....   1.000e-05
   Converg. threshold II (energy diff.) ....   1.000e-08
   Grad. Scal. Fac. for Micro threshold ....   0.100
   Minimum threshold for Micro iter.    ....   0.010
   NR start threshold (gradient norm)   ....   0.001
   Initial trust radius                 ....   0.400
   Minimum AH scaling param. (alpha)    ....   1.000
   Maximum AH scaling param. (alpha)    .... 1000.000
   Orbital update algorithm             .... Taylor
   White noise on init. David. guess    .... on
   Maximum white noise                  ....   0.010
   Quad. conv. algorithm                .... NR
 SOSCF                  CNVSOSCF        .... on
   Start iteration      SOSCFMaxIt      ....   150
   Startup grad/error   SOSCFStart      ....  0.003300
 Level Shifting         CNVShift        .... on
   Level shift para.    LevelShift      ....    0.2500
   Turn off err/grad.   ShiftErr        ....    0.0010
 Zerner damping         CNVZerner       .... off
 Static damping         CNVDamp         .... on
   Fraction old density DampFac         ....    0.7000
   Max. Damping (<1)    DampMax         ....    0.9800
   Min. Damping (>=0)   DampMin         ....    0.0000
   Turn off err/grad.   DampErr         ....    0.1000
 Fernandez-Rico         CNVRico         .... off

SCF Procedure:
 Maximum # iterations   MaxIter         ....   125
 SCF integral mode      SCFMode         .... Direct
   Integral package                     .... SHARK and LIBINT hybrid scheme
 Reset frequency        DirectResetFreq ....    20
 Integral Threshold     Thresh          ....  2.500e-11 Eh
 Primitive CutOff       TCut            ....  2.500e-12 Eh

Convergence Tolerance:
 Convergence Check Mode ConvCheckMode   .... Total+1el-Energy
 Convergence forced     ConvForced      .... 1
 Energy Change          TolE            ....  1.000e-08 Eh
 1-El. energy change                    ....  1.000e-05 Eh
 Orbital Gradient       TolG            ....  1.000e-05
 Orbital Rotation angle TolX            ....  1.000e-05
 DIIS Error             TolErr          ....  5.000e-07


Diagonalization of the overlap matrix:
Smallest eigenvalue                        ... 3.671e-04
Time for diagonalization                   ...    0.001 sec
Threshold for overlap eigenvalues          ... 1.000e-08
Number of eigenvalues below threshold      ... 0
Time for construction of square roots      ...    0.001 sec
Total time needed                          ...    0.003 sec

---------------------
INITIAL GUESS: MOREAD
---------------------
Guess MOs are being read from file: ox_es1_A_orca0007.ges
Input Geometry matches current geometry (good)
Input basis set matches current basis set (good)
MOs were renormalized
MOs were reorthogonalized (Cholesky)
                      ------------------
                      INITIAL GUESS DONE (   0.0 sec)
                      ------------------
-------------------
DFT GRID GENERATION
-------------------

General Integration Accuracy     IntAcc      ... 4.388
Radial Grid Type                 RadialGrid  ... OptM3 with GC (2021)
Angular Grid (max. ang.)         AngularGrid ... 4 (Lebedev-302)
Angular grid pruning method      GridPruning ... 4 (adaptive)
Weight generation scheme         WeightScheme... Becke
Basis function cutoff            BFCut       ... 1.0000e-11
Integration weight cutoff        WCut        ... 1.0000e-14
Angular grids for H and He will be reduced by one unit
Partially contracted basis set               ... off
Rotationally invariant grid construction     ... off

Total number of grid points                  ...    31286
Total number of batches                      ...      493
Average number of points per batch           ...       63
Average number of grid points per atom       ...     4469
Time for grid setup =    0.121 sec

--------------------
COSX GRID GENERATION
--------------------

GRIDX 1
-------
General Integration Accuracy     IntAcc      ... 3.816
Radial Grid Type                 RadialGrid  ... OptM3 with GC (2021)
Angular Grid (max. ang.)         AngularGrid ... 1 (Lebedev-50)
Angular grid pruning method      GridPruning ... 4 (adaptive)
Weight generation scheme         WeightScheme... Becke
Basis function cutoff            BFCut       ... 1.0000e-11
Integration weight cutoff        WCut        ... 1.0000e-14
Angular grids for H and He will be reduced by one unit
Partially contracted basis set               ... on
Rotationally invariant grid construction     ... off

Total number of grid points                  ...     4037
Total number of batches                      ...       67
Average number of points per batch           ...       60
Average number of grid points per atom       ...      577
UseSFitting                                  ... on

GRIDX 2
-------
General Integration Accuracy     IntAcc      ... 4.020
Radial Grid Type                 RadialGrid  ... OptM3 with GC (2021)
Angular Grid (max. ang.)         AngularGrid ... 2 (Lebedev-110)
Angular grid pruning method      GridPruning ... 4 (adaptive)
Weight generation scheme         WeightScheme... Becke
Basis function cutoff            BFCut       ... 1.0000e-11
Integration weight cutoff        WCut        ... 1.0000e-14
Angular grids for H and He will be reduced by one unit
Partially contracted basis set               ... on
Rotationally invariant grid construction     ... off

Total number of grid points                  ...     8710
Total number of batches                      ...      139
Average number of points per batch           ...       62
Average number of grid points per atom       ...     1244
UseSFitting                                  ... on

GRIDX 3
-------
General Integration Accuracy     IntAcc      ... 4.338
Radial Grid Type                 RadialGrid  ... OptM3 with GC (2021)
Angular Grid (max. ang.)         AngularGrid ... 3 (Lebedev-194)
Angular grid pruning method      GridPruning ... 4 (adaptive)
Weight generation scheme         WeightScheme... Becke
Basis function cutoff            BFCut       ... 1.0000e-11
Integration weight cutoff        WCut        ... 1.0000e-14
Angular grids for H and He will be reduced by one unit
Partially contracted basis set               ... on
Rotationally invariant grid construction     ... off

Total number of grid points                  ...    19256
Total number of batches                      ...      303
Average number of points per batch           ...       63
Average number of grid points per atom       ...     2751
UseSFitting                                  ... on

Time for X-Grid setup             =    0.073 sec

--------------
SCF ITERATIONS
--------------
ITER       Energy         Delta-E        Max-DP      RMS-DP      [F,P]     Damp
               ***  Starting incremental Fock matrix formation  ***
                      *** Initiating the SOSCF procedure ***
                      *** Re-Reading the Fockian *** 
                      *** Removing any level shift *** 
ITER      Energy       Delta-E        Grad      Rot      Max-DP    RMS-DP
  0   -153.65709260 -153.6570925954  0.000001  0.000001  0.000001  0.000000
               *** Restarting incremental Fock matrix formation ***
                  ***Gradient check signals convergence***
              ***Rediagonalizing the Fockian in SOSCF/NRSCF***

               *****************************************************
               *                     SUCCESS                       *
               *           SCF CONVERGED AFTER   1 CYCLES          *
               *****************************************************

Old exchange energy                            =     -5.003061758 Eh
New exchange energy                            =     -5.003057719 Eh
Exchange energy change after final integration =      0.000004039 Eh
Total energy after final integration           =   -153.657088556 Eh
Final COS-X integration done in                =     0.250 sec

----------------
TOTAL SCF ENERGY
----------------

Total Energy       :         -153.65708856 Eh           -4181.22195 eV

Components:
Nuclear Repulsion  :           75.63078714 Eh            2058.01835 eV
Electronic Energy  :         -229.28787570 Eh           -6239.24029 eV
One Electron Energy:         -357.88373572 Eh           -9738.51155 eV
Two Electron Energy:          128.59586002 Eh            3499.27125 eV
Max COSX asymmetry :            0.00000156 Eh               0.00004 eV

Virial components:
Potential Energy   :         -306.73270718 Eh           -8346.62130 eV
Kinetic Energy     :          153.07561862 Eh            4165.39935 eV
Virial Ratio       :            2.00379858


DFT components:
N(Alpha)           :       12.000003430907 electrons
N(Beta)            :       12.000003430907 electrons
N(Total)           :       24.000006861814 electrons
E(X)               :      -14.977774975882 Eh       
E(C)               :       -0.791371085223 Eh       
E(XC)              :      -15.769146061105 Eh       
DFET-embed. en.    :        0.000000000000 Eh       

---------------
SCF CONVERGENCE
---------------

  Last Energy change         ...   -6.5086e-12  Tolerance :   1.0000e-08
  Last MAX-Density change    ...    1.1102e-15  Tolerance :   1.0000e-07
  Last RMS-Density change    ...    1.9701e-17  Tolerance :   5.0000e-09
  Last Orbital Gradient      ...    4.4018e-07  Tolerance :   1.0000e-05
  Last Orbital Rotation      ...    6.2095e-07  Tolerance :   1.0000e-05

             **** THE GBW FILE WAS UPDATED (ox_es1_A_orca0007.gbw) ****
             **** DENSITY ox_es1_A_orca0007.scfp WAS UPDATED ****
             **** ENERGY FILE WAS UPDATED (ox_es1_A_orca0007.en.tmp) ****
             **** THE GBW FILE WAS UPDATED (ox_es1_A_orca0007.gbw) ****
             **** DENSITY ox_es1_A_orca0007.scfp WAS UPDATED ****
----------------
ORBITAL ENERGIES
----------------

  NO   OCC          E(Eh)            E(eV) 
   0   2.0000     -19.224562      -523.1269 
   1   2.0000     -10.283365      -279.8246 
   2   2.0000     -10.260672      -279.2071 
   3   2.0000      -1.108997       -30.1773 
   4   2.0000      -0.706713       -19.2306 
   5   2.0000      -0.657898       -17.9023 
   6   2.0000      -0.535546       -14.5730 
   7   2.0000      -0.503795       -13.7090 
   8   2.0000      -0.425616       -11.5816 
   9   2.0000      -0.387441       -10.5428 
  10   2.0000      -0.331007        -9.0072 
  11   2.0000      -0.291659        -7.9364 
  12   0.0000       0.060182         1.6376 
  13   0.0000       0.069476         1.8905 
  14   0.0000       0.087109         2.3704 
  15   0.0000       0.101205         2.7539 
  16   0.0000       0.111405         3.0315 
  17   0.0000       0.156793         4.2666 
  18   0.0000       0.190069         5.1721 
  19   0.0000       0.216342         5.8870 
  20   0.0000       0.267092         7.2679 
  21   0.0000       0.270170         7.3517 
  22   0.0000       0.299572         8.1518 
  23   0.0000       0.332098         9.0369 
  24   0.0000       0.382961        10.4209 
  25   0.0000       0.391946        10.6654 
  26   0.0000       0.405815        11.0428 
  27   0.0000       0.435991        11.8639 
  28   0.0000       0.450106        12.2480 
  29   0.0000       0.466406        12.6916 
  30   0.0000       0.511026        13.9057 
  31   0.0000       0.520401        14.1608 
  32   0.0000       0.548049        14.9132 
  33   0.0000       0.692872        18.8540 
  34   0.0000       0.709530        19.3073 
  35   0.0000       0.732488        19.9320 
  36   0.0000       0.827110        22.5068 
  37   0.0000       0.882813        24.0226 
  38   0.0000       0.889382        24.2013 
  39   0.0000       0.943111        25.6634 
  40   0.0000       1.014809        27.6144 
  41   0.0000       1.036034        28.1919 
  42   0.0000       1.070649        29.1338 
  43   0.0000       1.087292        29.5867 
  44   0.0000       1.159990        31.5649 
  45   0.0000       1.356848        36.9217 
  46   0.0000       1.458290        39.6821 
  47   0.0000       1.491363        40.5821 
  48   0.0000       1.512148        41.1476 
  49   0.0000       1.519247        41.3408 
  50   0.0000       1.583172        43.0803 
  51   0.0000       1.628399        44.3110 
  52   0.0000       1.668387        45.3991 
  53   0.0000       1.701517        46.3006 
  54   0.0000       1.797239        48.9053 
  55   0.0000       1.800512        48.9944 
  56   0.0000       1.846942        50.2578 
  57   0.0000       1.907787        51.9135 
  58   0.0000       1.923501        52.3411 
  59   0.0000       1.966317        53.5062 
  60   0.0000       2.145647        58.3860 
  61   0.0000       2.158735        58.7422 
  62   0.0000       2.190309        59.6013 
  63   0.0000       2.253869        61.3309 
  64   0.0000       2.269198        61.7480 
  65   0.0000       2.420946        65.8773 
  66   0.0000       2.466781        67.1245 
  67   0.0000       2.527292        68.7711 
  68   0.0000       2.571697        69.9794 
  69   0.0000       2.591645        70.5222 
  70   0.0000       2.638309        71.7920 
  71   0.0000       2.667886        72.5969 
  72   0.0000       2.673035        72.7370 
  73   0.0000       2.698902        73.4409 
  74   0.0000       2.766639        75.2841 
  75   0.0000       2.828991        76.9807 
  76   0.0000       2.844408        77.4003 
  77   0.0000       2.941879        80.0526 
  78   0.0000       3.003525        81.7301 
  79   0.0000       3.025677        82.3329 
  80   0.0000       3.065958        83.4290 
  81   0.0000       3.102031        84.4105 
  82   0.0000       3.139854        85.4398 
  83   0.0000       3.238757        88.1311 
  84   0.0000       3.318014        90.2878 
  85   0.0000       3.342722        90.9601 
  86   0.0000       3.397655        92.4549 
  87   0.0000       3.435477        93.4841 
  88   0.0000       3.585890        97.5770 
  89   0.0000       3.637142        98.9717 
  90   0.0000       3.695272       100.5535 
  91   0.0000       3.711941       101.0071 
  92   0.0000       3.886937       105.7689 
  93   0.0000       4.057737       110.4166 
  94   0.0000       4.099974       111.5660 
  95   0.0000       4.136936       112.5718 
  96   0.0000       4.268017       116.1387 
  97   0.0000       4.329806       117.8200 
  98   0.0000       4.419177       120.2519 
  99   0.0000       4.601346       125.2090 
 100   0.0000       4.700272       127.9009 
 101   0.0000       4.874543       132.6431 
 102   0.0000       5.301601       144.2639 
 103   0.0000       5.448769       148.2685 
 104   0.0000       5.678307       154.5146 
 105   0.0000       5.774390       157.1291 
 106   0.0000       5.846722       159.0974 
 107   0.0000       5.892302       160.3377 
 108   0.0000       6.067879       165.1154 
 109   0.0000       6.604223       179.7100 
 110   0.0000       6.625582       180.2913 
 111   0.0000       6.801149       185.0687 
 112   0.0000       6.964682       189.5186 
 113   0.0000       7.181040       195.4060 
 114   0.0000      22.224700       604.7648 
 115   0.0000      22.663237       616.6980 
 116   0.0000      43.862315      1193.5543 

                    ********************************
                    * MULLIKEN POPULATION ANALYSIS *
                    ********************************

-----------------------
MULLIKEN ATOMIC CHARGES
-----------------------
   0 O :   -0.315170
   1 C :   -0.035145
   2 C :   -0.101750
   3 H :    0.102201
   4 H :    0.107588
   5 H :    0.129901
   6 H :    0.112376
Sum of atomic charges:    0.0000000

--------------------------------
MULLIKEN REDUCED ORBITAL CHARGES
--------------------------------
  0 O s       :     3.857178  s :     3.857178
      pz      :     1.838104  p :     4.412497
      px      :     1.311489
      py      :     1.262903
      dz2     :     0.005779  d :     0.043266
      dxz     :     0.002612
      dyz     :     0.006872
      dx2y2   :     0.012364
      dxy     :     0.015639
      f0      :     0.000263  f :     0.002229
      f+1     :     0.000197
      f-1     :     0.000471
      f+2     :     0.000097
      f-2     :     0.000207
      f+3     :     0.000394
      f-3     :     0.000601
  1 C s       :     3.194080  s :     3.194080
      pz      :     1.046520  p :     2.710035
      px      :     0.905834
      py      :     0.757681
      dz2     :     0.004987  d :     0.118730
      dxz     :     0.024692
      dyz     :     0.035320
      dx2y2   :     0.030818
      dxy     :     0.022914
      f0      :     0.001731  f :     0.012301
      f+1     :     0.001329
      f-1     :     0.000773
      f+2     :     0.001437
      f-2     :     0.001722
      f+3     :     0.002035
      f-3     :     0.003274
  2 C s       :     3.239276  s :     3.239276
      pz      :     1.037859  p :     2.745766
      px      :     0.913111
      py      :     0.794795
      dz2     :     0.006527  d :     0.105477
      dxz     :     0.026573
      dyz     :     0.027139
      dx2y2   :     0.025675
      dxy     :     0.019563
      f0      :     0.001456  f :     0.011231
      f+1     :     0.001318
      f-1     :     0.000567
      f+2     :     0.001227
      f-2     :     0.001680
      f+3     :     0.002227
      f-3     :     0.002756
  3 H s       :     0.874693  s :     0.874693
      pz      :     0.011544  p :     0.023106
      px      :     0.006672
      py      :     0.004891
  4 H s       :     0.869840  s :     0.869840
      pz      :     0.010562  p :     0.022571
      px      :     0.007292
      py      :     0.004716
  5 H s       :     0.847532  s :     0.847532
      pz      :     0.010126  p :     0.022567
      px      :     0.007765
      py      :     0.004677
  6 H s       :     0.870188  s :     0.870188
      pz      :     0.009900  p :     0.017437
      px      :     0.004681
      py      :     0.002856


                     *******************************
                     * LOEWDIN POPULATION ANALYSIS *
                     *******************************

----------------------
LOEWDIN ATOMIC CHARGES
----------------------
   0 O :    0.131660
   1 C :   -0.321011
   2 C :   -0.263541
   3 H :    0.103877
   4 H :    0.103136
   5 H :    0.107899
   6 H :    0.137981

-------------------------------
LOEWDIN REDUCED ORBITAL CHARGES
-------------------------------
  0 O s       :     3.381519  s :     3.381519
      pz      :     1.719627  p :     4.385595
      px      :     1.294414
      py      :     1.371554
      dz2     :     0.011636  d :     0.094363
      dxz     :     0.007866
      dyz     :     0.015514
      dx2y2   :     0.033308
      dxy     :     0.026039
      f0      :     0.000652  f :     0.006864
      f+1     :     0.000259
      f-1     :     0.000922
      f+2     :     0.000217
      f-2     :     0.000940
      f+3     :     0.001258
      f-3     :     0.002616
  1 C s       :     2.789830  s :     2.789830
      pz      :     1.057378  p :     2.924884
      px      :     1.035076
      py      :     0.832430
      dz2     :     0.057191  d :     0.523615
      dxz     :     0.130784
      dyz     :     0.105477
      dx2y2   :     0.119663
      dxy     :     0.110500
      f0      :     0.011674  f :     0.082682
      f+1     :     0.006320
      f-1     :     0.006859
      f+2     :     0.009754
      f-2     :     0.007882
      f+3     :     0.015573
      f-3     :     0.024620
  2 C s       :     2.837709  s :     2.837709
      pz      :     1.045707  p :     2.917603
      px      :     1.038825
      py      :     0.833072
      dz2     :     0.049685  d :     0.442767
      dxz     :     0.131723
      dyz     :     0.073707
      dx2y2   :     0.095701
      dxy     :     0.091952
      f0      :     0.008584  f :     0.065461
      f+1     :     0.005334
      f-1     :     0.004957
      f+2     :     0.007236
      f-2     :     0.006647
      f+3     :     0.014309
      f-3     :     0.018395
  3 H s       :     0.825676  s :     0.825676
      pz      :     0.036156  p :     0.070448
      px      :     0.019200
      py      :     0.015092
  4 H s       :     0.827285  s :     0.827285
      pz      :     0.033750  p :     0.069579
      px      :     0.020948
      py      :     0.014881
  5 H s       :     0.823693  s :     0.823693
      pz      :     0.032509  p :     0.068407
      px      :     0.021544
      py      :     0.014354
  6 H s       :     0.815991  s :     0.815991
      pz      :     0.027109  p :     0.046029
      px      :     0.011284
      py      :     0.007636


                      *****************************
                      * MAYER POPULATION ANALYSIS *
                      *****************************

  NA   - Mulliken gross atomic population
  ZA   - Total nuclear charge
  QA   - Mulliken gross atomic charge
  VA   - Mayer's total valence
  BVA  - Mayer's bonded valence
  FA   - Mayer's free valence

  ATOM       NA         ZA         QA         VA         BVA        FA
  0 O      8.3152     8.0000    -0.3152     2.0023     2.0023     0.0000
  1 C      6.0351     6.0000    -0.0351     4.0029     4.0029     0.0000
  2 C      6.1018     6.0000    -0.1018     3.9498     3.9498     0.0000
  3 H      0.8978     1.0000     0.1022     0.9609     0.9609     0.0000
  4 H      0.8924     1.0000     0.1076     0.9562     0.9562     0.0000
  5 H      0.8701     1.0000     0.1299     0.9558     0.9558     0.0000
  6 H      0.8876     1.0000     0.1124     0.9652     0.9652     0.0000

  Mayer bond orders larger than 0.100000
B(  0-O ,  1-C ) :   1.0023 B(  0-O ,  2-C ) :   0.9799 B(  1-C ,  2-C ) :   1.0633 
B(  1-C ,  3-H ) :   0.9662 B(  1-C ,  4-H ) :   0.9561 B(  2-C ,  5-H ) :   0.9484 
B(  2-C ,  6-H ) :   0.9495 

-------
TIMINGS
-------

Total SCF time: 0 days 0 hours 0 min 0 sec 

Total time                  ....       0.988 sec
Sum of individual times     ....       0.893 sec  ( 90.4%)

Fock matrix formation       ....       0.682 sec  ( 69.1%)
  Split-RI-J                ....       0.114 sec  ( 16.7% of F)
  Chain of spheres X        ....       0.504 sec  ( 73.9% of F)
  XC integration            ....       0.062 sec  (  9.1% of F)
    Basis function eval.    ....       0.017 sec  ( 27.4% of XC)
    Density eval.           ....       0.014 sec  ( 21.8% of XC)
    XC-Functional eval.     ....       0.004 sec  (  5.8% of XC)
    XC-Potential eval.      ....       0.021 sec  ( 33.2% of XC)
Diagonalization             ....       0.002 sec  (  0.2%)
Density matrix formation    ....       0.000 sec  (  0.0%)
Population analysis         ....       0.002 sec  (  0.2%)
Initial guess               ....       0.009 sec  (  0.9%)
Orbital Transformation      ....       0.000 sec  (  0.0%)
Orbital Orthonormalization  ....       0.001 sec  (  0.1%)
DIIS solution               ....       0.001 sec  (  0.1%)
SOSCF solution              ....       0.002 sec  (  0.2%)
Grid generation             ....       0.194 sec  ( 19.6%)

Maximum memory used throughout the entire SCF-calculation: 61.1 MB


           ************************************************************
           *        Program running with 8 parallel MPI-processes     *
           *              working on a common directory               *
           ************************************************************
------------------------------------------------------------------------------
                        ORCA TD-DFT/TDA CALCULATION
------------------------------------------------------------------------------

Input orbitals are from        ... ox_es1_A_orca0007.gbw
CI-vector output               ... ox_es1_A_orca0007.cis
Tamm-Dancoff approximation     ... operative
CIS-Integral strategy          ... AO-integrals
Integral handling              ... AO integral Direct
Max. core memory used          ... 3000 MB
Reference state                ... RHF
Generation of triplets         ... off
Follow IRoot                   ... off
Number of operators            ... 1
Orbital ranges used for CIS calculation:
 Operator 0:  Orbitals   3... 11  to  12...116
XAS localization array:
 Operator 0:  Orbitals  -1... -1

-------------------
XC-INTEGRATION GRID
-------------------

General Integration Accuracy     IntAcc      ... 3.467
Radial Grid Type                 RadialGrid  ... OptM3 with GC (2021)
Angular Grid (max. ang.)         AngularGrid ... 1 (Lebedev-50)
Angular grid pruning method      GridPruning ... 4 (adaptive)
Weight generation scheme         WeightScheme... Becke
Basis function cutoff            BFCut       ... 1.0000e-11
Integration weight cutoff        WCut        ... 1.0000e-14
Angular grids for H and He will be reduced by one unit
Partially contracted basis set               ... off
Rotationally invariant grid construction     ... off

Total number of grid points                  ...     4537
Total number of batches                      ...       75
Average number of points per batch           ...       60
Average number of grid points per atom       ...      648

---------------------
COSX-INTEGRATION GRID
---------------------

General Integration Accuracy     IntAcc      ... 3.067
Radial Grid Type                 RadialGrid  ... OptM3 with GC (2021)
Angular Grid (max. ang.)         AngularGrid ... 1 (Lebedev-50)
Angular grid pruning method      GridPruning ... 4 (adaptive)
Weight generation scheme         WeightScheme... Becke
Basis function cutoff            BFCut       ... 1.0000e-11
Integration weight cutoff        WCut        ... 1.0000e-14
Angular grids for H and He will be reduced by one unit
Partially contracted basis set               ... on
Rotationally invariant grid construction     ... off

Total number of grid points                  ...     2086
Total number of batches                      ...       37
Average number of points per batch           ...       56
Average number of grid points per atom       ...      298

---------------
TD-DFT XC SETUP
---------------

DFT calculation                         ... on
Name of the grid file                   ... ox_es1_A_orca0007.grid_cis.tmp
Exchange functional (TD-DFT)            ... PBE
   PBE kappa parameter  XKappa (TD-DFT) ...  0.804000
   PBE mue parameter   XMuePBE (TD-DFT) ...  0.219520
Correlation functional (TD-DFT)         ... PBE
   PBE beta parameter CBetaPBE (TD-DFT) ...  0.066725
 LDA part of GGA corr.  LDAOpt (TD-DFT) ... PW91-LDA
Hybrid DFT                              ... on
   Exchange mixing (TD-DFT)             ...  0.250
   GGA exch. scaling (TD-DFT)           ...  0.750
   GGA corr. scaling (TD-DFT)           ...  1.000

Building densities             ... done
Calculating rho(r) on the grid ... done
Building xc-kernel on the grid ... done
                    *** TD-DFT CALCULATION INITIALIZED ***

------------------------
DAVIDSON-DIAGONALIZATION
------------------------

Dimension of the eigenvalue problem            ...    945
Number of roots to be determined               ...      1
Maximum size of the expansion space            ...     10
Maximum number of iterations                   ...    100
Convergence tolerance for the residual         ...    2.500e-07
Convergence tolerance for the energies         ...    2.500e-07
Orthogonality tolerance                        ...    1.000e-14
Level Shift                                    ...    0.000e+00
Constructing the preconditioner                ... o.k.
Building the initial guess                     ... o.k.
Number of trial vectors determined             ...     10


                       ****Iteration    0****

   Memory handling for direct AO based CIS:
   Memory per vector needed      ...     1 MB
   Memory needed                 ...     1 MB
   Memory available              ...  3000 MB
   Number of vectors per batch   ...  3000
   Number of batches             ...     1
   Time for densities:            0.000
   Time for RI-J (Direct):        0.016
   Time for K (COSX):             0.055
   Time for XC-Integration:       0.016
   Time for Sigma-Completion:     0.000
   Size of expansion space: 3
   Lowest Energy          :     0.293992269410
   Maximum Energy change  :     0.293992269410 (vector 0)
   Maximum residual norm  :     0.004446545620

                       ****Iteration    1****
   Time for densities:            0.000
   Time for RI-J (Direct):        0.012
   Time for K (COSX):             0.049
   Time for XC-Integration:       0.006
   Time for Sigma-Completion:     0.000
   Size of expansion space: 4
   Lowest Energy          :     0.289631732679
   Maximum Energy change  :     0.004360536731 (vector 0)
   Maximum residual norm  :     0.000884014051

                       ****Iteration    2****
   Time for densities:            0.000
   Time for RI-J (Direct):        0.012
   Time for K (COSX):             0.049
   Time for XC-Integration:       0.007
   Time for Sigma-Completion:     0.000
   Size of expansion space: 5
   Lowest Energy          :     0.288388329456
   Maximum Energy change  :     0.001243403223 (vector 0)
   Maximum residual norm  :     0.000303164125

                       ****Iteration    3****
   Time for densities:            0.000
   Time for RI-J (Direct):        0.012
   Time for K (COSX):             0.049
   Time for XC-Integration:       0.007
   Time for Sigma-Completion:     0.000
   Size of expansion space: 6
   Lowest Energy          :     0.288057269245
   Maximum Energy change  :     0.000331060211 (vector 0)
   Maximum residual norm  :     0.000057523638

                       ****Iteration    4****
   Time for densities:            0.000
   Time for RI-J (Direct):        0.012
   Time for K (COSX):             0.049
   Time for XC-Integration:       0.007
   Time for Sigma-Completion:     0.000
   Size of expansion space: 7
   Lowest Energy          :     0.287952782876
   Maximum Energy change  :     0.000104486369 (vector 0)
   Maximum residual norm  :     0.000017465101

                       ****Iteration    5****
   Time for densities:            0.000
   Time for RI-J (Direct):        0.012
   Time for K (COSX):             0.049
   Time for XC-Integration:       0.007
   Time for Sigma-Completion:     0.000
   Size of expansion space: 8
   Lowest Energy          :     0.287932202829
   Maximum Energy change  :     0.000020580046 (vector 0)
   Maximum residual norm  :     0.000002011424

                       ****Iteration    6****
   Time for densities:            0.000
   Time for RI-J (Direct):        0.012
   Time for K (COSX):             0.049
   Time for XC-Integration:       0.007
   Time for Sigma-Completion:     0.000
   Size of expansion space: 9
   Lowest Energy          :     0.287929713101
   Maximum Energy change  :     0.000002489728 (vector 0)
   Maximum residual norm  :     0.000000292027

                       ****Iteration    7****
   Time for densities:            0.000
   Time for RI-J (Direct):        0.012
   Time for K (COSX):             0.050
   Time for XC-Integration:       0.007
   Time for Sigma-Completion:     0.000
   Size of expansion space: 10
   Lowest Energy          :     0.287929265106
   Maximum Energy change  :     0.000000447995 (vector 0)
   Maximum residual norm  :     0.000000028846

      *** CONVERGENCE OF RESIDUAL NORM REACHED ***

Storing the converged CI vectors               ... ox_es1_A_orca0007.cis1

                 *** DAVIDSON DONE ***

Total time for solving the CIS problem:     0.570sec

------------------------------------
TD-DFT/TDA EXCITED STATES (SINGLETS)
------------------------------------

the weight of the individual excitations are printed if larger than 1.0e-02

STATE  1:  E=   0.287929 au      7.835 eV    63193.2 cm**-1 <S**2> =   0.000000
    11a ->  12a  :     0.089253 (c= -0.29875288)
    11a ->  13a  :     0.847338 (c= -0.92050945)
    11a ->  15a  :     0.039030 (c=  0.19755898)
    11a ->  16a  :     0.012642 (c= -0.11243636)


-----------------------------
TD-DFT/TDA-EXCITATION SPECTRA
-----------------------------

Center of mass = ( -0.0240, -0.0166, -0.0204)
Calculating the Dipole integrals                  ... done
Transforming integrals                            ... done
Calculating the Linear Momentum integrals         ... done
Transforming integrals                            ... done
Calculating angular momentum integrals            ... done
Transforming integrals                            ... done

-----------------------------------------------------------------------------
         ABSORPTION SPECTRUM VIA TRANSITION ELECTRIC DIPOLE MOMENTS
-----------------------------------------------------------------------------
State   Energy    Wavelength  fosc         T2        TX        TY        TZ  
        (cm-1)      (nm)                 (au**2)    (au)      (au)      (au) 
-----------------------------------------------------------------------------
   1   63193.2    158.2   0.006886179   0.03587   0.00356  -0.00873   0.18917

-----------------------------------------------------------------------------
         ABSORPTION SPECTRUM VIA TRANSITION VELOCITY DIPOLE MOMENTS
-----------------------------------------------------------------------------
State   Energy    Wavelength   fosc        P2         PX        PY        PZ  
        (cm-1)      (nm)                 (au**2)     (au)      (au)      (au) 
-----------------------------------------------------------------------------
   1   63193.2    158.2   0.023039844   0.00995  -0.00034   0.00830  -0.09941

-------------------------------------------------------------------
                             CD SPECTRUM
-------------------------------------------------------------------
State  Energy     Wavelength     R         MX        MY        MZ   
       (cm-1)       (nm)     (1e40*cgs)   (au)      (au)      (au)  
-------------------------------------------------------------------
   1   63193.2    158.2      0.57755   0.25726  -0.14540  -0.00508

-------------------------------------------------------------------
         CD SPECTRUM VIA TRANSITION VELOCITY DIPOLE MOMENTS        
-------------------------------------------------------------------
State  Energy     Wavelength     R         MX        MY        MZ   
       (cm-1)       (nm)     (1e40*cgs)   (au)      (au)      (au)  
-------------------------------------------------------------------
   1   63193.2    158.2     -1.29208   0.25726  -0.14540  -0.00508

Total run time:        0.833 sec

           *** ORCA-CIS/TD-DFT FINISHED WITHOUT ERROR ***

Maximum memory used throughout the entire CIS-calculation: 49.4 MB

-----------------------
CIS/TD-DFT TOTAL ENERGY
-----------------------

    E(SCF)  =   -153.657088556 Eh
    DE(CIS) =      0.287929265 Eh (Root  1)
    ----------------------------- ---------
    E(tot)  =   -153.369159291 Eh



-------------------------------------------------------------------------------
                          DFT DISPERSION CORRECTION                            
                                                                               
                              DFTD3 V3.1  Rev 1                                
                          USING Becke-Johnson damping                          
-------------------------------------------------------------------------------
The PBE0 functional is recognized
Active option DFTDOPT                   ...         4   

molecular C6(AA) [au] = 351.104931 


            DFT-D V3
 parameters
 s6 scaling factor         :     1.0000 
 a1 scaling factor         :     0.4145 
 s8 scaling factor         :     1.2177 
 a2 scaling factor         :     4.8593 
 ad hoc parameters k1-k3   :    16.0000     1.3333    -4.0000 

 Edisp/kcal,au: -1.513560445664  -0.002412011845 
 E6   /kcal   :  -0.992586275 
 E8   /kcal   :  -0.520974171 
 % E8         :  34.420440375 

-------------------------   ----------------
Dispersion correction           -0.002412012
-------------------------   ----------------


-------------------------   --------------------
FINAL SINGLE POINT ENERGY      -153.371571302885
-------------------------   --------------------



           ************************************************************
           *        Program running with 8 parallel MPI-processes     *
           *              working on a common directory               *
           ************************************************************
------------------------------------------------------------------------------
                         ORCA SCF GRADIENT CALCULATION
------------------------------------------------------------------------------


------------------------
TD-DFT GRADIENT XC SETUP
------------------------

Building densities                     ... done
Calculating rho(r) on the grid         ... done
Building xc-kernel on the grid         ... done
Building xc 3rd derivative on the grid      ... done
                *** TD-DFT GRADIENT CALCULATION INITIALIZED ***

-------------------
TD-DFT/TDA GRADIENT
-------------------

Reference wavefunction             ... RHF
State of interest                  ... 1
Basis dimension                    ... 117
DFT-XC contribution needed         ... YES
RI-approximation                   ... ON
CIS-vectors being read from        ... ox_es1_A_orca0007.cis

 => Number of Vectors found: 1
 => Orbital Window: 3...11 -> 12...116

Reading the CIS file                     ... done
Norm of the CI vector                    ... 1.000000000
Making the CIS (pseudo)densities         ... done
Making operators G(D) and Q(T)           ... done
Transforming the Fock operators          ... done
Making the frozen-core relaxed density   ... done
Constructing the G(H) operator           ... done
Transforming the G(H) operator           ... done
Calculating the CIS Lagrangian           ... done
Solving the Z-vector equations           ... done
Finalizing the relaxed density           ... done
Storing the relaxed density              ... done
Constructing the G(Z) operator           ... done
Transforming the G(Z) operator           ... done
Making the W-matrix                      ... done
Finalizing the W-matrix                  ... done
Transforming the W-matrix                ... done
Nuclear repulsion gradient               ... done
One-Electron gradient                    ... done
Dispersion correction                    ... done
Prescreening matrices                    ... done
COSX-gradient                            ... done
Coulomb gradient (RI)                    ... done
Exchange-Correlation gradient            ... done

                 ---------------------------
                 EXCITED STATE GRADIENT DONE
                 ---------------------------

------------------
CARTESIAN GRADIENT
------------------

   1   O   :    0.083156610   -0.146243313   -0.007472645
   2   C   :   -0.057195611    0.006949847    0.004143956
   3   C   :   -0.091746222    0.139906418   -0.060321753
   4   H   :    0.029915350    0.007228459   -0.042311108
   5   H   :    0.026905502    0.001184795    0.038963239
   6   H   :   -0.012407814    0.007506068    0.017501411
   7   H   :    0.021369035   -0.016589271    0.049478909

Difference to translation invariance:
           :   -0.0000031501   -0.0000569969   -0.0000179912

Difference to rotation invariance:
           :   -0.0002400632   -0.0001898519   -0.0000823603

Norm of the cartesian gradient     ...    0.2683321030
RMS gradient                       ...    0.0585548654
MAX gradient                       ...    0.1462433131

------------------------------------------------------------------------------
                  RELAXED CIS/TDA DENSITY POPULATION ANALYSIS
                                   IROOT 1
------------------------------------------------------------------------------
------------------------------------------------------------------------------
                           ORCA POPULATION ANALYSIS
------------------------------------------------------------------------------
Input electron density              ... ox_es1_A_orca0007.cisp
BaseName (.gbw .S,...)              ... ox_es1_A_orca0007

                    ********************************
                    * MULLIKEN POPULATION ANALYSIS *
                    ********************************

-----------------------
MULLIKEN ATOMIC CHARGES
-----------------------
   0 O :    0.208618
   1 C :   -0.126745
   2 C :   -0.756578
   3 H :    0.151997
   4 H :    0.150819
   5 H :    0.183435
   6 H :    0.188456
Sum of atomic charges:    0.0000000

--------------------------------
MULLIKEN REDUCED ORBITAL CHARGES
--------------------------------
  0 O s       :     3.687386  s :     3.687386
      pz      :     1.114545  p :     4.063053
      px      :     1.512601
      py      :     1.435906
      dz2     :     0.003531  d :     0.039356
      dxz     :     0.003057
      dyz     :     0.007112
      dx2y2   :     0.011814
      dxy     :     0.013842
      f0      :     0.000113  f :     0.001587
      f+1     :    -0.000016
      f-1     :     0.000177
      f+2     :     0.000103
      f-2     :     0.000220
      f+3     :     0.000380
      f-3     :     0.000609
  1 C s       :     3.194924  s :     3.194924
      pz      :     1.051678  p :     2.831046
      px      :     1.014508
      py      :     0.764861
      dz2     :     0.005420  d :     0.089726
      dxz     :     0.023078
      dyz     :     0.011971
      dx2y2   :     0.029842
      dxy     :     0.019415
      f0      :     0.001070  f :     0.011049
      f+1     :     0.001478
      f-1     :     0.000663
      f+2     :     0.000897
      f-2     :     0.001226
      f+3     :     0.002650
      f-3     :     0.003064
  2 C s       :     3.323132  s :     3.323132
      pz      :     1.071600  p :     3.337395
      px      :     0.860869
      py      :     1.404925
      dz2     :     0.007539  d :     0.085670
      dxz     :     0.016031
      dyz     :     0.005791
      dx2y2   :     0.031455
      dxy     :     0.024854
      f0      :     0.000988  f :     0.010382
      f+1     :     0.001234
      f-1     :     0.000823
      f+2     :     0.000951
      f-2     :     0.001137
      f+3     :     0.002885
      f-3     :     0.002364
  3 H s       :     0.823867  s :     0.823867
      pz      :     0.011932  p :     0.024137
      px      :     0.007554
      py      :     0.004651
  4 H s       :     0.824902  s :     0.824902
      pz      :     0.010793  p :     0.024279
      px      :     0.008750
      py      :     0.004736
  5 H s       :     0.787011  s :     0.787011
      pz      :     0.009277  p :     0.029555
      px      :     0.007584
      py      :     0.012694
  6 H s       :     0.790218  s :     0.790218
      pz      :     0.009458  p :     0.021326
      px      :     0.004976
      py      :     0.006893


                     *******************************
                     * LOEWDIN POPULATION ANALYSIS *
                     *******************************

----------------------
LOEWDIN ATOMIC CHARGES
----------------------
   0 O :    0.418995
   1 C :   -0.334802
   2 C :   -0.638445
   3 H :    0.132379
   4 H :    0.130341
   5 H :    0.119822
   6 H :    0.171710

-------------------------------
LOEWDIN REDUCED ORBITAL CHARGES
-------------------------------
  0 O s       :     3.442418  s :     3.442418
      pz      :     1.054643  p :     4.022991
      px      :     1.478027
      py      :     1.490321
      dz2     :     0.013206  d :     0.108832
      dxz     :     0.009097
      dyz     :     0.015851
      dx2y2   :     0.036181
      dxy     :     0.034496
      f0      :     0.000669  f :     0.006765
      f+1     :     0.000158
      f-1     :     0.000784
      f+2     :     0.000210
      f-2     :     0.001006
      f+3     :     0.001263
      f-3     :     0.002674
  1 C s       :     2.795622  s :     2.795622
      pz      :     1.039279  p :     2.993736
      px      :     1.095845
      py      :     0.858612
      dz2     :     0.066411  d :     0.463761
      dxz     :     0.121718
      dyz     :     0.048252
      dx2y2   :     0.120682
      dxy     :     0.106699
      f0      :     0.008598  f :     0.081683
      f+1     :     0.006767
      f-1     :     0.007364
      f+2     :     0.006686
      f-2     :     0.005760
      f+3     :     0.021803
      f-3     :     0.024704
  2 C s       :     2.846305  s :     2.846305
      pz      :     1.037272  p :     3.193415
      px      :     1.012324
      py      :     1.143819
      dz2     :     0.071196  d :     0.523148
      dxz     :     0.108963
      dyz     :     0.028127
      dx2y2   :     0.145459
      dxy     :     0.169403
      f0      :     0.006687  f :     0.075578
      f+1     :     0.005771
      f-1     :     0.008832
      f+2     :     0.005090
      f-2     :     0.004681
      f+3     :     0.026313
      f-3     :     0.018205
  3 H s       :     0.794606  s :     0.794606
      pz      :     0.037016  p :     0.073015
      px      :     0.021759
      py      :     0.014240
  4 H s       :     0.795847  s :     0.795847
      pz      :     0.034400  p :     0.073812
      px      :     0.024989
      py      :     0.014422
  5 H s       :     0.794923  s :     0.794923
      pz      :     0.031113  p :     0.085255
      px      :     0.021708
      py      :     0.032434
  6 H s       :     0.773271  s :     0.773271
      pz      :     0.025952  p :     0.055019
      px      :     0.011707
      py      :     0.017360


                      *****************************
                      * MAYER POPULATION ANALYSIS *
                      *****************************

  NA   - Mulliken gross atomic population
  ZA   - Total nuclear charge
  QA   - Mulliken gross atomic charge
  VA   - Mayer's total valence
  BVA  - Mayer's bonded valence
  FA   - Mayer's free valence

  ATOM       NA         ZA         QA         VA         BVA        FA
  0 O      7.7914     8.0000     0.2086     1.6485     1.0154     0.6331
  1 C      6.1267     6.0000    -0.1267     3.9143     3.7362     0.1781
  2 C      6.7566     6.0000    -0.7566     4.0790     3.1305     0.9486
  3 H      0.8480     1.0000     0.1520     0.9675     0.9370     0.0305
  4 H      0.8492     1.0000     0.1508     0.9871     0.9469     0.0402
  5 H      0.8166     1.0000     0.1834     0.9921     0.9516     0.0406
  6 H      0.8115     1.0000     0.1885     0.9596     0.9268     0.0328

  Mayer bond orders larger than 0.100000
B(  0-O ,  1-C ) :   0.8315 B(  0-O ,  2-C ) :   0.1668 B(  1-C ,  2-C ) :   1.0762 
B(  1-C ,  3-H ) :   0.9280 B(  1-C ,  4-H ) :   0.9152 B(  2-C ,  5-H ) :   0.9478 
B(  2-C ,  6-H ) :   0.9187 


-------
TIMINGS
-------

Total TD-DFT gradient time         ...        4.999 sec

Fock matrix formation       ....       0.830 sec  ( 16.6%)
  Coulomb formation         ....       0.672 sec  ( 80.9% of F)
  RI-J                      ....       0.296 sec  ( 35.7% of F)
  Chain of spheres X        ....       0.375 sec  ( 45.2% of F)
  XC integration            ....       0.158 sec  ( 19.1% of F)
Z-vector equation           ....       1.380 sec  ( 27.6%)
One electron gradient       ....       0.032 sec  (  0.6%)
Prescreening matrices       ....       0.153 sec  (  3.1%)
RI-J Coulomb gradient       ....       0.244 sec  (  4.9%)
COSX gradient               ....       0.341 sec  (  6.8%)
XC gradient                 ....       1.704 sec  ( 34.1%)

Maximum memory used throughout the entire SCFGRAD-calculation: 130.3 MB

                            ***************************************
                            *     ORCA property calculations      *
                            ***************************************

                                    ---------------------
                                    Active property flags
                                    ---------------------
   (+) Dipole Moment


------------------------------------------------------------------------------
                       ORCA ELECTRIC PROPERTIES CALCULATION
------------------------------------------------------------------------------

Dipole Moment Calculation                       ... on
Quadrupole Moment Calculation                   ... off
Polarizability Calculation                      ... off
GBWName                                         ... ox_es1_A_orca0007.gbw
Electron density                                ... ox_es1_A_orca0007.scfp
The origin for moment calculation is the CENTER OF MASS  = (-0.024025, -0.016573 -0.020420)

-------------
DIPOLE MOMENT
-------------
                                X             Y             Z
Electronic contribution:     -0.22130       1.72354      -0.21341
Nuclear contribution   :      0.23895      -2.48648       0.15614
                        -----------------------------------------
Total Dipole Moment    :      0.01765      -0.76294      -0.05727
                        -----------------------------------------
Magnitude (a.u.)       :      0.76529
Magnitude (Debye)      :      1.94522



--------------------
Rotational spectrum 
--------------------
 
Rotational constants in cm-1:     0.871615     0.737614     0.474349 
Rotational constants in MHz : 26130.355360 22113.125146 14220.612617 

 Dipole components along the rotational axes: 
x,y,z [a.u.] :     0.267022    -0.716886    -0.021172 
x,y,z [Debye]:     0.678716    -1.822179    -0.053816 

 

                        *** CIS RELAXED DENSITY ***

------------------------------------------------------------------------------
                       ORCA ELECTRIC PROPERTIES CALCULATION
------------------------------------------------------------------------------

Dipole Moment Calculation                       ... on
Quadrupole Moment Calculation                   ... off
Polarizability Calculation                      ... off
GBWName                                         ... ox_es1_A_orca0007.gbw
Electron density                                ... ox_es1_A_orca0007.cisp
The origin for moment calculation is the CENTER OF MASS  = (-0.024025, -0.016573 -0.020420)

-------------
DIPOLE MOMENT
-------------
                                X             Y             Z
Electronic contribution:     -0.96569       2.44384      -0.11051
Nuclear contribution   :      0.23895      -2.48648       0.15614
                        -----------------------------------------
Total Dipole Moment    :     -0.72673      -0.04264       0.04563
                        -----------------------------------------
Magnitude (a.u.)       :      0.72941
Magnitude (Debye)      :      1.85402



--------------------
Rotational spectrum 
--------------------
 
Rotational constants in cm-1:     0.871615     0.737614     0.474349 
Rotational constants in MHz : 26130.355360 22113.125146 14220.612617 

 Dipole components along the rotational axes: 
x,y,z [a.u.] :    -0.672607    -0.276098     0.058396 
x,y,z [Debye]:    -1.709632    -0.701785     0.148432 

 

Timings for individual modules:

Sum of individual times         ...        7.764 sec (=   0.129 min)
GTO integral calculation        ...        0.311 sec (=   0.005 min)   4.0 %
SCF iterations                  ...        1.188 sec (=   0.020 min)  15.3 %
CIS module                      ...        1.057 sec (=   0.018 min)  13.6 %
SCF Gradient evaluation         ...        5.208 sec (=   0.087 min)  67.1 %
                             ****ORCA TERMINATED NORMALLY****
TOTAL RUN TIME: 0 days 0 hours 0 minutes 8 seconds 120 msec
