
                                 *****************
                                 * O   R   C   A *
                                 *****************

                                            #,                                       
                                            ###                                      
                                            ####                                     
                                            #####                                    
                                            ######                                   
                                           ########,                                 
                                     ,,################,,,,,                         
                               ,,#################################,,                 
                          ,,##########################################,,             
                       ,#########################################, ''#####,          
                    ,#############################################,,   '####,        
                  ,##################################################,,,,####,       
                ,###########''''           ''''###############################       
              ,#####''   ,,,,##########,,,,          '''####'''          '####       
            ,##' ,,,,###########################,,,                        '##       
           ' ,,###''''                  '''############,,,                           
         ,,##''                                '''############,,,,        ,,,,,,###''
      ,#''                                            '''#######################'''  
     '                                                          ''''####''''         
             ,#######,   #######,   ,#######,      ##                                
            ,#'     '#,  ##    ##  ,#'     '#,    #''#        ######   ,####,        
            ##       ##  ##   ,#'  ##            #'  '#       #        #'  '#        
            ##       ##  #######   ##           ,######,      #####,   #    #        
            '#,     ,#'  ##    ##  '#,     ,#' ,#      #,         ##   #,  ,#        
             '#######'   ##     ##  '#######'  #'      '#     #####' # '####'        



                  #######################################################
                  #                        -***-                        #
                  #          Department of theory and spectroscopy      #
                  #    Directorship and core code : Frank Neese         #
                  #        Max Planck Institute fuer Kohlenforschung    #
                  #                Kaiser Wilhelm Platz 1               #
                  #                 D-45470 Muelheim/Ruhr               #
                  #                      Germany                        #
                  #                                                     #
                  #                  All rights reserved                #
                  #                        -***-                        #
                  #######################################################


                         Program Version 5.0.2 -  RELEASE  -


 With contributions from (in alphabetic order):
   Daniel Aravena         : Magnetic Suceptibility
   Michael Atanasov       : Ab Initio Ligand Field Theory (pilot matlab implementation)
   Alexander A. Auer      : GIAO ZORA, VPT2 properties, NMR spectrum
   Ute Becker             : Parallelization
   Giovanni Bistoni       : ED, misc. LED, open-shell LED, HFLD
   Martin Brehm           : Molecular dynamics
   Dmytro Bykov           : SCF Hessian
   Vijay G. Chilkuri      : MRCI spin determinant printing, contributions to CSF-ICE
   Dipayan Datta          : RHF DLPNO-CCSD density
   Achintya Kumar Dutta   : EOM-CC, STEOM-CC
   Dmitry Ganyushin       : Spin-Orbit,Spin-Spin,Magnetic field MRCI
   Miquel Garcia          : C-PCM and meta-GGA Hessian, CC/C-PCM, Gaussian charge scheme
   Yang Guo               : DLPNO-NEVPT2, F12-NEVPT2, CIM, IAO-localization
   Andreas Hansen         : Spin unrestricted coupled pair/coupled cluster methods
   Benjamin Helmich-Paris : MC-RPA, TRAH-SCF, COSX integrals
   Lee Huntington         : MR-EOM, pCC
   Robert Izsak           : Overlap fitted RIJCOSX, COSX-SCS-MP3, EOM
   Marcus Kettner         : VPT2
   Christian Kollmar      : KDIIS, OOCD, Brueckner-CCSD(T), CCSD density, CASPT2, CASPT2-K
   Simone Kossmann        : Meta GGA functionals, TD-DFT gradient, OOMP2, MP2 Hessian
   Martin Krupicka        : Initial AUTO-CI
   Lucas Lang             : DCDCAS
   Marvin Lechner         : AUTO-CI (C++ implementation), FIC-MRCC
   Dagmar Lenk            : GEPOL surface, SMD
   Dimitrios Liakos       : Extrapolation schemes; Compound Job, initial MDCI parallelization
   Dimitrios Manganas     : Further ROCIS development; embedding schemes
   Dimitrios Pantazis     : SARC Basis sets
   Anastasios Papadopoulos: AUTO-CI, single reference methods and gradients
   Taras Petrenko         : DFT Hessian,TD-DFT gradient, ASA, ECA, R-Raman, ABS, FL, XAS/XES, NRVS
   Peter Pinski           : DLPNO-MP2, DLPNO-MP2 Gradient
   Christoph Reimann      : Effective Core Potentials
   Marius Retegan         : Local ZFS, SOC
   Christoph Riplinger    : Optimizer, TS searches, QM/MM, DLPNO-CCSD(T), (RO)-DLPNO pert. Triples
   Tobias Risthaus        : Range-separated hybrids, TD-DFT gradient, RPA, STAB
   Michael Roemelt        : Original ROCIS implementation
   Masaaki Saitow         : Open-shell DLPNO-CCSD energy and density
   Barbara Sandhoefer     : DKH picture change effects
   Avijit Sen             : IP-ROCIS
   Kantharuban Sivalingam : CASSCF convergence, NEVPT2, FIC-MRCI
   Bernardo de Souza      : ESD, SOC TD-DFT
   Georgi Stoychev        : AutoAux, RI-MP2 NMR, DLPNO-MP2 response
   Willem Van den Heuvel  : Paramagnetic NMR
   Boris Wezisla          : Elementary symmetry handling
   Frank Wennmohs         : Technical directorship


 We gratefully acknowledge several colleagues who have allowed us to
 interface, adapt or use parts of their codes:
   Stefan Grimme, W. Hujo, H. Kruse, P. Pracht,  : VdW corrections, initial TS optimization,
                  C. Bannwarth, S. Ehlert          DFT functionals, gCP, sTDA/sTD-DF
   Ed Valeev, F. Pavosevic, A. Kumar             : LibInt (2-el integral package), F12 methods
   Garnet Chan, S. Sharma, J. Yang, R. Olivares  : DMRG
   Ulf Ekstrom                                   : XCFun DFT Library
   Mihaly Kallay                                 : mrcc  (arbitrary order and MRCC methods)
   Jiri Pittner, Ondrej Demel                    : Mk-CCSD
   Frank Weinhold                                : gennbo (NPA and NBO analysis)
   Christopher J. Cramer and Donald G. Truhlar   : smd solvation model
   Lars Goerigk                                  : TD-DFT with DH, B97 family of functionals
   V. Asgeirsson, H. Jonsson                     : NEB implementation
   FAccTs GmbH                                   : IRC, NEB, NEB-TS, DLPNO-Multilevel, CI-OPT
                                                   MM, QMMM, 2- and 3-layer-ONIOM, Crystal-QMMM,
                                                   LR-CPCM, SF, NACMEs, symmetry and pop. for TD-DFT,
                                                   nearIR, NL-DFT gradient (VV10), updates on ESD,
                                                   ML-optimized integration grids
   S Lehtola, MJT Oliveira, MAL Marques          : LibXC Library
   Liviu Ungur et al                             : ANISO software


 Your calculation uses the libint2 library for the computation of 2-el integrals
 For citations please refer to: http://libint.valeyev.net

 Your ORCA version has been built with support for libXC version: 5.1.0
 For citations please refer to: https://tddft.org/programs/libxc/

 This ORCA versions uses:
   CBLAS   interface :  Fast vector & matrix operations
   LAPACKE interface :  Fast linear algebra routines
   SCALAPACK package :  Parallel linear algebra routines
   Shared memory     :  Shared parallel matrices
   BLAS/LAPACK       :  OpenBLAS 0.3.15  USE64BITINT DYNAMIC_ARCH NO_AFFINITY SkylakeX SINGLE_THREADED
        Core in use  :  SkylakeX
   Copyright (c) 2011-2014, The OpenBLAS Project


Your calculation utilizes the atom-pairwise dispersion correction
with the Becke-Johnson damping scheme (D3BJ)
Cite in your paper:
S.Grimme, S.Ehrlich, L.Goerigk, J Comput Chem, (2011), 32, 1456–1465 
S.Grimme, J.Antony, S.Ehrlich and H.Krieg, J.Chem.Phys., 132, (2010), 154104 
   

================================================================================

----- Orbital basis set information -----
Your calculation utilizes the basis: def2-TZVP
   F. Weigend and R. Ahlrichs, Phys. Chem. Chem. Phys. 7, 3297 (2005).

----- AuxJ basis set information -----
Your calculation utilizes the auxiliary basis: def2/J
   F. Weigend, Phys. Chem. Chem. Phys. 8, 1057 (2006).

================================================================================
                                        WARNINGS
                       Please study these warnings very carefully!
================================================================================

INFO   : Checking CIS options ...

WARNING: CIS/ROCIS methods need fully converged wavefunctions
  ===> : Setting SCFConvForced true
         You can overwrite this default with %scf ConvForced false 


INFO   : the flag for use of the SHARK integral package has been found!

================================================================================
                                       INPUT FILE
================================================================================
NAME = ox_es1_G_orca0001.inp
|  1> ! engrad PBE0 D3BJ def2-TZVP  
|  2> %pal nprocs 8 end
|  3> %maxcore 3000
|  4> 
|  5> %tddft
|  6>   nroots 1
|  7>   tda true
|  8>   Iroot 1
|  9>   end 
| 10> *xyz 0 1 
| 11> O   -1.509313873139616 0.7066718116815578 0.0384701801207664
| 12> C   -0.7771366468708831 -0.42918791363806164 0.029148320592753754
| 13> C   0.7839552232264013 -0.47806368272449035 -0.021349760026887828
| 14> H   -1.330504353666171 -0.6263874341946936 0.8319714872394037
| 15> H   -1.378036314425132 -0.6191881616747299 -0.9291682960842369
| 16> H   1.2531132590507303 -0.6972370533635169 -0.903344662585884
| 17> H   1.277680496655515 -0.6246127030328228 0.8375492887460069
| 18> *
| 19> 
| 20>                          ****END OF INPUT****
================================================================================

                     *******************************
                     * Energy+Gradient Calculation *
                     *******************************

---------------------------------
CARTESIAN COORDINATES (ANGSTROEM)
---------------------------------
  O     -1.509314    0.706672    0.038470
  C     -0.777137   -0.429188    0.029148
  C      0.783955   -0.478064   -0.021350
  H     -1.330504   -0.626387    0.831971
  H     -1.378036   -0.619188   -0.929168
  H      1.253113   -0.697237   -0.903345
  H      1.277680   -0.624613    0.837549

----------------------------
CARTESIAN COORDINATES (A.U.)
----------------------------
  NO LB      ZA    FRAG     MASS         X           Y           Z
   0 O     8.0000    0    15.999   -2.852190    1.335416    0.072698
   1 C     6.0000    0    12.011   -1.468575   -0.811048    0.055082
   2 C     6.0000    0    12.011    1.481461   -0.903409   -0.040345
   3 H     1.0000    0     1.008   -2.514289   -1.183701    1.572198
   4 H     1.0000    0     1.008   -2.604111   -1.170096   -1.755874
   5 H     1.0000    0     1.008    2.368041   -1.317587   -1.707074
   6 H     1.0000    0     1.008    2.414466   -1.180347    1.582739

--------------------------------
INTERNAL COORDINATES (ANGSTROEM)
--------------------------------
 O      0   0   0     0.000000000000     0.00000000     0.00000000
 C      1   0   0     1.351424323939     0.00000000     0.00000000
 C      2   1   0     1.562672942056   124.59310546     0.00000000
 H      2   1   3     0.994800737201    81.93320032   127.47600499
 H      2   1   3     1.146974822095    82.01892777   239.61425982
 H      3   2   1     1.022771351337   119.52597917   257.52028569
 H      3   2   1     1.001473333124   117.99291234    99.31813925

---------------------------
INTERNAL COORDINATES (A.U.)
---------------------------
 O      0   0   0     0.000000000000     0.00000000     0.00000000
 C      1   0   0     2.553821862965     0.00000000     0.00000000
 C      2   1   0     2.953023897375   124.59310546     0.00000000
 H      2   1   3     1.879900951133    81.93320032   127.47600499
 H      2   1   3     2.167468296263    82.01892777   239.61425982
 H      3   2   1     1.932757751648   119.52597917   257.52028569
 H      3   2   1     1.892510330030   117.99291234    99.31813925

---------------------
BASIS SET INFORMATION
---------------------
There are 3 groups of distinct atoms

 Group   1 Type O   : 11s6p2d1f contracted to 5s3p2d1f pattern {62111/411/11/1}
 Group   2 Type C   : 11s6p2d1f contracted to 5s3p2d1f pattern {62111/411/11/1}
 Group   3 Type H   : 5s1p contracted to 3s1p pattern {311/1}

Atom   0O    basis set group =>   1
Atom   1C    basis set group =>   2
Atom   2C    basis set group =>   2
Atom   3H    basis set group =>   3
Atom   4H    basis set group =>   3
Atom   5H    basis set group =>   3
Atom   6H    basis set group =>   3
---------------------------------
AUXILIARY/J BASIS SET INFORMATION
---------------------------------
There are 3 groups of distinct atoms

 Group   1 Type O   : 12s5p4d2f1g contracted to 6s4p3d1f1g pattern {711111/2111/211/2/1}
 Group   2 Type C   : 12s5p4d2f1g contracted to 6s4p3d1f1g pattern {711111/2111/211/2/1}
 Group   3 Type H   : 5s2p1d contracted to 3s1p1d pattern {311/2/1}

Atom   0O    basis set group =>   1
Atom   1C    basis set group =>   2
Atom   2C    basis set group =>   2
Atom   3H    basis set group =>   3
Atom   4H    basis set group =>   3
Atom   5H    basis set group =>   3
Atom   6H    basis set group =>   3

Checking for AutoStart:
The File: ox_es1_G_orca0001.gbw exists
Trying to determine its content:
     ... Fine, the file contains calculation information
     ... Fine, the calculation information was read
     ... Fine, the file contains a basis set
     ... Fine, the basis set was read
     ... Fine, the file contains a geometry
     ... Fine, the geometry was read
     ... Fine, the file contains a set of orbitals
     ... Fine, the orbitals can be read
     => possible old guess file was deleted
     => GBW file was renamed to GES file
     => GES file is set as startup file
     => Guess is set to MORead
     ... now leaving AutoStart



           ************************************************************
           *        Program running with 8 parallel MPI-processes     *
           *              working on a common directory               *
           ************************************************************
------------------------------------------------------------------------------
                           ORCA GTO INTEGRAL CALCULATION
                           -- RI-GTO INTEGRALS CHOSEN --
------------------------------------------------------------------------------
------------------------------------------------------------------------------
                   ___                                                        
                  /   \      - P O W E R E D   B Y -                         
                 /     \                                                     
                 |  |  |   _    _      __       _____    __    __             
                 |  |  |  | |  | |    /  \     |  _  \  |  |  /  |          
                  \  \/   | |  | |   /    \    | | | |  |  | /  /          
                 / \  \   | |__| |  /  /\  \   | |_| |  |  |/  /          
                |  |  |   |  __  | /  /__\  \  |    /   |      \           
                |  |  |   | |  | | |   __   |  |    \   |  |\   \          
                \     /   | |  | | |  |  |  |  | |\  \  |  | \   \       
                 \___/    |_|  |_| |__|  |__|  |_| \__\ |__|  \__/        
                                                                              
                      - O R C A' S   B I G   F R I E N D -                    
                                      &                                       
                       - I N T E G R A L  F E E D E R -                       
                                                                              
 v1 FN, 2020, v2 2021                                                         
------------------------------------------------------------------------------


Reading SHARK input file ox_es1_G_orca0001.SHARKINP.tmp ... ok
----------------------
SHARK INTEGRAL PACKAGE
----------------------

Number of atoms                             ...      7
Number of basis functions                   ...    117
Number of shells                            ...     49
Maximum angular momentum                    ...      3
Integral batch strategy                     ... SHARK/LIBINT Hybrid
RI-J (if used) integral strategy            ... SPLIT-RIJ (Revised 2003 algorithm where possible)
Printlevel                                  ...      1
Contraction scheme used                     ... SEGMENTED contraction
Coulomb Range Separation                    ... NOT USED
Exchange Range Separation                   ... NOT USED
Finite Nucleus Model                        ... NOT USED
Auxiliary Coulomb fitting basis             ... AVAILABLE
   # of basis functions in Aux-J            ...    191
   # of shells in Aux-J                     ...     65
   Maximum angular momentum in Aux-J        ...      4
Auxiliary J/K fitting basis                 ... NOT available
Auxiliary Correlation fitting basis         ... NOT available
Auxiliary 'external' fitting basis          ... NOT available
Integral threshold                          ...     2.500000e-11
Primitive cut-off                           ...     2.500000e-12
Primitive pair pre-selection threshold      ...     2.500000e-12

Calculating pre-screening integrals         ... done (  0.0 sec) Dimension = 49
Organizing shell pair data                  ... done (  0.0 sec)
Shell pair information
Total number of shell pairs                 ...      1225
Shell pairs after pre-screening             ...      1211
Total number of primitive shell pairs       ...      3648
Primitive shell pairs kept                  ...      3056
          la=0 lb=0:    368 shell pairs
          la=1 lb=0:    348 shell pairs
          la=1 lb=1:     91 shell pairs
          la=2 lb=0:    161 shell pairs
          la=2 lb=1:     78 shell pairs
          la=2 lb=2:     21 shell pairs
          la=3 lb=0:     81 shell pairs
          la=3 lb=1:     39 shell pairs
          la=3 lb=2:     18 shell pairs
          la=3 lb=3:      6 shell pairs

Calculating one electron integrals          ... done (  0.0 sec)
Calculating RI/J V-Matrix + Cholesky decomp.... done (  0.0 sec)
Calculating Nuclear repulsion               ... done (  0.0 sec) ENN=     67.903011175410 Eh

SHARK setup successfully completed in   0.1 seconds

Maximum memory used throughout the entire GTOINT-calculation: 14.9 MB


           ************************************************************
           *        Program running with 8 parallel MPI-processes     *
           *              working on a common directory               *
           ************************************************************
-------------------------------------------------------------------------------
                                 ORCA SCF
-------------------------------------------------------------------------------

------------
SCF SETTINGS
------------
Hamiltonian:
 Density Functional     Method          .... DFT(GTOs)
 Exchange Functional    Exchange        .... PBE
   PBE kappa parameter   XKappa         ....  0.804000
   PBE mue parameter    XMuePBE         ....  0.219520
 Correlation Functional Correlation     .... PBE
   PBE beta parameter  CBetaPBE         ....  0.066725
 LDA part of GGA corr.  LDAOpt          .... PW91-LDA
 Gradients option       PostSCFGGA      .... off
 Hybrid DFT is turned on
   Fraction HF Exchange ScalHFX         ....  0.250000
   Scaling of DF-GGA-X  ScalDFX         ....  0.750000
   Scaling of DF-GGA-C  ScalDFC         ....  1.000000
   Scaling of DF-LDA-C  ScalLDAC        ....  1.000000
   Perturbative correction              ....  0.000000
   Density functional embedding theory  .... OFF
   NL short-range parameter             ....  6.900000
 RI-approximation to the Coulomb term is turned on
   Number of AuxJ basis functions       .... 191
   RIJ-COSX (HFX calculated with COS-X)).... on


General Settings:
 Integral files         IntName         .... ox_es1_G_orca0001
 Hartree-Fock type      HFTyp           .... RHF
 Total Charge           Charge          ....    0
 Multiplicity           Mult            ....    1
 Number of Electrons    NEL             ....   24
 Basis Dimension        Dim             ....  117
 Nuclear Repulsion      ENuc            ....     67.9030111754 Eh

Convergence Acceleration:
 DIIS                   CNVDIIS         .... on
   Start iteration      DIISMaxIt       ....    12
   Startup error        DIISStart       ....  0.200000
   # of expansion vecs  DIISMaxEq       ....     5
   Bias factor          DIISBfac        ....   1.050
   Max. coefficient     DIISMaxC        ....  10.000
 Trust-Rad. Augm. Hess. CNVTRAH         .... auto
   Auto Start mean grad. ratio tolernc. ....  1.125000
   Auto Start start iteration           ....     1
   Auto Start num. interpolation iter.  ....    10
   Max. Number of Micro iterations      ....    16
   Max. Number of Macro iterations      .... Maxiter - #DIIS iter
   Number of Davidson start vectors     ....     2
   Converg. threshold I  (grad. norm)   ....   1.000e-05
   Converg. threshold II (energy diff.) ....   1.000e-08
   Grad. Scal. Fac. for Micro threshold ....   0.100
   Minimum threshold for Micro iter.    ....   0.010
   NR start threshold (gradient norm)   ....   0.001
   Initial trust radius                 ....   0.400
   Minimum AH scaling param. (alpha)    ....   1.000
   Maximum AH scaling param. (alpha)    .... 1000.000
   Orbital update algorithm             .... Taylor
   White noise on init. David. guess    .... on
   Maximum white noise                  ....   0.010
   Quad. conv. algorithm                .... NR
 SOSCF                  CNVSOSCF        .... on
   Start iteration      SOSCFMaxIt      ....   150
   Startup grad/error   SOSCFStart      ....  0.003300
 Level Shifting         CNVShift        .... on
   Level shift para.    LevelShift      ....    0.2500
   Turn off err/grad.   ShiftErr        ....    0.0010
 Zerner damping         CNVZerner       .... off
 Static damping         CNVDamp         .... on
   Fraction old density DampFac         ....    0.7000
   Max. Damping (<1)    DampMax         ....    0.9800
   Min. Damping (>=0)   DampMin         ....    0.0000
   Turn off err/grad.   DampErr         ....    0.1000
 Fernandez-Rico         CNVRico         .... off

SCF Procedure:
 Maximum # iterations   MaxIter         ....   125
 SCF integral mode      SCFMode         .... Direct
   Integral package                     .... SHARK and LIBINT hybrid scheme
 Reset frequency        DirectResetFreq ....    20
 Integral Threshold     Thresh          ....  2.500e-11 Eh
 Primitive CutOff       TCut            ....  2.500e-12 Eh

Convergence Tolerance:
 Convergence Check Mode ConvCheckMode   .... Total+1el-Energy
 Convergence forced     ConvForced      .... 1
 Energy Change          TolE            ....  1.000e-08 Eh
 1-El. energy change                    ....  1.000e-05 Eh
 Orbital Gradient       TolG            ....  1.000e-05
 Orbital Rotation angle TolX            ....  1.000e-05
 DIIS Error             TolErr          ....  5.000e-07


Diagonalization of the overlap matrix:
Smallest eigenvalue                        ... 9.176e-04
Time for diagonalization                   ...    0.001 sec
Threshold for overlap eigenvalues          ... 1.000e-08
Number of eigenvalues below threshold      ... 0
Time for construction of square roots      ...    0.001 sec
Total time needed                          ...    0.003 sec

---------------------
INITIAL GUESS: MOREAD
---------------------
Guess MOs are being read from file: ox_es1_G_orca0001.ges
Input Geometry matches current geometry (good)
Input basis set matches current basis set (good)
MOs were renormalized
MOs were reorthogonalized (Cholesky)
                      ------------------
                      INITIAL GUESS DONE (   0.0 sec)
                      ------------------
-------------------
DFT GRID GENERATION
-------------------

General Integration Accuracy     IntAcc      ... 4.388
Radial Grid Type                 RadialGrid  ... OptM3 with GC (2021)
Angular Grid (max. ang.)         AngularGrid ... 4 (Lebedev-302)
Angular grid pruning method      GridPruning ... 4 (adaptive)
Weight generation scheme         WeightScheme... Becke
Basis function cutoff            BFCut       ... 1.0000e-11
Integration weight cutoff        WCut        ... 1.0000e-14
Angular grids for H and He will be reduced by one unit
Partially contracted basis set               ... off
Rotationally invariant grid construction     ... off

Total number of grid points                  ...    31336
Total number of batches                      ...      493
Average number of points per batch           ...       63
Average number of grid points per atom       ...     4477
Time for grid setup =    0.116 sec

--------------------
COSX GRID GENERATION
--------------------

GRIDX 1
-------
General Integration Accuracy     IntAcc      ... 3.816
Radial Grid Type                 RadialGrid  ... OptM3 with GC (2021)
Angular Grid (max. ang.)         AngularGrid ... 1 (Lebedev-50)
Angular grid pruning method      GridPruning ... 4 (adaptive)
Weight generation scheme         WeightScheme... Becke
Basis function cutoff            BFCut       ... 1.0000e-11
Integration weight cutoff        WCut        ... 1.0000e-14
Angular grids for H and He will be reduced by one unit
Partially contracted basis set               ... on
Rotationally invariant grid construction     ... off

Total number of grid points                  ...     4041
Total number of batches                      ...       66
Average number of points per batch           ...       61
Average number of grid points per atom       ...      577
UseSFitting                                  ... on

GRIDX 2
-------
General Integration Accuracy     IntAcc      ... 4.020
Radial Grid Type                 RadialGrid  ... OptM3 with GC (2021)
Angular Grid (max. ang.)         AngularGrid ... 2 (Lebedev-110)
Angular grid pruning method      GridPruning ... 4 (adaptive)
Weight generation scheme         WeightScheme... Becke
Basis function cutoff            BFCut       ... 1.0000e-11
Integration weight cutoff        WCut        ... 1.0000e-14
Angular grids for H and He will be reduced by one unit
Partially contracted basis set               ... on
Rotationally invariant grid construction     ... off

Total number of grid points                  ...     8740
Total number of batches                      ...      140
Average number of points per batch           ...       62
Average number of grid points per atom       ...     1249
UseSFitting                                  ... on

GRIDX 3
-------
General Integration Accuracy     IntAcc      ... 4.338
Radial Grid Type                 RadialGrid  ... OptM3 with GC (2021)
Angular Grid (max. ang.)         AngularGrid ... 3 (Lebedev-194)
Angular grid pruning method      GridPruning ... 4 (adaptive)
Weight generation scheme         WeightScheme... Becke
Basis function cutoff            BFCut       ... 1.0000e-11
Integration weight cutoff        WCut        ... 1.0000e-14
Angular grids for H and He will be reduced by one unit
Partially contracted basis set               ... on
Rotationally invariant grid construction     ... off

Total number of grid points                  ...    19279
Total number of batches                      ...      305
Average number of points per batch           ...       63
Average number of grid points per atom       ...     2754
UseSFitting                                  ... on

Time for X-Grid setup             =    0.072 sec

--------------
SCF ITERATIONS
--------------
ITER       Energy         Delta-E        Max-DP      RMS-DP      [F,P]     Damp
               ***  Starting incremental Fock matrix formation  ***
                      *** Initiating the SOSCF procedure ***
                      *** Re-Reading the Fockian *** 
                      *** Removing any level shift *** 
ITER      Energy       Delta-E        Grad      Rot      Max-DP    RMS-DP
  0   -153.44000757 -153.4400075717  0.000001  0.000001  0.000002  0.000000
               *** Restarting incremental Fock matrix formation ***
                  ***Gradient check signals convergence***
              ***Rediagonalizing the Fockian in SOSCF/NRSCF***

               *****************************************************
               *                     SUCCESS                       *
               *           SCF CONVERGED AFTER   1 CYCLES          *
               *****************************************************

Old exchange energy                            =     -4.966308955 Eh
New exchange energy                            =     -4.966308062 Eh
Exchange energy change after final integration =      0.000000893 Eh
Total energy after final integration           =   -153.440006679 Eh
Final COS-X integration done in                =     0.254 sec

----------------
TOTAL SCF ENERGY
----------------

Total Energy       :         -153.44000668 Eh           -4175.31485 eV

Components:
Nuclear Repulsion  :           67.90301118 Eh            1847.73487 eV
Electronic Energy  :         -221.34301785 Eh           -6023.04972 eV
One Electron Energy:         -342.44250435 Eh           -9318.33428 eV
Two Electron Energy:          121.09948649 Eh            3295.28456 eV
Max COSX asymmetry :            0.00000251 Eh               0.00007 eV

Virial components:
Potential Energy   :         -306.66020192 Eh           -8344.64833 eV
Kinetic Energy     :          153.22019524 Eh            4169.33348 eV
Virial Ratio       :            2.00143461


DFT components:
N(Alpha)           :       11.999993234224 electrons
N(Beta)            :       11.999993234224 electrons
N(Total)           :       23.999986468448 electrons
E(X)               :      -14.936364017843 Eh       
E(C)               :       -0.775417100340 Eh       
E(XC)              :      -15.711781118183 Eh       
DFET-embed. en.    :        0.000000000000 Eh       

---------------
SCF CONVERGENCE
---------------

  Last Energy change         ...   -6.8781e-11  Tolerance :   1.0000e-08
  Last MAX-Density change    ...    5.5511e-16  Tolerance :   1.0000e-07
  Last RMS-Density change    ...    1.7824e-17  Tolerance :   5.0000e-09
  Last Orbital Gradient      ...    7.7497e-07  Tolerance :   1.0000e-05
  Last Orbital Rotation      ...    8.9749e-06  Tolerance :   1.0000e-05

             **** THE GBW FILE WAS UPDATED (ox_es1_G_orca0001.gbw) ****
             **** DENSITY ox_es1_G_orca0001.scfp WAS UPDATED ****
             **** ENERGY FILE WAS UPDATED (ox_es1_G_orca0001.en.tmp) ****
             **** THE GBW FILE WAS UPDATED (ox_es1_G_orca0001.gbw) ****
             **** DENSITY ox_es1_G_orca0001.scfp WAS UPDATED ****
----------------
ORBITAL ENERGIES
----------------

  NO   OCC          E(Eh)            E(eV) 
   0   2.0000     -19.180594      -521.9305 
   1   2.0000     -10.282584      -279.8033 
   2   2.0000     -10.281256      -279.7672 
   3   2.0000      -1.028949       -27.9991 
   4   2.0000      -0.767213       -20.8769 
   5   2.0000      -0.624008       -16.9801 
   6   2.0000      -0.532768       -14.4974 
   7   2.0000      -0.480244       -13.0681 
   8   2.0000      -0.463860       -12.6223 
   9   2.0000      -0.400577       -10.9003 
  10   2.0000      -0.250933        -6.8282 
  11   2.0000      -0.218809        -5.9541 
  12   0.0000      -0.163484        -4.4486 
  13   0.0000       0.053820         1.4645 
  14   0.0000       0.083782         2.2798 
  15   0.0000       0.103989         2.8297 
  16   0.0000       0.142798         3.8857 
  17   0.0000       0.149017         4.0550 
  18   0.0000       0.182221         4.9585 
  19   0.0000       0.217542         5.9196 
  20   0.0000       0.223049         6.0695 
  21   0.0000       0.241452         6.5702 
  22   0.0000       0.247051         6.7226 
  23   0.0000       0.315718         8.5911 
  24   0.0000       0.357707         9.7337 
  25   0.0000       0.396150        10.7798 
  26   0.0000       0.402985        10.9658 
  27   0.0000       0.425264        11.5720 
  28   0.0000       0.458168        12.4674 
  29   0.0000       0.488901        13.3037 
  30   0.0000       0.512015        13.9326 
  31   0.0000       0.522373        14.2145 
  32   0.0000       0.555939        15.1279 
  33   0.0000       0.627607        17.0781 
  34   0.0000       0.644471        17.5369 
  35   0.0000       0.748084        20.3564 
  36   0.0000       0.789438        21.4817 
  37   0.0000       0.830104        22.5883 
  38   0.0000       0.897336        24.4178 
  39   0.0000       0.914626        24.8882 
  40   0.0000       0.931623        25.3508 
  41   0.0000       0.989766        26.9329 
  42   0.0000       1.098768        29.8990 
  43   0.0000       1.114921        30.3386 
  44   0.0000       1.201262        32.6880 
  45   0.0000       1.324089        36.0303 
  46   0.0000       1.405456        38.2444 
  47   0.0000       1.438997        39.1571 
  48   0.0000       1.497645        40.7530 
  49   0.0000       1.504980        40.9526 
  50   0.0000       1.523951        41.4688 
  51   0.0000       1.575040        42.8590 
  52   0.0000       1.617301        44.0090 
  53   0.0000       1.649784        44.8929 
  54   0.0000       1.732256        47.1371 
  55   0.0000       1.736924        47.2641 
  56   0.0000       1.834914        49.9305 
  57   0.0000       1.896992        51.6198 
  58   0.0000       1.941123        52.8206 
  59   0.0000       1.959863        53.3306 
  60   0.0000       1.989782        54.1447 
  61   0.0000       2.034782        55.3692 
  62   0.0000       2.073109        56.4122 
  63   0.0000       2.261042        61.5261 
  64   0.0000       2.330170        63.4072 
  65   0.0000       2.358218        64.1704 
  66   0.0000       2.388235        64.9872 
  67   0.0000       2.520968        68.5990 
  68   0.0000       2.542977        69.1979 
  69   0.0000       2.583743        70.3072 
  70   0.0000       2.599995        70.7494 
  71   0.0000       2.623236        71.3819 
  72   0.0000       2.653561        72.2071 
  73   0.0000       2.718034        73.9615 
  74   0.0000       2.775411        75.5228 
  75   0.0000       2.828469        76.9666 
  76   0.0000       2.863475        77.9191 
  77   0.0000       2.999789        81.6284 
  78   0.0000       3.014819        82.0374 
  79   0.0000       3.024321        82.2959 
  80   0.0000       3.058739        83.2325 
  81   0.0000       3.095427        84.2308 
  82   0.0000       3.105745        84.5116 
  83   0.0000       3.157437        85.9182 
  84   0.0000       3.183560        86.6291 
  85   0.0000       3.270514        88.9952 
  86   0.0000       3.323475        90.4364 
  87   0.0000       3.368611        91.6646 
  88   0.0000       3.381577        92.0174 
  89   0.0000       3.456113        94.0456 
  90   0.0000       3.477017        94.6145 
  91   0.0000       3.572451        97.2113 
  92   0.0000       3.700389       100.6927 
  93   0.0000       3.796092       103.2969 
  94   0.0000       4.027593       109.5964 
  95   0.0000       4.151612       112.9711 
  96   0.0000       4.168568       113.4325 
  97   0.0000       4.330053       117.8267 
  98   0.0000       4.372666       118.9863 
  99   0.0000       4.526349       123.1682 
 100   0.0000       4.630079       125.9908 
 101   0.0000       4.791862       130.3932 
 102   0.0000       5.194163       141.3403 
 103   0.0000       5.254254       142.9755 
 104   0.0000       5.446032       148.1941 
 105   0.0000       5.492950       149.4708 
 106   0.0000       5.866323       159.6308 
 107   0.0000       5.956660       162.0890 
 108   0.0000       6.090194       165.7226 
 109   0.0000       6.388412       173.8375 
 110   0.0000       6.407329       174.3523 
 111   0.0000       6.831542       185.8957 
 112   0.0000       6.848191       186.3487 
 113   0.0000       6.963367       189.4828 
 114   0.0000      22.218702       604.6016 
 115   0.0000      22.547170       613.5397 
 116   0.0000      43.813607      1192.2289 

                    ********************************
                    * MULLIKEN POPULATION ANALYSIS *
                    ********************************

-----------------------
MULLIKEN ATOMIC CHARGES
-----------------------
   0 O :   -0.396219
   1 C :   -0.150925
   2 C :   -0.165424
   3 H :    0.158356
   4 H :    0.240597
   5 H :    0.159765
   6 H :    0.153851
Sum of atomic charges:   -0.0000000

--------------------------------
MULLIKEN REDUCED ORBITAL CHARGES
--------------------------------
  0 O s       :     3.886712  s :     3.886712
      pz      :     1.464170  p :     4.477783
      px      :     1.661354
      py      :     1.352260
      dz2     :     0.003238  d :     0.030096
      dxz     :     0.001499
      dyz     :     0.008137
      dx2y2   :     0.007164
      dxy     :     0.010058
      f0      :     0.000181  f :     0.001628
      f+1     :     0.000072
      f-1     :     0.000137
      f+2     :     0.000163
      f-2     :     0.000205
      f+3     :     0.000467
      f-3     :     0.000402
  1 C s       :     3.233055  s :     3.233055
      pz      :     1.027630  p :     2.747176
      px      :     0.875169
      py      :     0.844377
      dz2     :     0.012488  d :     0.157427
      dxz     :     0.030679
      dyz     :     0.034251
      dx2y2   :     0.051659
      dxy     :     0.028351
      f0      :     0.001425  f :     0.013267
      f+1     :     0.001521
      f-1     :     0.000267
      f+2     :     0.001082
      f-2     :     0.001572
      f+3     :     0.002154
      f-3     :     0.005247
  2 C s       :     3.299283  s :     3.299283
      pz      :     1.065489  p :     2.827321
      px      :     0.941535
      py      :     0.820296
      dz2     :     0.005451  d :     0.035518
      dxz     :     0.016761
      dyz     :     0.002007
      dx2y2   :     0.004935
      dxy     :     0.006363
      f0      :     0.000402  f :     0.003303
      f+1     :     0.001012
      f-1     :     0.000163
      f+2     :     0.000460
      f-2     :     0.000020
      f+3     :     0.000623
      f-3     :     0.000622
  3 H s       :     0.810356  s :     0.810356
      pz      :     0.010541  p :     0.031288
      px      :     0.010172
      py      :     0.010575
  4 H s       :     0.733184  s :     0.733184
      pz      :     0.010426  p :     0.026219
      px      :     0.008171
      py      :     0.007622
  5 H s       :     0.815440  s :     0.815440
      pz      :     0.011680  p :     0.024795
      px      :     0.006961
      py      :     0.006154
  6 H s       :     0.821056  s :     0.821056
      pz      :     0.011751  p :     0.025093
      px      :     0.007319
      py      :     0.006023


                     *******************************
                     * LOEWDIN POPULATION ANALYSIS *
                     *******************************

----------------------
LOEWDIN ATOMIC CHARGES
----------------------
   0 O :   -0.065722
   1 C :   -0.453696
   2 C :   -0.026596
   3 H :    0.107291
   4 H :    0.243561
   5 H :    0.101849
   6 H :    0.093312

-------------------------------
LOEWDIN REDUCED ORBITAL CHARGES
-------------------------------
  0 O s       :     3.515215  s :     3.515215
      pz      :     1.402038  p :     4.469573
      px      :     1.635155
      py      :     1.432379
      dz2     :     0.007130  d :     0.075762
      dxz     :     0.004486
      dyz     :     0.022958
      dx2y2   :     0.021426
      dxy     :     0.019764
      f0      :     0.000779  f :     0.005172
      f+1     :     0.000218
      f-1     :     0.000443
      f+2     :     0.000450
      f-2     :     0.000792
      f+3     :     0.001203
      f-3     :     0.001287
  1 C s       :     2.823939  s :     2.823939
      pz      :     1.019328  p :     2.963010
      px      :     0.993789
      py      :     0.949893
      dz2     :     0.072883  d :     0.582736
      dxz     :     0.098184
      dyz     :     0.089279
      dx2y2   :     0.189196
      dxy     :     0.133194
      f0      :     0.009240  f :     0.084010
      f+1     :     0.008283
      f-1     :     0.005373
      f+2     :     0.005886
      f-2     :     0.010980
      f+3     :     0.015984
      f-3     :     0.028264
  2 C s       :     2.924908  s :     2.924908
      pz      :     1.099499  p :     2.912344
      px      :     1.047103
      py      :     0.765742
      dz2     :     0.029440  d :     0.172250
      dxz     :     0.081852
      dyz     :     0.005405
      dx2y2   :     0.031583
      dxy     :     0.023969
      f0      :     0.002438  f :     0.017093
      f+1     :     0.003774
      f-1     :     0.000803
      f+2     :     0.002833
      f-2     :     0.000890
      f+3     :     0.003473
      f-3     :     0.002882
  3 H s       :     0.795361  s :     0.795361
      pz      :     0.034553  p :     0.097347
      px      :     0.028870
      py      :     0.033924
  4 H s       :     0.692941  s :     0.692941
      pz      :     0.026781  p :     0.063499
      px      :     0.019351
      py      :     0.017367
  5 H s       :     0.818323  s :     0.818323
      pz      :     0.038241  p :     0.079827
      px      :     0.021730
      py      :     0.019857
  6 H s       :     0.823889  s :     0.823889
      pz      :     0.039481  p :     0.082798
      px      :     0.023915
      py      :     0.019402


                      *****************************
                      * MAYER POPULATION ANALYSIS *
                      *****************************

  NA   - Mulliken gross atomic population
  ZA   - Total nuclear charge
  QA   - Mulliken gross atomic charge
  VA   - Mayer's total valence
  BVA  - Mayer's bonded valence
  FA   - Mayer's free valence

  ATOM       NA         ZA         QA         VA         BVA        FA
  0 O      8.3962     8.0000    -0.3962     1.7763     1.7763     0.0000
  1 C      6.1509     6.0000    -0.1509     4.0749     4.0749    -0.0000
  2 C      6.1654     6.0000    -0.1654     3.6716     3.6716     0.0000
  3 H      0.8416     1.0000     0.1584     0.9783     0.9783     0.0000
  4 H      0.7594     1.0000     0.2406     0.9521     0.9521    -0.0000
  5 H      0.8402     1.0000     0.1598     0.9681     0.9681    -0.0000
  6 H      0.8461     1.0000     0.1539     0.9710     0.9710    -0.0000

  Mayer bond orders larger than 0.100000
B(  0-O ,  1-C ) :   1.1502 B(  0-O ,  2-C ) :   0.5637 B(  1-C ,  2-C ) :   1.1173 
B(  1-C ,  3-H ) :   1.0076 B(  1-C ,  4-H ) :   0.7896 B(  2-C ,  5-H ) :   0.9505 
B(  2-C ,  6-H ) :   0.9596 

-------
TIMINGS
-------

Total SCF time: 0 days 0 hours 0 min 0 sec 

Total time                  ....       0.949 sec
Sum of individual times     ....       0.882 sec  ( 93.0%)

Fock matrix formation       ....       0.681 sec  ( 71.8%)
  Split-RI-J                ....       0.111 sec  ( 16.3% of F)
  Chain of spheres X        ....       0.507 sec  ( 74.5% of F)
  XC integration            ....       0.060 sec  (  8.9% of F)
    Basis function eval.    ....       0.017 sec  ( 28.5% of XC)
    Density eval.           ....       0.013 sec  ( 21.6% of XC)
    XC-Functional eval.     ....       0.004 sec  (  6.1% of XC)
    XC-Potential eval.      ....       0.019 sec  ( 31.8% of XC)
Diagonalization             ....       0.002 sec  (  0.3%)
Density matrix formation    ....       0.000 sec  (  0.0%)
Population analysis         ....       0.003 sec  (  0.3%)
Initial guess               ....       0.003 sec  (  0.4%)
Orbital Transformation      ....       0.000 sec  (  0.0%)
Orbital Orthonormalization  ....       0.001 sec  (  0.1%)
DIIS solution               ....       0.001 sec  (  0.1%)
SOSCF solution              ....       0.002 sec  (  0.2%)
Grid generation             ....       0.189 sec  ( 19.9%)

Maximum memory used throughout the entire SCF-calculation: 61.1 MB


           ************************************************************
           *        Program running with 8 parallel MPI-processes     *
           *              working on a common directory               *
           ************************************************************
------------------------------------------------------------------------------
                        ORCA TD-DFT/TDA CALCULATION
------------------------------------------------------------------------------

Input orbitals are from        ... ox_es1_G_orca0001.gbw
CI-vector output               ... ox_es1_G_orca0001.cis
Tamm-Dancoff approximation     ... operative
CIS-Integral strategy          ... AO-integrals
Integral handling              ... AO integral Direct
Max. core memory used          ... 3000 MB
Reference state                ... RHF
Generation of triplets         ... off
Follow IRoot                   ... off
Number of operators            ... 1
Orbital ranges used for CIS calculation:
 Operator 0:  Orbitals   3... 11  to  12...116
XAS localization array:
 Operator 0:  Orbitals  -1... -1

-------------------
XC-INTEGRATION GRID
-------------------

General Integration Accuracy     IntAcc      ... 3.467
Radial Grid Type                 RadialGrid  ... OptM3 with GC (2021)
Angular Grid (max. ang.)         AngularGrid ... 1 (Lebedev-50)
Angular grid pruning method      GridPruning ... 4 (adaptive)
Weight generation scheme         WeightScheme... Becke
Basis function cutoff            BFCut       ... 1.0000e-11
Integration weight cutoff        WCut        ... 1.0000e-14
Angular grids for H and He will be reduced by one unit
Partially contracted basis set               ... off
Rotationally invariant grid construction     ... off

Total number of grid points                  ...     4552
Total number of batches                      ...       75
Average number of points per batch           ...       60
Average number of grid points per atom       ...      650

---------------------
COSX-INTEGRATION GRID
---------------------

General Integration Accuracy     IntAcc      ... 3.067
Radial Grid Type                 RadialGrid  ... OptM3 with GC (2021)
Angular Grid (max. ang.)         AngularGrid ... 1 (Lebedev-50)
Angular grid pruning method      GridPruning ... 4 (adaptive)
Weight generation scheme         WeightScheme... Becke
Basis function cutoff            BFCut       ... 1.0000e-11
Integration weight cutoff        WCut        ... 1.0000e-14
Angular grids for H and He will be reduced by one unit
Partially contracted basis set               ... on
Rotationally invariant grid construction     ... off

Total number of grid points                  ...     2086
Total number of batches                      ...       36
Average number of points per batch           ...       57
Average number of grid points per atom       ...      298

---------------
TD-DFT XC SETUP
---------------

DFT calculation                         ... on
Name of the grid file                   ... ox_es1_G_orca0001.grid_cis.tmp
Exchange functional (TD-DFT)            ... PBE
   PBE kappa parameter  XKappa (TD-DFT) ...  0.804000
   PBE mue parameter   XMuePBE (TD-DFT) ...  0.219520
Correlation functional (TD-DFT)         ... PBE
   PBE beta parameter CBetaPBE (TD-DFT) ...  0.066725
 LDA part of GGA corr.  LDAOpt (TD-DFT) ... PW91-LDA
Hybrid DFT                              ... on
   Exchange mixing (TD-DFT)             ...  0.250
   GGA exch. scaling (TD-DFT)           ...  0.750
   GGA corr. scaling (TD-DFT)           ...  1.000

Building densities             ... done
Calculating rho(r) on the grid ... done
Building xc-kernel on the grid ... done
                    *** TD-DFT CALCULATION INITIALIZED ***

------------------------
DAVIDSON-DIAGONALIZATION
------------------------

Dimension of the eigenvalue problem            ...    945
Number of roots to be determined               ...      1
Maximum size of the expansion space            ...     10
Maximum number of iterations                   ...    100
Convergence tolerance for the residual         ...    2.500e-07
Convergence tolerance for the energies         ...    2.500e-07
Orthogonality tolerance                        ...    1.000e-14
Level Shift                                    ...    0.000e+00
Constructing the preconditioner                ... o.k.
Building the initial guess                     ... o.k.
Number of trial vectors determined             ...     10


                       ****Iteration    0****

   Memory handling for direct AO based CIS:
   Memory per vector needed      ...     1 MB
   Memory needed                 ...     1 MB
   Memory available              ...  3000 MB
   Number of vectors per batch   ...  3000
   Number of batches             ...     1
   Time for densities:            0.001
   Time for RI-J (Direct):        0.015
   Time for K (COSX):             0.055
   Time for XC-Integration:       0.015
   Time for Sigma-Completion:     0.000
   Size of expansion space: 3
   Lowest Energy          :     0.008135404181
   Maximum Energy change  :     0.008135404181 (vector 0)
   Maximum residual norm  :     0.003329885928

                       ****Iteration    1****
   Time for densities:            0.000
   Time for RI-J (Direct):        0.012
   Time for K (COSX):             0.048
   Time for XC-Integration:       0.006
   Time for Sigma-Completion:     0.000
   Size of expansion space: 4
   Lowest Energy          :     0.005793476587
   Maximum Energy change  :     0.002341927594 (vector 0)
   Maximum residual norm  :     0.000258695253

                       ****Iteration    2****
   Time for densities:            0.000
   Time for RI-J (Direct):        0.012
   Time for K (COSX):             0.049
   Time for XC-Integration:       0.006
   Time for Sigma-Completion:     0.000
   Size of expansion space: 5
   Lowest Energy          :     0.005588333326
   Maximum Energy change  :     0.000205143261 (vector 0)
   Maximum residual norm  :     0.000008937008

                       ****Iteration    3****
   Time for densities:            0.000
   Time for RI-J (Direct):        0.012
   Time for K (COSX):             0.050
   Time for XC-Integration:       0.006
   Time for Sigma-Completion:     0.000
   Size of expansion space: 6
   Lowest Energy          :     0.005582306143
   Maximum Energy change  :     0.000006027183 (vector 0)
   Maximum residual norm  :     0.000000265006

                       ****Iteration    4****
   Time for densities:            0.000
   Time for RI-J (Direct):        0.012
   Time for K (COSX):             0.049
   Time for XC-Integration:       0.006
   Time for Sigma-Completion:     0.000
   Size of expansion space: 7
   Lowest Energy          :     0.005582123070
   Maximum Energy change  :     0.000000183073 (vector 0)

         *** CONVERGENCE OF ENERGIES REACHED ***

Storing the converged CI vectors               ... ox_es1_G_orca0001.cis1

                 *** DAVIDSON DONE ***

Total time for solving the CIS problem:     0.358sec

------------------------------------
TD-DFT/TDA EXCITED STATES (SINGLETS)
------------------------------------

the weight of the individual excitations are printed if larger than 1.0e-02

STATE  1:  E=   0.005582 au      0.152 eV     1225.1 cm**-1 <S**2> =   0.000000
    10a ->  12a  :     0.799954 (c=  0.89440144)
    11a ->  12a  :     0.195643 (c=  0.44231553)


-----------------------------
TD-DFT/TDA-EXCITATION SPECTRA
-----------------------------

Center of mass = ( -1.0400, -0.0935,  0.0234)
Calculating the Dipole integrals                  ... done
Transforming integrals                            ... done
Calculating the Linear Momentum integrals         ... done
Transforming integrals                            ... done
Calculating angular momentum integrals            ... done
Transforming integrals                            ... done

-----------------------------------------------------------------------------
         ABSORPTION SPECTRUM VIA TRANSITION ELECTRIC DIPOLE MOMENTS
-----------------------------------------------------------------------------
State   Energy    Wavelength  fosc         T2        TX        TY        TZ  
        (cm-1)      (nm)                 (au**2)    (au)      (au)      (au) 
-----------------------------------------------------------------------------
   1    1225.1   8162.4   0.000127372   0.03423  -0.17424   0.05691   0.02507

-----------------------------------------------------------------------------
         ABSORPTION SPECTRUM VIA TRANSITION VELOCITY DIPOLE MOMENTS
-----------------------------------------------------------------------------
State   Energy    Wavelength   fosc        P2         PX        PY        PZ  
        (cm-1)      (nm)                 (au**2)     (au)      (au)      (au) 
-----------------------------------------------------------------------------
   1    1225.1   8162.4   0.570278804   0.00478  -0.04071   0.05584   0.00009

-------------------------------------------------------------------
                             CD SPECTRUM
-------------------------------------------------------------------
State  Energy     Wavelength     R         MX        MY        MZ   
       (cm-1)       (nm)     (1e40*cgs)   (au)      (au)      (au)  
-------------------------------------------------------------------
   1    1225.1   8162.4     30.67048  -0.28920   0.27731  -0.04451

-------------------------------------------------------------------
         CD SPECTRUM VIA TRANSITION VELOCITY DIPOLE MOMENTS        
-------------------------------------------------------------------
State  Energy     Wavelength     R         MX        MY        MZ   
       (cm-1)       (nm)     (1e40*cgs)   (au)      (au)      (au)  
-------------------------------------------------------------------
   1    1225.1   8162.4    2301.77007  -0.28920   0.27731  -0.04451

Total run time:        0.588 sec

           *** ORCA-CIS/TD-DFT FINISHED WITHOUT ERROR ***

Maximum memory used throughout the entire CIS-calculation: 49.4 MB

-----------------------
CIS/TD-DFT TOTAL ENERGY
-----------------------

    E(SCF)  =   -153.440006679 Eh
    DE(CIS) =      0.005582123 Eh (Root  1)
    ----------------------------- ---------
    E(tot)  =   -153.434424556 Eh



-------------------------------------------------------------------------------
                          DFT DISPERSION CORRECTION                            
                                                                               
                              DFTD3 V3.1  Rev 1                                
                          USING Becke-Johnson damping                          
-------------------------------------------------------------------------------
The PBE0 functional is recognized
Active option DFTDOPT                   ...         4   

molecular C6(AA) [au] = 394.617070 


            DFT-D V3
 parameters
 s6 scaling factor         :     1.0000 
 a1 scaling factor         :     0.4145 
 s8 scaling factor         :     1.2177 
 a2 scaling factor         :     4.8593 
 ad hoc parameters k1-k3   :    16.0000     1.3333    -4.0000 

 Edisp/kcal,au: -1.613122568417  -0.002570674170 
 E6   /kcal   :  -1.051931889 
 E8   /kcal   :  -0.561190680 
 % E8         :  34.789091099 

-------------------------   ----------------
Dispersion correction           -0.002570674
-------------------------   ----------------


-------------------------   --------------------
FINAL SINGLE POINT ENERGY      -153.436995230150
-------------------------   --------------------



           ************************************************************
           *        Program running with 8 parallel MPI-processes     *
           *              working on a common directory               *
           ************************************************************
------------------------------------------------------------------------------
                         ORCA SCF GRADIENT CALCULATION
------------------------------------------------------------------------------


------------------------
TD-DFT GRADIENT XC SETUP
------------------------

Building densities                     ... done
Calculating rho(r) on the grid         ... done
Building xc-kernel on the grid         ... done
Building xc 3rd derivative on the grid      ... done
                *** TD-DFT GRADIENT CALCULATION INITIALIZED ***

-------------------
TD-DFT/TDA GRADIENT
-------------------

Reference wavefunction             ... RHF
State of interest                  ... 1
Basis dimension                    ... 117
DFT-XC contribution needed         ... YES
RI-approximation                   ... ON
CIS-vectors being read from        ... ox_es1_G_orca0001.cis

 => Number of Vectors found: 1
 => Orbital Window: 3...11 -> 12...116

Reading the CIS file                     ... done
Norm of the CI vector                    ... 1.000000000
Making the CIS (pseudo)densities         ... done
Making operators G(D) and Q(T)           ... done
Transforming the Fock operators          ... done
Making the frozen-core relaxed density   ... done
Constructing the G(H) operator           ... done
Transforming the G(H) operator           ... done
Calculating the CIS Lagrangian           ... done
Solving the Z-vector equations           ... done
Finalizing the relaxed density           ... done
Storing the relaxed density              ... done
Constructing the G(Z) operator           ... done
Transforming the G(Z) operator           ... done
Making the W-matrix                      ... done
Finalizing the W-matrix                  ... done
Transforming the W-matrix                ... done
Nuclear repulsion gradient               ... done
One-Electron gradient                    ... done
Dispersion correction                    ... done
Prescreening matrices                    ... done
COSX-gradient                            ... done
Coulomb gradient (RI)                    ... done
Exchange-Correlation gradient            ... done

                 ---------------------------
                 EXCITED STATE GRADIENT DONE
                 ---------------------------

------------------
CARTESIAN GRADIENT
------------------

   1   O   :    0.064102695   -0.092399916   -0.017077448
   2   C   :   -0.095980512   -0.026922912    0.125139570
   3   C   :    0.115317080   -0.003371529    0.008233066
   4   H   :    0.012138428    0.051406149   -0.095048683
   5   H   :   -0.045933141    0.035881280   -0.001665931
   6   H   :   -0.016738486    0.020010432    0.043131850
   7   H   :   -0.032839604    0.015415109   -0.062705507

Difference to translation invariance:
           :    0.0000664579    0.0000186116    0.0000069165

Difference to rotation invariance:
           :   -0.0000869209   -0.0001290104    0.0005372107

Norm of the cartesian gradient     ...    0.2737261585
RMS gradient                       ...    0.0597319448
MAX gradient                       ...    0.1251395701

------------------------------------------------------------------------------
                  RELAXED CIS/TDA DENSITY POPULATION ANALYSIS
                                   IROOT 1
------------------------------------------------------------------------------
------------------------------------------------------------------------------
                           ORCA POPULATION ANALYSIS
------------------------------------------------------------------------------
Input electron density              ... ox_es1_G_orca0001.cisp
BaseName (.gbw .S,...)              ... ox_es1_G_orca0001

                    ********************************
                    * MULLIKEN POPULATION ANALYSIS *
                    ********************************

-----------------------
MULLIKEN ATOMIC CHARGES
-----------------------
   0 O :   -0.411348
   1 C :   -0.105656
   2 C :   -0.207021
   3 H :    0.213019
   4 H :    0.183604
   5 H :    0.164698
   6 H :    0.162703
Sum of atomic charges:   -0.0000000

--------------------------------
MULLIKEN REDUCED ORBITAL CHARGES
--------------------------------
  0 O s       :     3.897963  s :     3.897963
      pz      :     2.399049  p :     4.481871
      px      :     1.369648
      py      :     0.713175
      dz2     :     0.003215  d :     0.029918
      dxz     :     0.001173
      dyz     :     0.006521
      dx2y2   :     0.008494
      dxy     :     0.010515
      f0      :     0.000220  f :     0.001595
      f+1     :     0.000148
      f-1     :     0.000289
      f+2     :     0.000126
      f-2     :     0.000118
      f+3     :     0.000348
      f-3     :     0.000346
  1 C s       :     3.161280  s :     3.161280
      pz      :     1.107806  p :     2.789463
      px      :     0.879229
      py      :     0.802428
      dz2     :     0.004628  d :     0.139577
      dxz     :     0.030298
      dyz     :     0.057050
      dx2y2   :     0.046614
      dxy     :     0.000987
      f0      :     0.002457  f :     0.015336
      f+1     :     0.001111
      f-1     :     0.000446
      f+2     :     0.001665
      f-2     :     0.003158
      f+3     :     0.001791
      f-3     :     0.004708
  2 C s       :     3.335993  s :     3.335993
      pz      :     1.069103  p :     2.828660
      px      :     0.827209
      py      :     0.932348
      dz2     :     0.005979  d :     0.038855
      dxz     :     0.019173
      dyz     :     0.002608
      dx2y2   :     0.004895
      dxy     :     0.006201
      f0      :     0.000392  f :     0.003512
      f+1     :     0.001024
      f-1     :     0.000195
      f+2     :     0.000550
      f-2     :    -0.000008
      f+3     :     0.000718
      f-3     :     0.000642
  3 H s       :     0.754093  s :     0.754093
      pz      :     0.011386  p :     0.032888
      px      :     0.011126
      py      :     0.010377
  4 H s       :     0.790954  s :     0.790954
      pz      :     0.010353  p :     0.025442
      px      :     0.008135
      py      :     0.006954
  5 H s       :     0.810702  s :     0.810702
      pz      :     0.012028  p :     0.024600
      px      :     0.006037
      py      :     0.006535
  6 H s       :     0.812385  s :     0.812385
      pz      :     0.011727  p :     0.024912
      px      :     0.006524
      py      :     0.006661


                     *******************************
                     * LOEWDIN POPULATION ANALYSIS *
                     *******************************

----------------------
LOEWDIN ATOMIC CHARGES
----------------------
   0 O :   -0.083831
   1 C :   -0.414033
   2 C :   -0.048346
   3 H :    0.159016
   4 H :    0.187196
   5 H :    0.104490
   6 H :    0.095507

-------------------------------
LOEWDIN REDUCED ORBITAL CHARGES
-------------------------------
  0 O s       :     3.512453  s :     3.512453
      pz      :     2.277928  p :     4.487628
      px      :     1.358231
      py      :     0.851469
      dz2     :     0.007075  d :     0.078440
      dxz     :     0.005126
      dyz     :     0.027727
      dx2y2   :     0.018788
      dxy     :     0.019724
      f0      :     0.000864  f :     0.005310
      f+1     :     0.000237
      f-1     :     0.000613
      f+2     :     0.000506
      f-2     :     0.000959
      f+3     :     0.001127
      f-3     :     0.001005
  1 C s       :     2.810398  s :     2.810398
      pz      :     1.109122  p :     2.982948
      px      :     0.972383
      py      :     0.901443
      dz2     :     0.053865  d :     0.523142
      dxz     :     0.097628
      dyz     :     0.156890
      dx2y2   :     0.148347
      dxy     :     0.066412
      f0      :     0.016039  f :     0.097544
      f+1     :     0.006066
      f-1     :     0.005555
      f+2     :     0.008853
      f-2     :     0.021716
      f+3     :     0.014720
      f-3     :     0.024596
  2 C s       :     2.922028  s :     2.922028
      pz      :     1.099583  p :     2.928536
      px      :     0.946990
      py      :     0.881962
      dz2     :     0.029882  d :     0.180060
      dxz     :     0.090391
      dyz     :     0.005838
      dx2y2   :     0.031065
      dxy     :     0.022884
      f0      :     0.002738  f :     0.017723
      f+1     :     0.003868
      f-1     :     0.000808
      f+2     :     0.003199
      f-2     :     0.000904
      f+3     :     0.003598
      f-3     :     0.002607
  3 H s       :     0.744030  s :     0.744030
      pz      :     0.036684  p :     0.096953
      px      :     0.032387
      py      :     0.027882
  4 H s       :     0.748412  s :     0.748412
      pz      :     0.028577  p :     0.064391
      px      :     0.019487
      py      :     0.016327
  5 H s       :     0.816617  s :     0.816617
      pz      :     0.038783  p :     0.078893
      px      :     0.018513
      py      :     0.021597
  6 H s       :     0.821267  s :     0.821267
      pz      :     0.039660  p :     0.083225
      px      :     0.020743
      py      :     0.022822


                      *****************************
                      * MAYER POPULATION ANALYSIS *
                      *****************************

  NA   - Mulliken gross atomic population
  ZA   - Total nuclear charge
  QA   - Mulliken gross atomic charge
  VA   - Mayer's total valence
  BVA  - Mayer's bonded valence
  FA   - Mayer's free valence

  ATOM       NA         ZA         QA         VA         BVA        FA
  0 O      8.4113     8.0000    -0.4113     0.5745     2.2946    -1.7201
  1 C      6.1057     6.0000    -0.1057     3.9692     4.3032    -0.3340
  2 C      6.2070     6.0000    -0.2070     3.6618     4.1226    -0.4608
  3 H      0.7870     1.0000     0.2130     0.9578     1.0784    -0.1207
  4 H      0.8164     1.0000     0.1836     0.9497     1.1095    -0.1598
  5 H      0.8353     1.0000     0.1647     0.9625     0.9775    -0.0150
  6 H      0.8373     1.0000     0.1627     0.9603     0.9678    -0.0075

  Mayer bond orders larger than 0.100000
B(  0-O ,  1-C ) :   1.2042 B(  0-O ,  2-C ) :   0.8382 B(  0-O ,  3-H ) :   0.1096 
B(  0-O ,  4-H ) :   0.1217 B(  1-C ,  2-C ) :   1.2766 B(  1-C ,  3-H ) :   0.8846 
B(  1-C ,  4-H ) :   0.9344 B(  2-C ,  5-H ) :   0.9621 B(  2-C ,  6-H ) :   0.9570 



-------
TIMINGS
-------

Total TD-DFT gradient time         ...        5.819 sec

Fock matrix formation       ....       0.819 sec  ( 14.1%)
  Coulomb formation         ....       0.668 sec  ( 81.5% of F)
  RI-J                      ....       0.284 sec  ( 34.7% of F)
  Chain of spheres X        ....       0.383 sec  ( 46.7% of F)
  XC integration            ....       0.152 sec  ( 18.5% of F)
Z-vector equation           ....       2.399 sec  ( 41.2%)
One electron gradient       ....       0.031 sec  (  0.5%)
Prescreening matrices       ....       0.148 sec  (  2.5%)
RI-J Coulomb gradient       ....       0.259 sec  (  4.5%)
COSX gradient               ....       0.341 sec  (  5.9%)
XC gradient                 ....       1.526 sec  ( 26.2%)

Maximum memory used throughout the entire SCFGRAD-calculation: 130.2 MB

                            ***************************************
                            *     ORCA property calculations      *
                            ***************************************

                                    ---------------------
                                    Active property flags
                                    ---------------------
   (+) Dipole Moment


------------------------------------------------------------------------------
                       ORCA ELECTRIC PROPERTIES CALCULATION
------------------------------------------------------------------------------

Dipole Moment Calculation                       ... on
Quadrupole Moment Calculation                   ... off
Polarizability Calculation                      ... off
GBWName                                         ... ox_es1_G_orca0001.gbw
Electron density                                ... ox_es1_G_orca0001.scfp
The origin for moment calculation is the CENTER OF MASS  = (-1.040020, -0.093468  0.023373)

-------------
DIPOLE MOMENT
-------------
                                X             Y             Z
Electronic contribution:     -0.99723       1.28807       0.10125
Nuclear contribution   :      1.88438      -2.21190      -0.19894
                        -----------------------------------------
Total Dipole Moment    :      0.88715      -0.92383      -0.09769
                        -----------------------------------------
Magnitude (a.u.)       :      1.28454
Magnitude (Debye)      :      3.26504



--------------------
Rotational spectrum 
--------------------
 
Rotational constants in cm-1:     1.952949     0.296958     0.284750 
Rotational constants in MHz : 58547.937419  8902.588707  8536.602851 

 Dipole components along the rotational axes: 
x,y,z [a.u.] :     1.201099    -0.452675     0.049877 
x,y,z [Debye]:     3.052952    -1.150609     0.126778 

 

                        *** CIS RELAXED DENSITY ***

------------------------------------------------------------------------------
                       ORCA ELECTRIC PROPERTIES CALCULATION
------------------------------------------------------------------------------

Dipole Moment Calculation                       ... on
Quadrupole Moment Calculation                   ... off
Polarizability Calculation                      ... off
GBWName                                         ... ox_es1_G_orca0001.gbw
Electron density                                ... ox_es1_G_orca0001.cisp
The origin for moment calculation is the CENTER OF MASS  = (-1.040020, -0.093468  0.023373)

-------------
DIPOLE MOMENT
-------------
                                X             Y             Z
Electronic contribution:     -0.90918       1.39924       0.19013
Nuclear contribution   :      1.88438      -2.21190      -0.19894
                        -----------------------------------------
Total Dipole Moment    :      0.97520      -0.81266      -0.00881
                        -----------------------------------------
Magnitude (a.u.)       :      1.26945
Magnitude (Debye)      :      3.22669



--------------------
Rotational spectrum 
--------------------
 
Rotational constants in cm-1:     1.952949     0.296958     0.284750 
Rotational constants in MHz : 58547.937419  8902.588707  8536.602851 

 Dipole components along the rotational axes: 
x,y,z [a.u.] :     1.230454    -0.310459    -0.033322 
x,y,z [Debye]:     3.127565    -0.789124    -0.084698 

 

Timings for individual modules:

Sum of individual times         ...        8.103 sec (=   0.135 min)
GTO integral calculation        ...        0.254 sec (=   0.004 min)   3.1 %
SCF iterations                  ...        1.113 sec (=   0.019 min)  13.7 %
CIS module                      ...        0.762 sec (=   0.013 min)   9.4 %
SCF Gradient evaluation         ...        5.974 sec (=   0.100 min)  73.7 %
                             ****ORCA TERMINATED NORMALLY****
TOTAL RUN TIME: 0 days 0 hours 0 minutes 8 seconds 399 msec
