
                                 *****************
                                 * O   R   C   A *
                                 *****************

                                            #,                                       
                                            ###                                      
                                            ####                                     
                                            #####                                    
                                            ######                                   
                                           ########,                                 
                                     ,,################,,,,,                         
                               ,,#################################,,                 
                          ,,##########################################,,             
                       ,#########################################, ''#####,          
                    ,#############################################,,   '####,        
                  ,##################################################,,,,####,       
                ,###########''''           ''''###############################       
              ,#####''   ,,,,##########,,,,          '''####'''          '####       
            ,##' ,,,,###########################,,,                        '##       
           ' ,,###''''                  '''############,,,                           
         ,,##''                                '''############,,,,        ,,,,,,###''
      ,#''                                            '''#######################'''  
     '                                                          ''''####''''         
             ,#######,   #######,   ,#######,      ##                                
            ,#'     '#,  ##    ##  ,#'     '#,    #''#        ######   ,####,        
            ##       ##  ##   ,#'  ##            #'  '#       #        #'  '#        
            ##       ##  #######   ##           ,######,      #####,   #    #        
            '#,     ,#'  ##    ##  '#,     ,#' ,#      #,         ##   #,  ,#        
             '#######'   ##     ##  '#######'  #'      '#     #####' # '####'        



                  #######################################################
                  #                        -***-                        #
                  #          Department of theory and spectroscopy      #
                  #    Directorship and core code : Frank Neese         #
                  #        Max Planck Institute fuer Kohlenforschung    #
                  #                Kaiser Wilhelm Platz 1               #
                  #                 D-45470 Muelheim/Ruhr               #
                  #                      Germany                        #
                  #                                                     #
                  #                  All rights reserved                #
                  #                        -***-                        #
                  #######################################################


                         Program Version 5.0.2 -  RELEASE  -


 With contributions from (in alphabetic order):
   Daniel Aravena         : Magnetic Suceptibility
   Michael Atanasov       : Ab Initio Ligand Field Theory (pilot matlab implementation)
   Alexander A. Auer      : GIAO ZORA, VPT2 properties, NMR spectrum
   Ute Becker             : Parallelization
   Giovanni Bistoni       : ED, misc. LED, open-shell LED, HFLD
   Martin Brehm           : Molecular dynamics
   Dmytro Bykov           : SCF Hessian
   Vijay G. Chilkuri      : MRCI spin determinant printing, contributions to CSF-ICE
   Dipayan Datta          : RHF DLPNO-CCSD density
   Achintya Kumar Dutta   : EOM-CC, STEOM-CC
   Dmitry Ganyushin       : Spin-Orbit,Spin-Spin,Magnetic field MRCI
   Miquel Garcia          : C-PCM and meta-GGA Hessian, CC/C-PCM, Gaussian charge scheme
   Yang Guo               : DLPNO-NEVPT2, F12-NEVPT2, CIM, IAO-localization
   Andreas Hansen         : Spin unrestricted coupled pair/coupled cluster methods
   Benjamin Helmich-Paris : MC-RPA, TRAH-SCF, COSX integrals
   Lee Huntington         : MR-EOM, pCC
   Robert Izsak           : Overlap fitted RIJCOSX, COSX-SCS-MP3, EOM
   Marcus Kettner         : VPT2
   Christian Kollmar      : KDIIS, OOCD, Brueckner-CCSD(T), CCSD density, CASPT2, CASPT2-K
   Simone Kossmann        : Meta GGA functionals, TD-DFT gradient, OOMP2, MP2 Hessian
   Martin Krupicka        : Initial AUTO-CI
   Lucas Lang             : DCDCAS
   Marvin Lechner         : AUTO-CI (C++ implementation), FIC-MRCC
   Dagmar Lenk            : GEPOL surface, SMD
   Dimitrios Liakos       : Extrapolation schemes; Compound Job, initial MDCI parallelization
   Dimitrios Manganas     : Further ROCIS development; embedding schemes
   Dimitrios Pantazis     : SARC Basis sets
   Anastasios Papadopoulos: AUTO-CI, single reference methods and gradients
   Taras Petrenko         : DFT Hessian,TD-DFT gradient, ASA, ECA, R-Raman, ABS, FL, XAS/XES, NRVS
   Peter Pinski           : DLPNO-MP2, DLPNO-MP2 Gradient
   Christoph Reimann      : Effective Core Potentials
   Marius Retegan         : Local ZFS, SOC
   Christoph Riplinger    : Optimizer, TS searches, QM/MM, DLPNO-CCSD(T), (RO)-DLPNO pert. Triples
   Tobias Risthaus        : Range-separated hybrids, TD-DFT gradient, RPA, STAB
   Michael Roemelt        : Original ROCIS implementation
   Masaaki Saitow         : Open-shell DLPNO-CCSD energy and density
   Barbara Sandhoefer     : DKH picture change effects
   Avijit Sen             : IP-ROCIS
   Kantharuban Sivalingam : CASSCF convergence, NEVPT2, FIC-MRCI
   Bernardo de Souza      : ESD, SOC TD-DFT
   Georgi Stoychev        : AutoAux, RI-MP2 NMR, DLPNO-MP2 response
   Willem Van den Heuvel  : Paramagnetic NMR
   Boris Wezisla          : Elementary symmetry handling
   Frank Wennmohs         : Technical directorship


 We gratefully acknowledge several colleagues who have allowed us to
 interface, adapt or use parts of their codes:
   Stefan Grimme, W. Hujo, H. Kruse, P. Pracht,  : VdW corrections, initial TS optimization,
                  C. Bannwarth, S. Ehlert          DFT functionals, gCP, sTDA/sTD-DF
   Ed Valeev, F. Pavosevic, A. Kumar             : LibInt (2-el integral package), F12 methods
   Garnet Chan, S. Sharma, J. Yang, R. Olivares  : DMRG
   Ulf Ekstrom                                   : XCFun DFT Library
   Mihaly Kallay                                 : mrcc  (arbitrary order and MRCC methods)
   Jiri Pittner, Ondrej Demel                    : Mk-CCSD
   Frank Weinhold                                : gennbo (NPA and NBO analysis)
   Christopher J. Cramer and Donald G. Truhlar   : smd solvation model
   Lars Goerigk                                  : TD-DFT with DH, B97 family of functionals
   V. Asgeirsson, H. Jonsson                     : NEB implementation
   FAccTs GmbH                                   : IRC, NEB, NEB-TS, DLPNO-Multilevel, CI-OPT
                                                   MM, QMMM, 2- and 3-layer-ONIOM, Crystal-QMMM,
                                                   LR-CPCM, SF, NACMEs, symmetry and pop. for TD-DFT,
                                                   nearIR, NL-DFT gradient (VV10), updates on ESD,
                                                   ML-optimized integration grids
   S Lehtola, MJT Oliveira, MAL Marques          : LibXC Library
   Liviu Ungur et al                             : ANISO software


 Your calculation uses the libint2 library for the computation of 2-el integrals
 For citations please refer to: http://libint.valeyev.net

 Your ORCA version has been built with support for libXC version: 5.1.0
 For citations please refer to: https://tddft.org/programs/libxc/

 This ORCA versions uses:
   CBLAS   interface :  Fast vector & matrix operations
   LAPACKE interface :  Fast linear algebra routines
   SCALAPACK package :  Parallel linear algebra routines
   Shared memory     :  Shared parallel matrices
   BLAS/LAPACK       :  OpenBLAS 0.3.15  USE64BITINT DYNAMIC_ARCH NO_AFFINITY SkylakeX SINGLE_THREADED
        Core in use  :  SkylakeX
   Copyright (c) 2011-2014, The OpenBLAS Project


Your calculation utilizes the atom-pairwise dispersion correction
with the Becke-Johnson damping scheme (D3BJ)
Cite in your paper:
S.Grimme, S.Ehrlich, L.Goerigk, J Comput Chem, (2011), 32, 1456–1465 
S.Grimme, J.Antony, S.Ehrlich and H.Krieg, J.Chem.Phys., 132, (2010), 154104 
   

================================================================================

----- Orbital basis set information -----
Your calculation utilizes the basis: def2-TZVP
   F. Weigend and R. Ahlrichs, Phys. Chem. Chem. Phys. 7, 3297 (2005).

----- AuxJ basis set information -----
Your calculation utilizes the auxiliary basis: def2/J
   F. Weigend, Phys. Chem. Chem. Phys. 8, 1057 (2006).

================================================================================
                                        WARNINGS
                       Please study these warnings very carefully!
================================================================================

INFO   : Checking CIS options ...

WARNING: CIS/ROCIS methods need fully converged wavefunctions
  ===> : Setting SCFConvForced true
         You can overwrite this default with %scf ConvForced false 


INFO   : the flag for use of the SHARK integral package has been found!

================================================================================
                                       INPUT FILE
================================================================================
NAME = ox_es1_F_orca0001.inp
|  1> ! engrad PBE0 D3BJ def2-TZVP  
|  2> %pal nprocs 8 end
|  3> %maxcore 3000
|  4> 
|  5> %tddft
|  6>   nroots 1
|  7>   tda true
|  8>   Iroot 1
|  9>   end 
| 10> *xyz 0 1 
| 11> O   -1.1671537213545298 0.8970766243295356 0.0013910776500609824
| 12> C   -0.8382524705677653 -0.44028330122513104 -0.034072782303818126
| 13> C   0.6077699869346175 -0.4259618024081854 -0.033866732287274236
| 14> H   -1.3208336511815704 -0.6540400119380158 0.8928641498710925
| 15> H   -1.2406467969248196 -0.7113553128165524 -0.8762491064378989
| 16> H   1.2366098928966276 -0.6497725568680089 -0.9417232813788591
| 17> H   1.3193290224561567 -0.7363391479419298 0.9132004862469045
| 18> *
| 19> 
| 20>                          ****END OF INPUT****
================================================================================

                     *******************************
                     * Energy+Gradient Calculation *
                     *******************************

---------------------------------
CARTESIAN COORDINATES (ANGSTROEM)
---------------------------------
  O     -1.167154    0.897077    0.001391
  C     -0.838252   -0.440283   -0.034073
  C      0.607770   -0.425962   -0.033867
  H     -1.320834   -0.654040    0.892864
  H     -1.240647   -0.711355   -0.876249
  H      1.236610   -0.649773   -0.941723
  H      1.319329   -0.736339    0.913200

----------------------------
CARTESIAN COORDINATES (A.U.)
----------------------------
  NO LB      ZA    FRAG     MASS         X           Y           Z
   0 O     8.0000    0    15.999   -2.205601    1.695229    0.002629
   1 C     6.0000    0    12.011   -1.584068   -0.832015   -0.064388
   2 C     6.0000    0    12.011    1.148519   -0.804951   -0.063999
   3 H     1.0000    0     1.008   -2.496014   -1.235957    1.687269
   4 H     1.0000    0     1.008   -2.344483   -1.344267   -1.655871
   5 H     1.0000    0     1.008    2.336854   -1.227892   -1.779599
   6 H     1.0000    0     1.008    2.493171   -1.391479    1.725699

--------------------------------
INTERNAL COORDINATES (ANGSTROEM)
--------------------------------
 O      0   0   0     0.000000000000     0.00000000     0.00000000
 C      1   0   0     1.377666610110     0.00000000     0.00000000
 C      2   1   0     1.446093390963   103.24460330     0.00000000
 H      2   1   3     1.066671741206    93.67827495   118.86605912
 H      2   1   3     0.971937338662   101.19820212   241.10682122
 H      3   2   1     1.126824917576   123.77647079   254.26597189
 H      3   2   1     1.224576120164   125.35474373   107.01308223

---------------------------
INTERNAL COORDINATES (A.U.)
---------------------------
 O      0   0   0     0.000000000000     0.00000000     0.00000000
 C      1   0   0     2.603412596955     0.00000000     0.00000000
 C      2   1   0     2.732720472993   103.24460330     0.00000000
 H      2   1   3     2.015717465672    93.67827495   118.86605912
 H      2   1   3     1.836695389403   101.19820212   241.10682122
 H      3   2   1     2.129390495097   123.77647079   254.26597189
 H      3   2   1     2.314113497249   125.35474373   107.01308223

---------------------
BASIS SET INFORMATION
---------------------
There are 3 groups of distinct atoms

 Group   1 Type O   : 11s6p2d1f contracted to 5s3p2d1f pattern {62111/411/11/1}
 Group   2 Type C   : 11s6p2d1f contracted to 5s3p2d1f pattern {62111/411/11/1}
 Group   3 Type H   : 5s1p contracted to 3s1p pattern {311/1}

Atom   0O    basis set group =>   1
Atom   1C    basis set group =>   2
Atom   2C    basis set group =>   2
Atom   3H    basis set group =>   3
Atom   4H    basis set group =>   3
Atom   5H    basis set group =>   3
Atom   6H    basis set group =>   3
---------------------------------
AUXILIARY/J BASIS SET INFORMATION
---------------------------------
There are 3 groups of distinct atoms

 Group   1 Type O   : 12s5p4d2f1g contracted to 6s4p3d1f1g pattern {711111/2111/211/2/1}
 Group   2 Type C   : 12s5p4d2f1g contracted to 6s4p3d1f1g pattern {711111/2111/211/2/1}
 Group   3 Type H   : 5s2p1d contracted to 3s1p1d pattern {311/2/1}

Atom   0O    basis set group =>   1
Atom   1C    basis set group =>   2
Atom   2C    basis set group =>   2
Atom   3H    basis set group =>   3
Atom   4H    basis set group =>   3
Atom   5H    basis set group =>   3
Atom   6H    basis set group =>   3

Checking for AutoStart:
The File: ox_es1_F_orca0001.gbw exists
Trying to determine its content:
     ... Fine, the file contains calculation information
     ... Fine, the calculation information was read
     ... Fine, the file contains a basis set
     ... Fine, the basis set was read
     ... Fine, the file contains a geometry
     ... Fine, the geometry was read
     ... Fine, the file contains a set of orbitals
     ... Fine, the orbitals can be read
     => possible old guess file was deleted
     => GBW file was renamed to GES file
     => GES file is set as startup file
     => Guess is set to MORead
     ... now leaving AutoStart



           ************************************************************
           *        Program running with 8 parallel MPI-processes     *
           *              working on a common directory               *
           ************************************************************
------------------------------------------------------------------------------
                           ORCA GTO INTEGRAL CALCULATION
                           -- RI-GTO INTEGRALS CHOSEN --
------------------------------------------------------------------------------
------------------------------------------------------------------------------
                   ___                                                        
                  /   \      - P O W E R E D   B Y -                         
                 /     \                                                     
                 |  |  |   _    _      __       _____    __    __             
                 |  |  |  | |  | |    /  \     |  _  \  |  |  /  |          
                  \  \/   | |  | |   /    \    | | | |  |  | /  /          
                 / \  \   | |__| |  /  /\  \   | |_| |  |  |/  /          
                |  |  |   |  __  | /  /__\  \  |    /   |      \           
                |  |  |   | |  | | |   __   |  |    \   |  |\   \          
                \     /   | |  | | |  |  |  |  | |\  \  |  | \   \       
                 \___/    |_|  |_| |__|  |__|  |_| \__\ |__|  \__/        
                                                                              
                      - O R C A' S   B I G   F R I E N D -                    
                                      &                                       
                       - I N T E G R A L  F E E D E R -                       
                                                                              
 v1 FN, 2020, v2 2021                                                         
------------------------------------------------------------------------------


Reading SHARK input file ox_es1_F_orca0001.SHARKINP.tmp ... ok
----------------------
SHARK INTEGRAL PACKAGE
----------------------

Number of atoms                             ...      7
Number of basis functions                   ...    117
Number of shells                            ...     49
Maximum angular momentum                    ...      3
Integral batch strategy                     ... SHARK/LIBINT Hybrid
RI-J (if used) integral strategy            ... SPLIT-RIJ (Revised 2003 algorithm where possible)
Printlevel                                  ...      1
Contraction scheme used                     ... SEGMENTED contraction
Coulomb Range Separation                    ... NOT USED
Exchange Range Separation                   ... NOT USED
Finite Nucleus Model                        ... NOT USED
Auxiliary Coulomb fitting basis             ... AVAILABLE
   # of basis functions in Aux-J            ...    191
   # of shells in Aux-J                     ...     65
   Maximum angular momentum in Aux-J        ...      4
Auxiliary J/K fitting basis                 ... NOT available
Auxiliary Correlation fitting basis         ... NOT available
Auxiliary 'external' fitting basis          ... NOT available
Integral threshold                          ...     2.500000e-11
Primitive cut-off                           ...     2.500000e-12
Primitive pair pre-selection threshold      ...     2.500000e-12

Calculating pre-screening integrals         ... done (  0.0 sec) Dimension = 49
Organizing shell pair data                  ... done (  0.0 sec)
Shell pair information
Total number of shell pairs                 ...      1225
Shell pairs after pre-screening             ...      1214
Total number of primitive shell pairs       ...      3648
Primitive shell pairs kept                  ...      3089
          la=0 lb=0:    368 shell pairs
          la=1 lb=0:    351 shell pairs
          la=1 lb=1:     91 shell pairs
          la=2 lb=0:    161 shell pairs
          la=2 lb=1:     78 shell pairs
          la=2 lb=2:     21 shell pairs
          la=3 lb=0:     81 shell pairs
          la=3 lb=1:     39 shell pairs
          la=3 lb=2:     18 shell pairs
          la=3 lb=3:      6 shell pairs

Calculating one electron integrals          ... done (  0.0 sec)
Calculating RI/J V-Matrix + Cholesky decomp.... done (  0.0 sec)
Calculating Nuclear repulsion               ... done (  0.0 sec) ENN=     69.261454115569 Eh

SHARK setup successfully completed in   0.1 seconds

Maximum memory used throughout the entire GTOINT-calculation: 14.9 MB


           ************************************************************
           *        Program running with 8 parallel MPI-processes     *
           *              working on a common directory               *
           ************************************************************
-------------------------------------------------------------------------------
                                 ORCA SCF
-------------------------------------------------------------------------------

------------
SCF SETTINGS
------------
Hamiltonian:
 Density Functional     Method          .... DFT(GTOs)
 Exchange Functional    Exchange        .... PBE
   PBE kappa parameter   XKappa         ....  0.804000
   PBE mue parameter    XMuePBE         ....  0.219520
 Correlation Functional Correlation     .... PBE
   PBE beta parameter  CBetaPBE         ....  0.066725
 LDA part of GGA corr.  LDAOpt          .... PW91-LDA
 Gradients option       PostSCFGGA      .... off
 Hybrid DFT is turned on
   Fraction HF Exchange ScalHFX         ....  0.250000
   Scaling of DF-GGA-X  ScalDFX         ....  0.750000
   Scaling of DF-GGA-C  ScalDFC         ....  1.000000
   Scaling of DF-LDA-C  ScalLDAC        ....  1.000000
   Perturbative correction              ....  0.000000
   Density functional embedding theory  .... OFF
   NL short-range parameter             ....  6.900000
 RI-approximation to the Coulomb term is turned on
   Number of AuxJ basis functions       .... 191
   RIJ-COSX (HFX calculated with COS-X)).... on


General Settings:
 Integral files         IntName         .... ox_es1_F_orca0001
 Hartree-Fock type      HFTyp           .... RHF
 Total Charge           Charge          ....    0
 Multiplicity           Mult            ....    1
 Number of Electrons    NEL             ....   24
 Basis Dimension        Dim             ....  117
 Nuclear Repulsion      ENuc            ....     69.2614541156 Eh

Convergence Acceleration:
 DIIS                   CNVDIIS         .... on
   Start iteration      DIISMaxIt       ....    12
   Startup error        DIISStart       ....  0.200000
   # of expansion vecs  DIISMaxEq       ....     5
   Bias factor          DIISBfac        ....   1.050
   Max. coefficient     DIISMaxC        ....  10.000
 Trust-Rad. Augm. Hess. CNVTRAH         .... auto
   Auto Start mean grad. ratio tolernc. ....  1.125000
   Auto Start start iteration           ....     1
   Auto Start num. interpolation iter.  ....    10
   Max. Number of Micro iterations      ....    16
   Max. Number of Macro iterations      .... Maxiter - #DIIS iter
   Number of Davidson start vectors     ....     2
   Converg. threshold I  (grad. norm)   ....   1.000e-05
   Converg. threshold II (energy diff.) ....   1.000e-08
   Grad. Scal. Fac. for Micro threshold ....   0.100
   Minimum threshold for Micro iter.    ....   0.010
   NR start threshold (gradient norm)   ....   0.001
   Initial trust radius                 ....   0.400
   Minimum AH scaling param. (alpha)    ....   1.000
   Maximum AH scaling param. (alpha)    .... 1000.000
   Orbital update algorithm             .... Taylor
   White noise on init. David. guess    .... on
   Maximum white noise                  ....   0.010
   Quad. conv. algorithm                .... NR
 SOSCF                  CNVSOSCF        .... on
   Start iteration      SOSCFMaxIt      ....   150
   Startup grad/error   SOSCFStart      ....  0.003300
 Level Shifting         CNVShift        .... on
   Level shift para.    LevelShift      ....    0.2500
   Turn off err/grad.   ShiftErr        ....    0.0010
 Zerner damping         CNVZerner       .... off
 Static damping         CNVDamp         .... on
   Fraction old density DampFac         ....    0.7000
   Max. Damping (<1)    DampMax         ....    0.9800
   Min. Damping (>=0)   DampMin         ....    0.0000
   Turn off err/grad.   DampErr         ....    0.1000
 Fernandez-Rico         CNVRico         .... off

SCF Procedure:
 Maximum # iterations   MaxIter         ....   125
 SCF integral mode      SCFMode         .... Direct
   Integral package                     .... SHARK and LIBINT hybrid scheme
 Reset frequency        DirectResetFreq ....    20
 Integral Threshold     Thresh          ....  2.500e-11 Eh
 Primitive CutOff       TCut            ....  2.500e-12 Eh

Convergence Tolerance:
 Convergence Check Mode ConvCheckMode   .... Total+1el-Energy
 Convergence forced     ConvForced      .... 1
 Energy Change          TolE            ....  1.000e-08 Eh
 1-El. energy change                    ....  1.000e-05 Eh
 Orbital Gradient       TolG            ....  1.000e-05
 Orbital Rotation angle TolX            ....  1.000e-05
 DIIS Error             TolErr          ....  5.000e-07


Diagonalization of the overlap matrix:
Smallest eigenvalue                        ... 4.188e-04
Time for diagonalization                   ...    0.001 sec
Threshold for overlap eigenvalues          ... 1.000e-08
Number of eigenvalues below threshold      ... 0
Time for construction of square roots      ...    0.001 sec
Total time needed                          ...    0.003 sec

---------------------
INITIAL GUESS: MOREAD
---------------------
Guess MOs are being read from file: ox_es1_F_orca0001.ges
Input Geometry matches current geometry (good)
Input basis set matches current basis set (good)
MOs were renormalized
MOs were reorthogonalized (Cholesky)
                      ------------------
                      INITIAL GUESS DONE (   0.0 sec)
                      ------------------
-------------------
DFT GRID GENERATION
-------------------

General Integration Accuracy     IntAcc      ... 4.388
Radial Grid Type                 RadialGrid  ... OptM3 with GC (2021)
Angular Grid (max. ang.)         AngularGrid ... 4 (Lebedev-302)
Angular grid pruning method      GridPruning ... 4 (adaptive)
Weight generation scheme         WeightScheme... Becke
Basis function cutoff            BFCut       ... 1.0000e-11
Integration weight cutoff        WCut        ... 1.0000e-14
Angular grids for H and He will be reduced by one unit
Partially contracted basis set               ... off
Rotationally invariant grid construction     ... off

Total number of grid points                  ...    31315
Total number of batches                      ...      493
Average number of points per batch           ...       63
Average number of grid points per atom       ...     4474
Time for grid setup =    0.118 sec

--------------------
COSX GRID GENERATION
--------------------

GRIDX 1
-------
General Integration Accuracy     IntAcc      ... 3.816
Radial Grid Type                 RadialGrid  ... OptM3 with GC (2021)
Angular Grid (max. ang.)         AngularGrid ... 1 (Lebedev-50)
Angular grid pruning method      GridPruning ... 4 (adaptive)
Weight generation scheme         WeightScheme... Becke
Basis function cutoff            BFCut       ... 1.0000e-11
Integration weight cutoff        WCut        ... 1.0000e-14
Angular grids for H and He will be reduced by one unit
Partially contracted basis set               ... on
Rotationally invariant grid construction     ... off

Total number of grid points                  ...     4035
Total number of batches                      ...       66
Average number of points per batch           ...       61
Average number of grid points per atom       ...      576
UseSFitting                                  ... on

GRIDX 2
-------
General Integration Accuracy     IntAcc      ... 4.020
Radial Grid Type                 RadialGrid  ... OptM3 with GC (2021)
Angular Grid (max. ang.)         AngularGrid ... 2 (Lebedev-110)
Angular grid pruning method      GridPruning ... 4 (adaptive)
Weight generation scheme         WeightScheme... Becke
Basis function cutoff            BFCut       ... 1.0000e-11
Integration weight cutoff        WCut        ... 1.0000e-14
Angular grids for H and He will be reduced by one unit
Partially contracted basis set               ... on
Rotationally invariant grid construction     ... off

Total number of grid points                  ...     8729
Total number of batches                      ...      140
Average number of points per batch           ...       62
Average number of grid points per atom       ...     1247
UseSFitting                                  ... on

GRIDX 3
-------
General Integration Accuracy     IntAcc      ... 4.338
Radial Grid Type                 RadialGrid  ... OptM3 with GC (2021)
Angular Grid (max. ang.)         AngularGrid ... 3 (Lebedev-194)
Angular grid pruning method      GridPruning ... 4 (adaptive)
Weight generation scheme         WeightScheme... Becke
Basis function cutoff            BFCut       ... 1.0000e-11
Integration weight cutoff        WCut        ... 1.0000e-14
Angular grids for H and He will be reduced by one unit
Partially contracted basis set               ... on
Rotationally invariant grid construction     ... off

Total number of grid points                  ...    19274
Total number of batches                      ...      305
Average number of points per batch           ...       63
Average number of grid points per atom       ...     2753
UseSFitting                                  ... on

Time for X-Grid setup             =    0.073 sec

--------------
SCF ITERATIONS
--------------
ITER       Energy         Delta-E        Max-DP      RMS-DP      [F,P]     Damp
               ***  Starting incremental Fock matrix formation  ***
                      *** Initiating the SOSCF procedure ***
                      *** Re-Reading the Fockian *** 
                      *** Removing any level shift *** 
ITER      Energy       Delta-E        Grad      Rot      Max-DP    RMS-DP
  0   -153.50847770 -153.5084776964  0.000001  0.000001  0.000001  0.000000
               *** Restarting incremental Fock matrix formation ***
                  ***Gradient check signals convergence***
              ***Rediagonalizing the Fockian in SOSCF/NRSCF***

               *****************************************************
               *                     SUCCESS                       *
               *           SCF CONVERGED AFTER   1 CYCLES          *
               *****************************************************

Old exchange energy                            =     -4.963397812 Eh
New exchange energy                            =     -4.963416835 Eh
Exchange energy change after final integration =     -0.000019023 Eh
Total energy after final integration           =   -153.508496720 Eh
Final COS-X integration done in                =     0.249 sec

----------------
TOTAL SCF ENERGY
----------------

Total Energy       :         -153.50849672 Eh           -4177.17856 eV

Components:
Nuclear Repulsion  :           69.26145412 Eh            1884.69998 eV
Electronic Energy  :         -222.76995084 Eh           -6061.87854 eV
One Electron Energy:         -345.26121527 Eh           -9395.03530 eV
Two Electron Energy:          122.49126443 Eh            3333.15676 eV
Max COSX asymmetry :            0.00000242 Eh               0.00007 eV

Virial components:
Potential Energy   :         -306.45001948 Eh           -8338.92897 eV
Kinetic Energy     :          152.94152277 Eh            4161.75041 eV
Virial Ratio       :            2.00370713


DFT components:
N(Alpha)           :       11.999999093393 electrons
N(Beta)            :       11.999999093393 electrons
N(Total)           :       23.999998186786 electrons
E(X)               :      -14.903533994428 Eh       
E(C)               :       -0.773129312762 Eh       
E(XC)              :      -15.676663307190 Eh       
DFET-embed. en.    :        0.000000000000 Eh       

---------------
SCF CONVERGENCE
---------------

  Last Energy change         ...   -7.4891e-11  Tolerance :   1.0000e-08
  Last MAX-Density change    ...    1.5543e-15  Tolerance :   1.0000e-07
  Last RMS-Density change    ...    2.3657e-17  Tolerance :   5.0000e-09
  Last Orbital Gradient      ...    2.8688e-07  Tolerance :   1.0000e-05
  Last Orbital Rotation      ...    1.3186e-06  Tolerance :   1.0000e-05

             **** THE GBW FILE WAS UPDATED (ox_es1_F_orca0001.gbw) ****
             **** DENSITY ox_es1_F_orca0001.scfp WAS UPDATED ****
             **** ENERGY FILE WAS UPDATED (ox_es1_F_orca0001.en.tmp) ****
             **** THE GBW FILE WAS UPDATED (ox_es1_F_orca0001.gbw) ****
             **** DENSITY ox_es1_F_orca0001.scfp WAS UPDATED ****
----------------
ORBITAL ENERGIES
----------------

  NO   OCC          E(Eh)            E(eV) 
   0   2.0000     -19.189742      -522.1794 
   1   2.0000     -10.336987      -281.2837 
   2   2.0000     -10.252105      -278.9740 
   3   2.0000      -1.011190       -27.5159 
   4   2.0000      -0.769176       -20.9304 
   5   2.0000      -0.627864       -17.0851 
   6   2.0000      -0.525933       -14.3114 
   7   2.0000      -0.490797       -13.3553 
   8   2.0000      -0.418315       -11.3829 
   9   2.0000      -0.401659       -10.9297 
  10   2.0000      -0.267594        -7.2816 
  11   2.0000      -0.250149        -6.8069 
  12   0.0000      -0.152148        -4.1401 
  13   0.0000       0.037753         1.0273 
  14   0.0000       0.071886         1.9561 
  15   0.0000       0.089408         2.4329 
  16   0.0000       0.139050         3.7838 
  17   0.0000       0.150581         4.0975 
  18   0.0000       0.193571         5.2673 
  19   0.0000       0.205913         5.6032 
  20   0.0000       0.228156         6.2084 
  21   0.0000       0.242881         6.6091 
  22   0.0000       0.255437         6.9508 
  23   0.0000       0.348798         9.4913 
  24   0.0000       0.362823         9.8729 
  25   0.0000       0.377791        10.2802 
  26   0.0000       0.401192        10.9170 
  27   0.0000       0.432201        11.7608 
  28   0.0000       0.452324        12.3084 
  29   0.0000       0.480319        13.0701 
  30   0.0000       0.500040        13.6068 
  31   0.0000       0.565907        15.3991 
  32   0.0000       0.572629        15.5820 
  33   0.0000       0.608901        16.5690 
  34   0.0000       0.665943        18.1212 
  35   0.0000       0.719325        19.5738 
  36   0.0000       0.793801        21.6004 
  37   0.0000       0.862974        23.4827 
  38   0.0000       0.874877        23.8066 
  39   0.0000       0.916099        24.9283 
  40   0.0000       0.949011        25.8239 
  41   0.0000       1.038443        28.2575 
  42   0.0000       1.092214        29.7207 
  43   0.0000       1.108909        30.1749 
  44   0.0000       1.201169        32.6855 
  45   0.0000       1.323321        36.0094 
  46   0.0000       1.403382        38.1880 
  47   0.0000       1.441064        39.2134 
  48   0.0000       1.528406        41.5900 
  49   0.0000       1.538769        41.8720 
  50   0.0000       1.547808        42.1180 
  51   0.0000       1.581113        43.0243 
  52   0.0000       1.644167        44.7401 
  53   0.0000       1.673190        45.5298 
  54   0.0000       1.739718        47.3401 
  55   0.0000       1.769096        48.1395 
  56   0.0000       1.794042        48.8184 
  57   0.0000       1.830914        49.8217 
  58   0.0000       1.877576        51.0914 
  59   0.0000       1.905102        51.8405 
  60   0.0000       1.996467        54.3266 
  61   0.0000       2.064941        56.1899 
  62   0.0000       2.186666        59.5022 
  63   0.0000       2.213852        60.2420 
  64   0.0000       2.294891        62.4472 
  65   0.0000       2.379061        64.7375 
  66   0.0000       2.397193        65.2309 
  67   0.0000       2.438166        66.3459 
  68   0.0000       2.501518        68.0698 
  69   0.0000       2.526502        68.7496 
  70   0.0000       2.589007        70.4505 
  71   0.0000       2.630452        71.5783 
  72   0.0000       2.657089        72.3031 
  73   0.0000       2.680255        72.9334 
  74   0.0000       2.729644        74.2774 
  75   0.0000       2.831688        77.0541 
  76   0.0000       2.859812        77.8194 
  77   0.0000       2.972176        80.8770 
  78   0.0000       3.000336        81.6433 
  79   0.0000       3.003305        81.7241 
  80   0.0000       3.052557        83.0643 
  81   0.0000       3.091072        84.1124 
  82   0.0000       3.115702        84.7825 
  83   0.0000       3.128811        85.1393 
  84   0.0000       3.175612        86.4128 
  85   0.0000       3.236825        88.0785 
  86   0.0000       3.343118        90.9709 
  87   0.0000       3.382898        92.0533 
  88   0.0000       3.441391        93.6450 
  89   0.0000       3.555527        96.7508 
  90   0.0000       3.576184        97.3129 
  91   0.0000       3.675601       100.0182 
  92   0.0000       3.742774       101.8461 
  93   0.0000       3.840097       104.4943 
  94   0.0000       4.015028       109.2545 
  95   0.0000       4.122296       112.1734 
  96   0.0000       4.143962       112.7629 
  97   0.0000       4.243229       115.4641 
  98   0.0000       4.390135       119.4616 
  99   0.0000       4.486361       122.0801 
 100   0.0000       4.615169       125.5851 
 101   0.0000       4.778222       130.0220 
 102   0.0000       5.207788       141.7111 
 103   0.0000       5.251834       142.9097 
 104   0.0000       5.441862       148.0806 
 105   0.0000       5.452164       148.3609 
 106   0.0000       5.868482       159.6895 
 107   0.0000       5.889339       160.2571 
 108   0.0000       6.010611       163.5570 
 109   0.0000       6.390233       173.8871 
 110   0.0000       6.401151       174.1842 
 111   0.0000       6.833818       185.9576 
 112   0.0000       6.854324       186.5157 
 113   0.0000       6.960360       189.4010 
 114   0.0000      21.899441       595.9141 
 115   0.0000      22.785395       620.0221 
 116   0.0000      43.829023      1192.6483 

                    ********************************
                    * MULLIKEN POPULATION ANALYSIS *
                    ********************************

-----------------------
MULLIKEN ATOMIC CHARGES
-----------------------
   0 O :   -0.397066
   1 C :   -0.019709
   2 C :   -0.136642
   3 H :    0.108790
   4 H :    0.101689
   5 H :    0.171324
   6 H :    0.171614
Sum of atomic charges:    0.0000000

--------------------------------
MULLIKEN REDUCED ORBITAL CHARGES
--------------------------------
  0 O s       :     3.901646  s :     3.901646
      pz      :     1.914461  p :     4.468520
      px      :     1.190241
      py      :     1.363819
      dz2     :     0.003263  d :     0.025523
      dxz     :     0.000310
      dyz     :     0.006228
      dx2y2   :     0.009248
      dxy     :     0.006475
      f0      :     0.000169  f :     0.001376
      f+1     :     0.000075
      f-1     :     0.000293
      f+2     :     0.000189
      f-2     :     0.000042
      f+3     :     0.000304
      f-3     :     0.000305
  1 C s       :     3.171600  s :     3.171600
      pz      :     1.046038  p :     2.670920
      px      :     0.876783
      py      :     0.748100
      dz2     :     0.013621  d :     0.167071
      dxz     :     0.015824
      dyz     :     0.052254
      dx2y2   :     0.022880
      dxy     :     0.062493
      f0      :     0.002092  f :     0.010118
      f+1     :     0.001079
      f-1     :     0.000783
      f+2     :     0.002730
      f-2     :     0.000534
      f+3     :     0.002527
      f-3     :     0.000373
  2 C s       :     3.314538  s :     3.314538
      pz      :     1.060657  p :     2.765357
      px      :     1.018224
      py      :     0.686476
      dz2     :     0.003182  d :     0.052110
      dxz     :     0.028876
      dyz     :     0.003969
      dx2y2   :     0.003858
      dxy     :     0.012224
      f0      :     0.000399  f :     0.004638
      f+1     :     0.000921
      f-1     :     0.000106
      f+2     :     0.000909
      f-2     :     0.000284
      f+3     :     0.000710
      f-3     :     0.001309
  3 H s       :     0.868032  s :     0.868032
      pz      :     0.011096  p :     0.023178
      px      :     0.006109
      py      :     0.005973
  4 H s       :     0.873636  s :     0.873636
      pz      :     0.011091  p :     0.024675
      px      :     0.006814
      py      :     0.006770
  5 H s       :     0.807154  s :     0.807154
      pz      :     0.010139  p :     0.021522
      px      :     0.007526
      py      :     0.003857
  6 H s       :     0.810723  s :     0.810723
      pz      :     0.008135  p :     0.017663
      px      :     0.006329
      py      :     0.003199


                     *******************************
                     * LOEWDIN POPULATION ANALYSIS *
                     *******************************

----------------------
LOEWDIN ATOMIC CHARGES
----------------------
   0 O :   -0.028839
   1 C :   -0.487905
   2 C :   -0.003580
   3 H :    0.125970
   4 H :    0.093106
   5 H :    0.139669
   6 H :    0.161579

-------------------------------
LOEWDIN REDUCED ORBITAL CHARGES
-------------------------------
  0 O s       :     3.533930  s :     3.533930
      pz      :     1.826753  p :     4.429665
      px      :     1.137983
      py      :     1.464929
      dz2     :     0.006731  d :     0.060887
      dxz     :     0.000575
      dyz     :     0.018316
      dx2y2   :     0.019227
      dxy     :     0.016037
      f0      :     0.000528  f :     0.004357
      f+1     :     0.000129
      f-1     :     0.000586
      f+2     :     0.000870
      f-2     :     0.000143
      f+3     :     0.001060
      f-3     :     0.001042
  1 C s       :     2.787898  s :     2.787898
      pz      :     1.054676  p :     2.970390
      px      :     1.035311
      py      :     0.880403
      dz2     :     0.082990  d :     0.650851
      dxz     :     0.089488
      dyz     :     0.146422
      dx2y2   :     0.132966
      dxy     :     0.198986
      f0      :     0.013712  f :     0.078766
      f+1     :     0.007634
      f-1     :     0.007939
      f+2     :     0.015950
      f-2     :     0.005456
      f+3     :     0.021326
      f-3     :     0.006750
  2 C s       :     2.945085  s :     2.945085
      pz      :     1.070341  p :     2.807537
      px      :     1.116857
      py      :     0.620339
      dz2     :     0.022214  d :     0.228032
      dxz     :     0.124515
      dyz     :     0.008822
      dx2y2   :     0.033081
      dxy     :     0.039401
      f0      :     0.002833  f :     0.022926
      f+1     :     0.002744
      f-1     :     0.000769
      f+2     :     0.004646
      f-2     :     0.001704
      f+3     :     0.004087
      f-3     :     0.006144
  3 H s       :     0.809333  s :     0.809333
      pz      :     0.031787  p :     0.064697
      px      :     0.016624
      py      :     0.016285
  4 H s       :     0.826493  s :     0.826493
      pz      :     0.037371  p :     0.080400
      px      :     0.022080
      py      :     0.020949
  5 H s       :     0.798760  s :     0.798760
      pz      :     0.031369  p :     0.061571
      px      :     0.019746
      py      :     0.010455
  6 H s       :     0.790742  s :     0.790742
      pz      :     0.023845  p :     0.047679
      px      :     0.015615
      py      :     0.008219


                      *****************************
                      * MAYER POPULATION ANALYSIS *
                      *****************************

  NA   - Mulliken gross atomic population
  ZA   - Total nuclear charge
  QA   - Mulliken gross atomic charge
  VA   - Mayer's total valence
  BVA  - Mayer's bonded valence
  FA   - Mayer's free valence

  ATOM       NA         ZA         QA         VA         BVA        FA
  0 O      8.3971     8.0000    -0.3971     1.8065     1.8065     0.0000
  1 C      6.0197     6.0000    -0.0197     4.1082     4.1082     0.0000
  2 C      6.1366     6.0000    -0.1366     3.7146     3.7146    -0.0000
  3 H      0.8912     1.0000     0.1088     0.9723     0.9723     0.0000
  4 H      0.8983     1.0000     0.1017     0.9572     0.9572    -0.0000
  5 H      0.8287     1.0000     0.1713     0.9527     0.9527     0.0000
  6 H      0.8284     1.0000     0.1716     0.9548     0.9548     0.0000

  Mayer bond orders larger than 0.100000
B(  0-O ,  1-C ) :   1.0454 B(  0-O ,  2-C ) :   0.7811 B(  1-C ,  2-C ) :   1.0748 
B(  1-C ,  3-H ) :   0.9897 B(  1-C ,  4-H ) :   0.9786 B(  2-C ,  5-H ) :   0.9357 
B(  2-C ,  6-H ) :   0.9334 

-------
TIMINGS
-------

Total SCF time: 0 days 0 hours 0 min 0 sec 

Total time                  ....       0.958 sec
Sum of individual times     ....       0.879 sec  ( 91.7%)

Fock matrix formation       ....       0.675 sec  ( 70.5%)
  Split-RI-J                ....       0.111 sec  ( 16.5% of F)
  Chain of spheres X        ....       0.497 sec  ( 73.5% of F)
  XC integration            ....       0.059 sec  (  8.7% of F)
    Basis function eval.    ....       0.017 sec  ( 29.1% of XC)
    Density eval.           ....       0.013 sec  ( 22.6% of XC)
    XC-Functional eval.     ....       0.003 sec  (  5.9% of XC)
    XC-Potential eval.      ....       0.018 sec  ( 31.5% of XC)
Diagonalization             ....       0.002 sec  (  0.2%)
Density matrix formation    ....       0.000 sec  (  0.0%)
Population analysis         ....       0.002 sec  (  0.3%)
Initial guess               ....       0.004 sec  (  0.4%)
Orbital Transformation      ....       0.000 sec  (  0.0%)
Orbital Orthonormalization  ....       0.001 sec  (  0.1%)
DIIS solution               ....       0.001 sec  (  0.1%)
SOSCF solution              ....       0.002 sec  (  0.2%)
Grid generation             ....       0.192 sec  ( 20.0%)

Maximum memory used throughout the entire SCF-calculation: 61.1 MB


           ************************************************************
           *        Program running with 8 parallel MPI-processes     *
           *              working on a common directory               *
           ************************************************************
------------------------------------------------------------------------------
                        ORCA TD-DFT/TDA CALCULATION
------------------------------------------------------------------------------

Input orbitals are from        ... ox_es1_F_orca0001.gbw
CI-vector output               ... ox_es1_F_orca0001.cis
Tamm-Dancoff approximation     ... operative
CIS-Integral strategy          ... AO-integrals
Integral handling              ... AO integral Direct
Max. core memory used          ... 3000 MB
Reference state                ... RHF
Generation of triplets         ... off
Follow IRoot                   ... off
Number of operators            ... 1
Orbital ranges used for CIS calculation:
 Operator 0:  Orbitals   3... 11  to  12...116
XAS localization array:
 Operator 0:  Orbitals  -1... -1

-------------------
XC-INTEGRATION GRID
-------------------

General Integration Accuracy     IntAcc      ... 3.467
Radial Grid Type                 RadialGrid  ... OptM3 with GC (2021)
Angular Grid (max. ang.)         AngularGrid ... 1 (Lebedev-50)
Angular grid pruning method      GridPruning ... 4 (adaptive)
Weight generation scheme         WeightScheme... Becke
Basis function cutoff            BFCut       ... 1.0000e-11
Integration weight cutoff        WCut        ... 1.0000e-14
Angular grids for H and He will be reduced by one unit
Partially contracted basis set               ... off
Rotationally invariant grid construction     ... off

Total number of grid points                  ...     4545
Total number of batches                      ...       75
Average number of points per batch           ...       60
Average number of grid points per atom       ...      649

---------------------
COSX-INTEGRATION GRID
---------------------

General Integration Accuracy     IntAcc      ... 3.067
Radial Grid Type                 RadialGrid  ... OptM3 with GC (2021)
Angular Grid (max. ang.)         AngularGrid ... 1 (Lebedev-50)
Angular grid pruning method      GridPruning ... 4 (adaptive)
Weight generation scheme         WeightScheme... Becke
Basis function cutoff            BFCut       ... 1.0000e-11
Integration weight cutoff        WCut        ... 1.0000e-14
Angular grids for H and He will be reduced by one unit
Partially contracted basis set               ... on
Rotationally invariant grid construction     ... off

Total number of grid points                  ...     2086
Total number of batches                      ...       38
Average number of points per batch           ...       54
Average number of grid points per atom       ...      298

---------------
TD-DFT XC SETUP
---------------

DFT calculation                         ... on
Name of the grid file                   ... ox_es1_F_orca0001.grid_cis.tmp
Exchange functional (TD-DFT)            ... PBE
   PBE kappa parameter  XKappa (TD-DFT) ...  0.804000
   PBE mue parameter   XMuePBE (TD-DFT) ...  0.219520
Correlation functional (TD-DFT)         ... PBE
   PBE beta parameter CBetaPBE (TD-DFT) ...  0.066725
 LDA part of GGA corr.  LDAOpt (TD-DFT) ... PW91-LDA
Hybrid DFT                              ... on
   Exchange mixing (TD-DFT)             ...  0.250
   GGA exch. scaling (TD-DFT)           ...  0.750
   GGA corr. scaling (TD-DFT)           ...  1.000

Building densities             ... done
Calculating rho(r) on the grid ... done
Building xc-kernel on the grid ... done
                    *** TD-DFT CALCULATION INITIALIZED ***

------------------------
DAVIDSON-DIAGONALIZATION
------------------------

Dimension of the eigenvalue problem            ...    945
Number of roots to be determined               ...      1
Maximum size of the expansion space            ...     10
Maximum number of iterations                   ...    100
Convergence tolerance for the residual         ...    2.500e-07
Convergence tolerance for the energies         ...    2.500e-07
Orthogonality tolerance                        ...    1.000e-14
Level Shift                                    ...    0.000e+00
Constructing the preconditioner                ... o.k.
Building the initial guess                     ... o.k.
Number of trial vectors determined             ...     10


                       ****Iteration    0****

   Memory handling for direct AO based CIS:
   Memory per vector needed      ...     1 MB
   Memory needed                 ...     1 MB
   Memory available              ...  3000 MB
   Number of vectors per batch   ...  3000
   Number of batches             ...     1
   Time for densities:            0.001
   Time for RI-J (Direct):        0.330
   Time for K (COSX):             0.067
   Time for XC-Integration:       0.014
   Time for Sigma-Completion:     0.000
   Size of expansion space: 3
   Lowest Energy          :     0.019184072687
   Maximum Energy change  :     0.019184072687 (vector 0)
   Maximum residual norm  :     0.002426089098

                       ****Iteration    1****
   Time for densities:            0.000
   Time for RI-J (Direct):        0.046
   Time for K (COSX):             0.048
   Time for XC-Integration:       0.006
   Time for Sigma-Completion:     0.000
   Size of expansion space: 4
   Lowest Energy          :     0.017553226643
   Maximum Energy change  :     0.001630846045 (vector 0)
   Maximum residual norm  :     0.000033922548

                       ****Iteration    2****
   Time for densities:            0.000
   Time for RI-J (Direct):        0.011
   Time for K (COSX):             0.048
   Time for XC-Integration:       0.006
   Time for Sigma-Completion:     0.000
   Size of expansion space: 5
   Lowest Energy          :     0.017530175760
   Maximum Energy change  :     0.000023050883 (vector 0)
   Maximum residual norm  :     0.000001485198

                       ****Iteration    3****
   Time for densities:            0.000
   Time for RI-J (Direct):        0.012
   Time for K (COSX):             0.049
   Time for XC-Integration:       0.006
   Time for Sigma-Completion:     0.000
   Size of expansion space: 6
   Lowest Energy          :     0.017528915545
   Maximum Energy change  :     0.000001260215 (vector 0)
   Maximum residual norm  :     0.000000091526

      *** CONVERGENCE OF RESIDUAL NORM REACHED ***

Storing the converged CI vectors               ... ox_es1_F_orca0001.cis1

                 *** DAVIDSON DONE ***

Total time for solving the CIS problem:     0.658sec

------------------------------------
TD-DFT/TDA EXCITED STATES (SINGLETS)
------------------------------------

the weight of the individual excitations are printed if larger than 1.0e-02

STATE  1:  E=   0.017529 au      0.477 eV     3847.2 cm**-1 <S**2> =   0.000000
    10a ->  12a  :     0.044908 (c= -0.21191549)
    11a ->  12a  :     0.951954 (c=  0.97568146)


-----------------------------
TD-DFT/TDA-EXCITATION SPECTRA
-----------------------------

Center of mass = ( -0.9200,  0.0504, -0.0346)
Calculating the Dipole integrals                  ... done
Transforming integrals                            ... done
Calculating the Linear Momentum integrals         ... done
Transforming integrals                            ... done
Calculating angular momentum integrals            ... done
Transforming integrals                            ... done

-----------------------------------------------------------------------------
         ABSORPTION SPECTRUM VIA TRANSITION ELECTRIC DIPOLE MOMENTS
-----------------------------------------------------------------------------
State   Energy    Wavelength  fosc         T2        TX        TY        TZ  
        (cm-1)      (nm)                 (au**2)    (au)      (au)      (au) 
-----------------------------------------------------------------------------
   1    3847.2   2599.3   0.000052875   0.00452   0.04458  -0.01450  -0.04824

-----------------------------------------------------------------------------
         ABSORPTION SPECTRUM VIA TRANSITION VELOCITY DIPOLE MOMENTS
-----------------------------------------------------------------------------
State   Energy    Wavelength   fosc        P2         PX        PY        PZ  
        (cm-1)      (nm)                 (au**2)     (au)      (au)      (au) 
-----------------------------------------------------------------------------
   1    3847.2   2599.3   0.024522719   0.00064   0.01314  -0.00550   0.02102

-------------------------------------------------------------------
                             CD SPECTRUM
-------------------------------------------------------------------
State  Energy     Wavelength     R         MX        MY        MZ   
       (cm-1)       (nm)     (1e40*cgs)   (au)      (au)      (au)  
-------------------------------------------------------------------
   1    3847.2   2599.3     -2.40212  -0.01572   0.28814   0.00448

-------------------------------------------------------------------
         CD SPECTRUM VIA TRANSITION VELOCITY DIPOLE MOMENTS        
-------------------------------------------------------------------
State  Energy     Wavelength     R         MX        MY        MZ   
       (cm-1)       (nm)     (1e40*cgs)   (au)      (au)      (au)  
-------------------------------------------------------------------
   1    3847.2   2599.3    -45.65565  -0.01572   0.28814   0.00448

Total run time:        1.062 sec

           *** ORCA-CIS/TD-DFT FINISHED WITHOUT ERROR ***

Maximum memory used throughout the entire CIS-calculation: 49.4 MB

-----------------------
CIS/TD-DFT TOTAL ENERGY
-----------------------

    E(SCF)  =   -153.508496720 Eh
    DE(CIS) =      0.017528916 Eh (Root  1)
    ----------------------------- ---------
    E(tot)  =   -153.490967804 Eh



-------------------------------------------------------------------------------
                          DFT DISPERSION CORRECTION                            
                                                                               
                              DFTD3 V3.1  Rev 1                                
                          USING Becke-Johnson damping                          
-------------------------------------------------------------------------------
The PBE0 functional is recognized
Active option DFTDOPT                   ...         4   

molecular C6(AA) [au] = 395.196632 


            DFT-D V3
 parameters
 s6 scaling factor         :     1.0000 
 a1 scaling factor         :     0.4145 
 s8 scaling factor         :     1.2177 
 a2 scaling factor         :     4.8593 
 ad hoc parameters k1-k3   :    16.0000     1.3333    -4.0000 

 Edisp/kcal,au: -1.639723158306  -0.002613064904 
 E6   /kcal   :  -1.070049206 
 E8   /kcal   :  -0.569673952 
 % E8         :  34.742081246 

-------------------------   ----------------
Dispersion correction           -0.002613065
-------------------------   ----------------


-------------------------   --------------------
FINAL SINGLE POINT ENERGY      -153.493580868984
-------------------------   --------------------



           ************************************************************
           *        Program running with 8 parallel MPI-processes     *
           *              working on a common directory               *
           ************************************************************
------------------------------------------------------------------------------
                         ORCA SCF GRADIENT CALCULATION
------------------------------------------------------------------------------


------------------------
TD-DFT GRADIENT XC SETUP
------------------------

Building densities                     ... done
Calculating rho(r) on the grid         ... done
Building xc-kernel on the grid         ... done
Building xc 3rd derivative on the grid      ... done
                *** TD-DFT GRADIENT CALCULATION INITIALIZED ***

-------------------
TD-DFT/TDA GRADIENT
-------------------

Reference wavefunction             ... RHF
State of interest                  ... 1
Basis dimension                    ... 117
DFT-XC contribution needed         ... YES
RI-approximation                   ... ON
CIS-vectors being read from        ... ox_es1_F_orca0001.cis

 => Number of Vectors found: 1
 => Orbital Window: 3...11 -> 12...116

Reading the CIS file                     ... done
Norm of the CI vector                    ... 1.000000000
Making the CIS (pseudo)densities         ... done
Making operators G(D) and Q(T)           ... done
Transforming the Fock operators          ... done
Making the frozen-core relaxed density   ... done
Constructing the G(H) operator           ... done
Transforming the G(H) operator           ... done
Calculating the CIS Lagrangian           ... done
Solving the Z-vector equations           ... done
Finalizing the relaxed density           ... done
Storing the relaxed density              ... done
Constructing the G(Z) operator           ... done
Transforming the G(Z) operator           ... done
Making the W-matrix                      ... done
Finalizing the W-matrix                  ... done
Transforming the W-matrix                ... done
Nuclear repulsion gradient               ... done
One-Electron gradient                    ... done
Dispersion correction                    ... done
Prescreening matrices                    ... done
COSX-gradient                            ... done
Coulomb gradient (RI)                    ... done
Exchange-Correlation gradient            ... done

                 ---------------------------
                 EXCITED STATE GRADIENT DONE
                 ---------------------------

------------------
CARTESIAN GRADIENT
------------------

   1   O   :    0.004666530   -0.030974044    0.001585084
   2   C   :   -0.065873558   -0.079664796   -0.070650318
   3   C   :   -0.071871809    0.060084034   -0.032406998
   4   H   :    0.010934224    0.035571178   -0.017714202
   5   H   :    0.056997069    0.056197292    0.091106143
   6   H   :    0.020492552   -0.013956926   -0.011458454
   7   H   :    0.044753735   -0.027268255    0.039559112

Difference to translation invariance:
           :    0.0000987431   -0.0000115174    0.0000203660

Difference to rotation invariance:
           :    0.0000559709    0.0000178236   -0.0006228781

Norm of the cartesian gradient     ...    0.2189749278
RMS gradient                       ...    0.0477842468
MAX gradient                       ...    0.0911061426

------------------------------------------------------------------------------
                  RELAXED CIS/TDA DENSITY POPULATION ANALYSIS
                                   IROOT 1
------------------------------------------------------------------------------
------------------------------------------------------------------------------
                           ORCA POPULATION ANALYSIS
------------------------------------------------------------------------------
Input electron density              ... ox_es1_F_orca0001.cisp
BaseName (.gbw .S,...)              ... ox_es1_F_orca0001

                    ********************************
                    * MULLIKEN POPULATION ANALYSIS *
                    ********************************

-----------------------
MULLIKEN ATOMIC CHARGES
-----------------------
   0 O :   -0.312468
   1 C :   -0.058461
   2 C :   -0.219654
   3 H :    0.159464
   4 H :    0.138260
   5 H :    0.145168
   6 H :    0.147691
Sum of atomic charges:    0.0000000

--------------------------------
MULLIKEN REDUCED ORBITAL CHARGES
--------------------------------
  0 O s       :     3.894725  s :     3.894725
      pz      :     1.106970  p :     4.391264
      px      :     1.929422
      py      :     1.354873
      dz2     :     0.002975  d :     0.025306
      dxz     :     0.000292
      dyz     :     0.007152
      dx2y2   :     0.008937
      dxy     :     0.005950
      f0      :     0.000070  f :     0.001172
      f+1     :    -0.000000
      f-1     :     0.000077
      f+2     :     0.000196
      f-2     :     0.000046
      f+3     :     0.000357
      f-3     :     0.000427
  1 C s       :     3.169219  s :     3.169219
      pz      :     1.016812  p :     2.727378
      px      :     0.943673
      py      :     0.766893
      dz2     :     0.012777  d :     0.151271
      dxz     :     0.019489
      dyz     :     0.027420
      dx2y2   :     0.026981
      dxy     :     0.064604
      f0      :     0.001106  f :     0.010593
      f+1     :     0.001228
      f-1     :     0.000558
      f+2     :     0.001548
      f-2     :     0.000311
      f+3     :     0.003148
      f-3     :     0.002694
  2 C s       :     3.316184  s :     3.316184
      pz      :     1.039338  p :     2.853877
      px      :     0.966339
      py      :     0.848201
      dz2     :     0.002845  d :     0.045072
      dxz     :     0.020969
      dyz     :     0.003147
      dx2y2   :     0.004871
      dxy     :     0.013241
      f0      :     0.000379  f :     0.004520
      f+1     :     0.000824
      f-1     :     0.000156
      f+2     :     0.000905
      f-2     :     0.000202
      f+3     :     0.000797
      f-3     :     0.001257
  3 H s       :     0.816588  s :     0.816588
      pz      :     0.011427  p :     0.023948
      px      :     0.006508
      py      :     0.006014
  4 H s       :     0.836535  s :     0.836535
      pz      :     0.011391  p :     0.025205
      px      :     0.006963
      py      :     0.006851
  5 H s       :     0.833116  s :     0.833116
      pz      :     0.009551  p :     0.021716
      px      :     0.007232
      py      :     0.004933
  6 H s       :     0.834469  s :     0.834469
      pz      :     0.007627  p :     0.017840
      px      :     0.006062
      py      :     0.004152


                     *******************************
                     * LOEWDIN POPULATION ANALYSIS *
                     *******************************

----------------------
LOEWDIN ATOMIC CHARGES
----------------------
   0 O :    0.029769
   1 C :   -0.447975
   2 C :   -0.136810
   3 H :    0.165646
   4 H :    0.118826
   5 H :    0.124091
   6 H :    0.146453

-------------------------------
LOEWDIN REDUCED ORBITAL CHARGES
-------------------------------
  0 O s       :     3.538235  s :     3.538235
      pz      :     1.070697  p :     4.367097
      px      :     1.837907
      py      :     1.458493
      dz2     :     0.006778  d :     0.060772
      dxz     :     0.000557
      dyz     :     0.016458
      dx2y2   :     0.019898
      dxy     :     0.017081
      f0      :     0.000536  f :     0.004128
      f+1     :     0.000084
      f-1     :     0.000388
      f+2     :     0.000639
      f-2     :     0.000132
      f+3     :     0.001118
      f-3     :     0.001231
  1 C s       :     2.790052  s :     2.790052
      pz      :     1.007877  p :     2.967919
      px      :     1.069024
      py      :     0.891018
      dz2     :     0.081588  d :     0.604616
      dxz     :     0.095721
      dyz     :     0.075120
      dx2y2   :     0.167296
      dxy     :     0.184890
      f0      :     0.008221  f :     0.085389
      f+1     :     0.007549
      f-1     :     0.007640
      f+2     :     0.010127
      f-2     :     0.003248
      f+3     :     0.025772
      f-3     :     0.022832
  2 C s       :     2.956331  s :     2.956331
      pz      :     1.061221  p :     2.931601
      px      :     1.089589
      py      :     0.780791
      dz2     :     0.023508  d :     0.225497
      dxz     :     0.111984
      dyz     :     0.007973
      dx2y2   :     0.033810
      dxy     :     0.048222
      f0      :     0.002710  f :     0.023380
      f+1     :     0.003148
      f-1     :     0.001005
      f+2     :     0.004430
      f-2     :     0.001431
      f+3     :     0.004530
      f-3     :     0.006126
  3 H s       :     0.768765  s :     0.768765
      pz      :     0.032146  p :     0.065589
      px      :     0.017430
      py      :     0.016013
  4 H s       :     0.799579  s :     0.799579
      pz      :     0.037816  p :     0.081595
      px      :     0.022491
      py      :     0.021288
  5 H s       :     0.813473  s :     0.813473
      pz      :     0.029490  p :     0.062436
      px      :     0.018851
      py      :     0.014095
  6 H s       :     0.805375  s :     0.805375
      pz      :     0.022311  p :     0.048172
      px      :     0.014821
      py      :     0.011040


                      *****************************
                      * MAYER POPULATION ANALYSIS *
                      *****************************

  NA   - Mulliken gross atomic population
  ZA   - Total nuclear charge
  QA   - Mulliken gross atomic charge
  VA   - Mayer's total valence
  BVA  - Mayer's bonded valence
  FA   - Mayer's free valence

  ATOM       NA         ZA         QA         VA         BVA        FA
  0 O      8.3125     8.0000    -0.3125     1.7174     1.2539     0.4635
  1 C      6.0585     6.0000    -0.0585     4.1584     4.0845     0.0738
  2 C      6.2197     6.0000    -0.2197     3.7802     3.0599     0.7203
  3 H      0.8405     1.0000     0.1595     0.9619     0.9132     0.0486
  4 H      0.8617     1.0000     0.1383     0.9623     0.9167     0.0456
  5 H      0.8548     1.0000     0.1452     0.9651     0.9579     0.0072
  6 H      0.8523     1.0000     0.1477     0.9652     0.9581     0.0071

  Mayer bond orders larger than 0.100000
B(  0-O ,  1-C ) :   1.1332 B(  1-C ,  2-C ) :   1.1003 B(  1-C ,  3-H ) :   0.8990 
B(  1-C ,  4-H ) :   0.9305 B(  2-C ,  5-H ) :   0.9414 B(  2-C ,  6-H ) :   0.9355 



-------
TIMINGS
-------

Total TD-DFT gradient time         ...        5.709 sec

Fock matrix formation       ....       0.810 sec  ( 14.2%)
  Coulomb formation         ....       0.664 sec  ( 82.0% of F)
  RI-J                      ....       0.289 sec  ( 35.7% of F)
  Chain of spheres X        ....       0.375 sec  ( 46.3% of F)
  XC integration            ....       0.146 sec  ( 18.0% of F)
Z-vector equation           ....       2.265 sec  ( 39.7%)
One electron gradient       ....       0.032 sec  (  0.6%)
Prescreening matrices       ....       0.151 sec  (  2.6%)
RI-J Coulomb gradient       ....       0.261 sec  (  4.6%)
COSX gradient               ....       0.332 sec  (  5.8%)
XC gradient                 ....       1.534 sec  ( 26.9%)

Maximum memory used throughout the entire SCFGRAD-calculation: 130.2 MB

                            ***************************************
                            *     ORCA property calculations      *
                            ***************************************

                                    ---------------------
                                    Active property flags
                                    ---------------------
   (+) Dipole Moment


------------------------------------------------------------------------------
                       ORCA ELECTRIC PROPERTIES CALCULATION
------------------------------------------------------------------------------

Dipole Moment Calculation                       ... on
Quadrupole Moment Calculation                   ... off
Polarizability Calculation                      ... off
GBWName                                         ... ox_es1_F_orca0001.gbw
Electron density                                ... ox_es1_F_orca0001.scfp
The origin for moment calculation is the CENTER OF MASS  = (-0.920013,  0.050375 -0.034565)

-------------
DIPOLE MOMENT
-------------
                                X             Y             Z
Electronic contribution:     -0.91529       1.44816      -0.10641
Nuclear contribution   :      1.81174      -2.66856       0.05776
                        -----------------------------------------
Total Dipole Moment    :      0.89645      -1.22041      -0.04865
                        -----------------------------------------
Magnitude (a.u.)       :      1.51505
Magnitude (Debye)      :      3.85096



--------------------
Rotational spectrum 
--------------------
 
Rotational constants in cm-1:     1.359675     0.380161     0.336418 
Rotational constants in MHz : 40762.025339 11396.931859 10085.569246 

 Dipole components along the rotational axes: 
x,y,z [a.u.] :    -1.429550    -0.501354    -0.020521 
x,y,z [Debye]:    -3.633627    -1.274339    -0.052161 

 

                        *** CIS RELAXED DENSITY ***

------------------------------------------------------------------------------
                       ORCA ELECTRIC PROPERTIES CALCULATION
------------------------------------------------------------------------------

Dipole Moment Calculation                       ... on
Quadrupole Moment Calculation                   ... off
Polarizability Calculation                      ... off
GBWName                                         ... ox_es1_F_orca0001.gbw
Electron density                                ... ox_es1_F_orca0001.cisp
The origin for moment calculation is the CENTER OF MASS  = (-0.920013,  0.050375 -0.034565)

-------------
DIPOLE MOMENT
-------------
                                X             Y             Z
Electronic contribution:     -1.45302       1.62979      -0.11671
Nuclear contribution   :      1.81174      -2.66856       0.05776
                        -----------------------------------------
Total Dipole Moment    :      0.35872      -1.03877      -0.05895
                        -----------------------------------------
Magnitude (a.u.)       :      1.10055
Magnitude (Debye)      :      2.79737



--------------------
Rotational spectrum 
--------------------
 
Rotational constants in cm-1:     1.359675     0.380161     0.336418 
Rotational constants in MHz : 40762.025339 11396.931859 10085.569246 

 Dipole components along the rotational axes: 
x,y,z [a.u.] :    -0.883391    -0.655396    -0.035780 
x,y,z [Debye]:    -2.245401    -1.665884    -0.090946 

 

Timings for individual modules:

Sum of individual times         ...        8.577 sec (=   0.143 min)
GTO integral calculation        ...        0.254 sec (=   0.004 min)   3.0 %
SCF iterations                  ...        1.132 sec (=   0.019 min)  13.2 %
CIS module                      ...        1.284 sec (=   0.021 min)  15.0 %
SCF Gradient evaluation         ...        5.907 sec (=   0.098 min)  68.9 %
                             ****ORCA TERMINATED NORMALLY****
TOTAL RUN TIME: 0 days 0 hours 0 minutes 8 seconds 865 msec
