
                                 *****************
                                 * O   R   C   A *
                                 *****************

                                            #,                                       
                                            ###                                      
                                            ####                                     
                                            #####                                    
                                            ######                                   
                                           ########,                                 
                                     ,,################,,,,,                         
                               ,,#################################,,                 
                          ,,##########################################,,             
                       ,#########################################, ''#####,          
                    ,#############################################,,   '####,        
                  ,##################################################,,,,####,       
                ,###########''''           ''''###############################       
              ,#####''   ,,,,##########,,,,          '''####'''          '####       
            ,##' ,,,,###########################,,,                        '##       
           ' ,,###''''                  '''############,,,                           
         ,,##''                                '''############,,,,        ,,,,,,###''
      ,#''                                            '''#######################'''  
     '                                                          ''''####''''         
             ,#######,   #######,   ,#######,      ##                                
            ,#'     '#,  ##    ##  ,#'     '#,    #''#        ######   ,####,        
            ##       ##  ##   ,#'  ##            #'  '#       #        #'  '#        
            ##       ##  #######   ##           ,######,      #####,   #    #        
            '#,     ,#'  ##    ##  '#,     ,#' ,#      #,         ##   #,  ,#        
             '#######'   ##     ##  '#######'  #'      '#     #####' # '####'        



                  #######################################################
                  #                        -***-                        #
                  #          Department of theory and spectroscopy      #
                  #    Directorship and core code : Frank Neese         #
                  #        Max Planck Institute fuer Kohlenforschung    #
                  #                Kaiser Wilhelm Platz 1               #
                  #                 D-45470 Muelheim/Ruhr               #
                  #                      Germany                        #
                  #                                                     #
                  #                  All rights reserved                #
                  #                        -***-                        #
                  #######################################################


                         Program Version 5.0.2 -  RELEASE  -


 With contributions from (in alphabetic order):
   Daniel Aravena         : Magnetic Suceptibility
   Michael Atanasov       : Ab Initio Ligand Field Theory (pilot matlab implementation)
   Alexander A. Auer      : GIAO ZORA, VPT2 properties, NMR spectrum
   Ute Becker             : Parallelization
   Giovanni Bistoni       : ED, misc. LED, open-shell LED, HFLD
   Martin Brehm           : Molecular dynamics
   Dmytro Bykov           : SCF Hessian
   Vijay G. Chilkuri      : MRCI spin determinant printing, contributions to CSF-ICE
   Dipayan Datta          : RHF DLPNO-CCSD density
   Achintya Kumar Dutta   : EOM-CC, STEOM-CC
   Dmitry Ganyushin       : Spin-Orbit,Spin-Spin,Magnetic field MRCI
   Miquel Garcia          : C-PCM and meta-GGA Hessian, CC/C-PCM, Gaussian charge scheme
   Yang Guo               : DLPNO-NEVPT2, F12-NEVPT2, CIM, IAO-localization
   Andreas Hansen         : Spin unrestricted coupled pair/coupled cluster methods
   Benjamin Helmich-Paris : MC-RPA, TRAH-SCF, COSX integrals
   Lee Huntington         : MR-EOM, pCC
   Robert Izsak           : Overlap fitted RIJCOSX, COSX-SCS-MP3, EOM
   Marcus Kettner         : VPT2
   Christian Kollmar      : KDIIS, OOCD, Brueckner-CCSD(T), CCSD density, CASPT2, CASPT2-K
   Simone Kossmann        : Meta GGA functionals, TD-DFT gradient, OOMP2, MP2 Hessian
   Martin Krupicka        : Initial AUTO-CI
   Lucas Lang             : DCDCAS
   Marvin Lechner         : AUTO-CI (C++ implementation), FIC-MRCC
   Dagmar Lenk            : GEPOL surface, SMD
   Dimitrios Liakos       : Extrapolation schemes; Compound Job, initial MDCI parallelization
   Dimitrios Manganas     : Further ROCIS development; embedding schemes
   Dimitrios Pantazis     : SARC Basis sets
   Anastasios Papadopoulos: AUTO-CI, single reference methods and gradients
   Taras Petrenko         : DFT Hessian,TD-DFT gradient, ASA, ECA, R-Raman, ABS, FL, XAS/XES, NRVS
   Peter Pinski           : DLPNO-MP2, DLPNO-MP2 Gradient
   Christoph Reimann      : Effective Core Potentials
   Marius Retegan         : Local ZFS, SOC
   Christoph Riplinger    : Optimizer, TS searches, QM/MM, DLPNO-CCSD(T), (RO)-DLPNO pert. Triples
   Tobias Risthaus        : Range-separated hybrids, TD-DFT gradient, RPA, STAB
   Michael Roemelt        : Original ROCIS implementation
   Masaaki Saitow         : Open-shell DLPNO-CCSD energy and density
   Barbara Sandhoefer     : DKH picture change effects
   Avijit Sen             : IP-ROCIS
   Kantharuban Sivalingam : CASSCF convergence, NEVPT2, FIC-MRCI
   Bernardo de Souza      : ESD, SOC TD-DFT
   Georgi Stoychev        : AutoAux, RI-MP2 NMR, DLPNO-MP2 response
   Willem Van den Heuvel  : Paramagnetic NMR
   Boris Wezisla          : Elementary symmetry handling
   Frank Wennmohs         : Technical directorship


 We gratefully acknowledge several colleagues who have allowed us to
 interface, adapt or use parts of their codes:
   Stefan Grimme, W. Hujo, H. Kruse, P. Pracht,  : VdW corrections, initial TS optimization,
                  C. Bannwarth, S. Ehlert          DFT functionals, gCP, sTDA/sTD-DF
   Ed Valeev, F. Pavosevic, A. Kumar             : LibInt (2-el integral package), F12 methods
   Garnet Chan, S. Sharma, J. Yang, R. Olivares  : DMRG
   Ulf Ekstrom                                   : XCFun DFT Library
   Mihaly Kallay                                 : mrcc  (arbitrary order and MRCC methods)
   Jiri Pittner, Ondrej Demel                    : Mk-CCSD
   Frank Weinhold                                : gennbo (NPA and NBO analysis)
   Christopher J. Cramer and Donald G. Truhlar   : smd solvation model
   Lars Goerigk                                  : TD-DFT with DH, B97 family of functionals
   V. Asgeirsson, H. Jonsson                     : NEB implementation
   FAccTs GmbH                                   : IRC, NEB, NEB-TS, DLPNO-Multilevel, CI-OPT
                                                   MM, QMMM, 2- and 3-layer-ONIOM, Crystal-QMMM,
                                                   LR-CPCM, SF, NACMEs, symmetry and pop. for TD-DFT,
                                                   nearIR, NL-DFT gradient (VV10), updates on ESD,
                                                   ML-optimized integration grids
   S Lehtola, MJT Oliveira, MAL Marques          : LibXC Library
   Liviu Ungur et al                             : ANISO software


 Your calculation uses the libint2 library for the computation of 2-el integrals
 For citations please refer to: http://libint.valeyev.net

 Your ORCA version has been built with support for libXC version: 5.1.0
 For citations please refer to: https://tddft.org/programs/libxc/

 This ORCA versions uses:
   CBLAS   interface :  Fast vector & matrix operations
   LAPACKE interface :  Fast linear algebra routines
   SCALAPACK package :  Parallel linear algebra routines
   Shared memory     :  Shared parallel matrices
   BLAS/LAPACK       :  OpenBLAS 0.3.15  USE64BITINT DYNAMIC_ARCH NO_AFFINITY SkylakeX SINGLE_THREADED
        Core in use  :  SkylakeX
   Copyright (c) 2011-2014, The OpenBLAS Project


Your calculation utilizes the atom-pairwise dispersion correction
with the Becke-Johnson damping scheme (D3BJ)
Cite in your paper:
S.Grimme, S.Ehrlich, L.Goerigk, J Comput Chem, (2011), 32, 1456–1465 
S.Grimme, J.Antony, S.Ehrlich and H.Krieg, J.Chem.Phys., 132, (2010), 154104 
   

================================================================================

----- Orbital basis set information -----
Your calculation utilizes the basis: def2-TZVP
   F. Weigend and R. Ahlrichs, Phys. Chem. Chem. Phys. 7, 3297 (2005).

----- AuxJ basis set information -----
Your calculation utilizes the auxiliary basis: def2/J
   F. Weigend, Phys. Chem. Chem. Phys. 8, 1057 (2006).

================================================================================
                                        WARNINGS
                       Please study these warnings very carefully!
================================================================================

INFO   : Checking CIS options ...

WARNING: CIS/ROCIS methods need fully converged wavefunctions
  ===> : Setting SCFConvForced true
         You can overwrite this default with %scf ConvForced false 


INFO   : the flag for use of the SHARK integral package has been found!

================================================================================
                                       INPUT FILE
================================================================================
NAME = ox_es1_C_orca0009.inp
|  1> ! engrad PBE0 D3BJ def2-TZVP  
|  2> %pal nprocs 8 end
|  3> %maxcore 3000
|  4> 
|  5> %tddft
|  6>   nroots 1
|  7>   tda true
|  8>   Iroot 1
|  9>   end 
| 10> *xyz 0 1 
| 11> O   -0.5064782553707445 1.0371796994573002 0.016974275323612616
| 12> C   -0.7248038544337393 -0.462845793059429 -0.05965839894322662
| 13> C   0.7135641476209128 -0.4853093064576503 -0.04246761668301355
| 14> H   -1.1927092847458867 -0.5943373147021416 0.8968717144571949
| 15> H   -1.2357014613683863 -0.67880920431556 -0.9596503132199043
| 16> H   1.2672002116598582 -0.6823005703448478 -0.8699401026598385
| 17> H   1.300989605684814 -0.6508074562785787 0.8877673706469603
| 18> *
| 19> 
| 20>                          ****END OF INPUT****
================================================================================

                     *******************************
                     * Energy+Gradient Calculation *
                     *******************************

---------------------------------
CARTESIAN COORDINATES (ANGSTROEM)
---------------------------------
  O     -0.506478    1.037180    0.016974
  C     -0.724804   -0.462846   -0.059658
  C      0.713564   -0.485309   -0.042468
  H     -1.192709   -0.594337    0.896872
  H     -1.235701   -0.678809   -0.959650
  H      1.267200   -0.682301   -0.869940
  H      1.300990   -0.650807    0.887767

----------------------------
CARTESIAN COORDINATES (A.U.)
----------------------------
  NO LB      ZA    FRAG     MASS         X           Y           Z
   0 O     8.0000    0    15.999   -0.957105    1.959986    0.032077
   1 C     6.0000    0    12.011   -1.369681   -0.874652   -0.112738
   2 C     6.0000    0    12.011    1.348441   -0.917102   -0.080252
   3 H     1.0000    0     1.008   -2.253894   -1.123135    1.694842
   4 H     1.0000    0     1.008   -2.335137   -1.282763   -1.813476
   5 H     1.0000    0     1.008    2.394661   -1.289361   -1.643949
   6 H     1.0000    0     1.008    2.458514   -1.229848    1.677637

--------------------------------
INTERNAL COORDINATES (ANGSTROEM)
--------------------------------
 O      0   0   0     0.000000000000     0.00000000     0.00000000
 C      1   0   0     1.517766488025     0.00000000     0.00000000
 C      2   1   0     1.438646114152    82.58874926     0.00000000
 H      2   1   3     1.072928408526    97.98073633   114.39075287
 H      2   1   3     1.057185889774   108.32412062   241.47102914
 H      3   2   1     1.014903524726   122.59442876   254.44708754
 H      3   2   1     1.112562554659   122.69758454    96.78077032

---------------------------
INTERNAL COORDINATES (A.U.)
---------------------------
 O      0   0   0     0.000000000000     0.00000000     0.00000000
 C      1   0   0     2.868162997611     0.00000000     0.00000000
 C      2   1   0     2.718647159377    82.58874926     0.00000000
 H      2   1   3     2.027540853417    97.98073633   114.39075287
 H      2   1   3     1.997791804318   108.32412062   241.47102914
 H      3   2   1     1.917889714083   122.59442876   254.44708754
 H      3   2   1     2.102438535161   122.69758454    96.78077032

---------------------
BASIS SET INFORMATION
---------------------
There are 3 groups of distinct atoms

 Group   1 Type O   : 11s6p2d1f contracted to 5s3p2d1f pattern {62111/411/11/1}
 Group   2 Type C   : 11s6p2d1f contracted to 5s3p2d1f pattern {62111/411/11/1}
 Group   3 Type H   : 5s1p contracted to 3s1p pattern {311/1}

Atom   0O    basis set group =>   1
Atom   1C    basis set group =>   2
Atom   2C    basis set group =>   2
Atom   3H    basis set group =>   3
Atom   4H    basis set group =>   3
Atom   5H    basis set group =>   3
Atom   6H    basis set group =>   3
---------------------------------
AUXILIARY/J BASIS SET INFORMATION
---------------------------------
There are 3 groups of distinct atoms

 Group   1 Type O   : 12s5p4d2f1g contracted to 6s4p3d1f1g pattern {711111/2111/211/2/1}
 Group   2 Type C   : 12s5p4d2f1g contracted to 6s4p3d1f1g pattern {711111/2111/211/2/1}
 Group   3 Type H   : 5s2p1d contracted to 3s1p1d pattern {311/2/1}

Atom   0O    basis set group =>   1
Atom   1C    basis set group =>   2
Atom   2C    basis set group =>   2
Atom   3H    basis set group =>   3
Atom   4H    basis set group =>   3
Atom   5H    basis set group =>   3
Atom   6H    basis set group =>   3

Checking for AutoStart:
The File: ox_es1_C_orca0009.gbw exists
Trying to determine its content:
     ... Fine, the file contains calculation information
     ... Fine, the calculation information was read
     ... Fine, the file contains a basis set
     ... Fine, the basis set was read
     ... Fine, the file contains a geometry
     ... Fine, the geometry was read
     ... Fine, the file contains a set of orbitals
     ... Fine, the orbitals can be read
     => possible old guess file was deleted
     => GBW file was renamed to GES file
     => GES file is set as startup file
     => Guess is set to MORead
     ... now leaving AutoStart



           ************************************************************
           *        Program running with 8 parallel MPI-processes     *
           *              working on a common directory               *
           ************************************************************
------------------------------------------------------------------------------
                           ORCA GTO INTEGRAL CALCULATION
                           -- RI-GTO INTEGRALS CHOSEN --
------------------------------------------------------------------------------
------------------------------------------------------------------------------
                   ___                                                        
                  /   \      - P O W E R E D   B Y -                         
                 /     \                                                     
                 |  |  |   _    _      __       _____    __    __             
                 |  |  |  | |  | |    /  \     |  _  \  |  |  /  |          
                  \  \/   | |  | |   /    \    | | | |  |  | /  /          
                 / \  \   | |__| |  /  /\  \   | |_| |  |  |/  /          
                |  |  |   |  __  | /  /__\  \  |    /   |      \           
                |  |  |   | |  | | |   __   |  |    \   |  |\   \          
                \     /   | |  | | |  |  |  |  | |\  \  |  | \   \       
                 \___/    |_|  |_| |__|  |__|  |_| \__\ |__|  \__/        
                                                                              
                      - O R C A' S   B I G   F R I E N D -                    
                                      &                                       
                       - I N T E G R A L  F E E D E R -                       
                                                                              
 v1 FN, 2020, v2 2021                                                         
------------------------------------------------------------------------------


Reading SHARK input file ox_es1_C_orca0009.SHARKINP.tmp ... ok
----------------------
SHARK INTEGRAL PACKAGE
----------------------

Number of atoms                             ...      7
Number of basis functions                   ...    117
Number of shells                            ...     49
Maximum angular momentum                    ...      3
Integral batch strategy                     ... SHARK/LIBINT Hybrid
RI-J (if used) integral strategy            ... SPLIT-RIJ (Revised 2003 algorithm where possible)
Printlevel                                  ...      1
Contraction scheme used                     ... SEGMENTED contraction
Coulomb Range Separation                    ... NOT USED
Exchange Range Separation                   ... NOT USED
Finite Nucleus Model                        ... NOT USED
Auxiliary Coulomb fitting basis             ... AVAILABLE
   # of basis functions in Aux-J            ...    191
   # of shells in Aux-J                     ...     65
   Maximum angular momentum in Aux-J        ...      4
Auxiliary J/K fitting basis                 ... NOT available
Auxiliary Correlation fitting basis         ... NOT available
Auxiliary 'external' fitting basis          ... NOT available
Integral threshold                          ...     2.500000e-11
Primitive cut-off                           ...     2.500000e-12
Primitive pair pre-selection threshold      ...     2.500000e-12

Calculating pre-screening integrals         ... done (  0.0 sec) Dimension = 49
Organizing shell pair data                  ... done (  0.0 sec)
Shell pair information
Total number of shell pairs                 ...      1225
Shell pairs after pre-screening             ...      1217
Total number of primitive shell pairs       ...      3648
Primitive shell pairs kept                  ...      3106
          la=0 lb=0:    370 shell pairs
          la=1 lb=0:    351 shell pairs
          la=1 lb=1:     91 shell pairs
          la=2 lb=0:    162 shell pairs
          la=2 lb=1:     78 shell pairs
          la=2 lb=2:     21 shell pairs
          la=3 lb=0:     81 shell pairs
          la=3 lb=1:     39 shell pairs
          la=3 lb=2:     18 shell pairs
          la=3 lb=3:      6 shell pairs

Calculating one electron integrals          ... done (  0.0 sec)
Calculating RI/J V-Matrix + Cholesky decomp.... done (  0.0 sec)
Calculating Nuclear repulsion               ... done (  0.0 sec) ENN=     69.511715578389 Eh

SHARK setup successfully completed in   0.1 seconds

Maximum memory used throughout the entire GTOINT-calculation: 14.9 MB


           ************************************************************
           *        Program running with 8 parallel MPI-processes     *
           *              working on a common directory               *
           ************************************************************
-------------------------------------------------------------------------------
                                 ORCA SCF
-------------------------------------------------------------------------------

------------
SCF SETTINGS
------------
Hamiltonian:
 Density Functional     Method          .... DFT(GTOs)
 Exchange Functional    Exchange        .... PBE
   PBE kappa parameter   XKappa         ....  0.804000
   PBE mue parameter    XMuePBE         ....  0.219520
 Correlation Functional Correlation     .... PBE
   PBE beta parameter  CBetaPBE         ....  0.066725
 LDA part of GGA corr.  LDAOpt          .... PW91-LDA
 Gradients option       PostSCFGGA      .... off
 Hybrid DFT is turned on
   Fraction HF Exchange ScalHFX         ....  0.250000
   Scaling of DF-GGA-X  ScalDFX         ....  0.750000
   Scaling of DF-GGA-C  ScalDFC         ....  1.000000
   Scaling of DF-LDA-C  ScalLDAC        ....  1.000000
   Perturbative correction              ....  0.000000
   Density functional embedding theory  .... OFF
   NL short-range parameter             ....  6.900000
 RI-approximation to the Coulomb term is turned on
   Number of AuxJ basis functions       .... 191
   RIJ-COSX (HFX calculated with COS-X)).... on


General Settings:
 Integral files         IntName         .... ox_es1_C_orca0009
 Hartree-Fock type      HFTyp           .... RHF
 Total Charge           Charge          ....    0
 Multiplicity           Mult            ....    1
 Number of Electrons    NEL             ....   24
 Basis Dimension        Dim             ....  117
 Nuclear Repulsion      ENuc            ....     69.5117155784 Eh

Convergence Acceleration:
 DIIS                   CNVDIIS         .... on
   Start iteration      DIISMaxIt       ....    12
   Startup error        DIISStart       ....  0.200000
   # of expansion vecs  DIISMaxEq       ....     5
   Bias factor          DIISBfac        ....   1.050
   Max. coefficient     DIISMaxC        ....  10.000
 Trust-Rad. Augm. Hess. CNVTRAH         .... auto
   Auto Start mean grad. ratio tolernc. ....  1.125000
   Auto Start start iteration           ....     1
   Auto Start num. interpolation iter.  ....    10
   Max. Number of Micro iterations      ....    16
   Max. Number of Macro iterations      .... Maxiter - #DIIS iter
   Number of Davidson start vectors     ....     2
   Converg. threshold I  (grad. norm)   ....   1.000e-05
   Converg. threshold II (energy diff.) ....   1.000e-08
   Grad. Scal. Fac. for Micro threshold ....   0.100
   Minimum threshold for Micro iter.    ....   0.010
   NR start threshold (gradient norm)   ....   0.001
   Initial trust radius                 ....   0.400
   Minimum AH scaling param. (alpha)    ....   1.000
   Maximum AH scaling param. (alpha)    .... 1000.000
   Orbital update algorithm             .... Taylor
   White noise on init. David. guess    .... on
   Maximum white noise                  ....   0.010
   Quad. conv. algorithm                .... NR
 SOSCF                  CNVSOSCF        .... on
   Start iteration      SOSCFMaxIt      ....   150
   Startup grad/error   SOSCFStart      ....  0.003300
 Level Shifting         CNVShift        .... on
   Level shift para.    LevelShift      ....    0.2500
   Turn off err/grad.   ShiftErr        ....    0.0010
 Zerner damping         CNVZerner       .... off
 Static damping         CNVDamp         .... on
   Fraction old density DampFac         ....    0.7000
   Max. Damping (<1)    DampMax         ....    0.9800
   Min. Damping (>=0)   DampMin         ....    0.0000
   Turn off err/grad.   DampErr         ....    0.1000
 Fernandez-Rico         CNVRico         .... off

SCF Procedure:
 Maximum # iterations   MaxIter         ....   125
 SCF integral mode      SCFMode         .... Direct
   Integral package                     .... SHARK and LIBINT hybrid scheme
 Reset frequency        DirectResetFreq ....    20
 Integral Threshold     Thresh          ....  2.500e-11 Eh
 Primitive CutOff       TCut            ....  2.500e-12 Eh

Convergence Tolerance:
 Convergence Check Mode ConvCheckMode   .... Total+1el-Energy
 Convergence forced     ConvForced      .... 1
 Energy Change          TolE            ....  1.000e-08 Eh
 1-El. energy change                    ....  1.000e-05 Eh
 Orbital Gradient       TolG            ....  1.000e-05
 Orbital Rotation angle TolX            ....  1.000e-05
 DIIS Error             TolErr          ....  5.000e-07


Diagonalization of the overlap matrix:
Smallest eigenvalue                        ... 3.886e-04
Time for diagonalization                   ...    0.001 sec
Threshold for overlap eigenvalues          ... 1.000e-08
Number of eigenvalues below threshold      ... 0
Time for construction of square roots      ...    0.001 sec
Total time needed                          ...    0.003 sec

---------------------
INITIAL GUESS: MOREAD
---------------------
Guess MOs are being read from file: ox_es1_C_orca0009.ges
Input Geometry matches current geometry (good)
Input basis set matches current basis set (good)
MOs were renormalized
MOs were reorthogonalized (Cholesky)
                      ------------------
                      INITIAL GUESS DONE (   0.0 sec)
                      ------------------
-------------------
DFT GRID GENERATION
-------------------

General Integration Accuracy     IntAcc      ... 4.388
Radial Grid Type                 RadialGrid  ... OptM3 with GC (2021)
Angular Grid (max. ang.)         AngularGrid ... 4 (Lebedev-302)
Angular grid pruning method      GridPruning ... 4 (adaptive)
Weight generation scheme         WeightScheme... Becke
Basis function cutoff            BFCut       ... 1.0000e-11
Integration weight cutoff        WCut        ... 1.0000e-14
Angular grids for H and He will be reduced by one unit
Partially contracted basis set               ... off
Rotationally invariant grid construction     ... off

Total number of grid points                  ...    31310
Total number of batches                      ...      493
Average number of points per batch           ...       63
Average number of grid points per atom       ...     4473
Time for grid setup =    0.118 sec

--------------------
COSX GRID GENERATION
--------------------

GRIDX 1
-------
General Integration Accuracy     IntAcc      ... 3.816
Radial Grid Type                 RadialGrid  ... OptM3 with GC (2021)
Angular Grid (max. ang.)         AngularGrid ... 1 (Lebedev-50)
Angular grid pruning method      GridPruning ... 4 (adaptive)
Weight generation scheme         WeightScheme... Becke
Basis function cutoff            BFCut       ... 1.0000e-11
Integration weight cutoff        WCut        ... 1.0000e-14
Angular grids for H and He will be reduced by one unit
Partially contracted basis set               ... on
Rotationally invariant grid construction     ... off

Total number of grid points                  ...     4037
Total number of batches                      ...       67
Average number of points per batch           ...       60
Average number of grid points per atom       ...      577
UseSFitting                                  ... on

GRIDX 2
-------
General Integration Accuracy     IntAcc      ... 4.020
Radial Grid Type                 RadialGrid  ... OptM3 with GC (2021)
Angular Grid (max. ang.)         AngularGrid ... 2 (Lebedev-110)
Angular grid pruning method      GridPruning ... 4 (adaptive)
Weight generation scheme         WeightScheme... Becke
Basis function cutoff            BFCut       ... 1.0000e-11
Integration weight cutoff        WCut        ... 1.0000e-14
Angular grids for H and He will be reduced by one unit
Partially contracted basis set               ... on
Rotationally invariant grid construction     ... off

Total number of grid points                  ...     8730
Total number of batches                      ...      138
Average number of points per batch           ...       63
Average number of grid points per atom       ...     1247
UseSFitting                                  ... on

GRIDX 3
-------
General Integration Accuracy     IntAcc      ... 4.338
Radial Grid Type                 RadialGrid  ... OptM3 with GC (2021)
Angular Grid (max. ang.)         AngularGrid ... 3 (Lebedev-194)
Angular grid pruning method      GridPruning ... 4 (adaptive)
Weight generation scheme         WeightScheme... Becke
Basis function cutoff            BFCut       ... 1.0000e-11
Integration weight cutoff        WCut        ... 1.0000e-14
Angular grids for H and He will be reduced by one unit
Partially contracted basis set               ... on
Rotationally invariant grid construction     ... off

Total number of grid points                  ...    19251
Total number of batches                      ...      305
Average number of points per batch           ...       63
Average number of grid points per atom       ...     2750
UseSFitting                                  ... on

Time for X-Grid setup             =    0.073 sec

--------------
SCF ITERATIONS
--------------
ITER       Energy         Delta-E        Max-DP      RMS-DP      [F,P]     Damp
               ***  Starting incremental Fock matrix formation  ***
                      *** Initiating the SOSCF procedure ***
                      *** Re-Reading the Fockian *** 
                      *** Removing any level shift *** 
ITER      Energy       Delta-E        Grad      Rot      Max-DP    RMS-DP
  0   -153.59250309 -153.5925030857  0.000001  0.000001  0.000002  0.000000
               *** Restarting incremental Fock matrix formation ***
                  ***Gradient check signals convergence***
              ***Rediagonalizing the Fockian in SOSCF/NRSCF***

               *****************************************************
               *                     SUCCESS                       *
               *           SCF CONVERGED AFTER   1 CYCLES          *
               *****************************************************

Old exchange energy                            =     -4.965085956 Eh
New exchange energy                            =     -4.965088234 Eh
Exchange energy change after final integration =     -0.000002278 Eh
Total energy after final integration           =   -153.592505363 Eh
Final COS-X integration done in                =     0.259 sec

----------------
TOTAL SCF ENERGY
----------------

Total Energy       :         -153.59250536 Eh           -4179.46455 eV

Components:
Nuclear Repulsion  :           69.51171558 Eh            1891.50994 eV
Electronic Energy  :         -223.10422094 Eh           -6070.97449 eV
One Electron Energy:         -345.90679848 Eh           -9412.60251 eV
Two Electron Energy:          122.80257754 Eh            3341.62802 eV
Max COSX asymmetry :            0.00000106 Eh               0.00003 eV

Virial components:
Potential Energy   :         -306.37876968 Eh           -8336.99017 eV
Kinetic Energy     :          152.78626431 Eh            4157.52562 eV
Virial Ratio       :            2.00527692


DFT components:
N(Alpha)           :       12.000001406419 electrons
N(Beta)            :       12.000001406419 electrons
N(Total)           :       24.000002812837 electrons
E(X)               :      -14.896243081380 Eh       
E(C)               :       -0.774466546445 Eh       
E(XC)              :      -15.670709627825 Eh       
DFET-embed. en.    :        0.000000000000 Eh       

---------------
SCF CONVERGENCE
---------------

  Last Energy change         ...   -1.2250e-11  Tolerance :   1.0000e-08
  Last MAX-Density change    ...    7.7716e-16  Tolerance :   1.0000e-07
  Last RMS-Density change    ...    1.8920e-17  Tolerance :   5.0000e-09
  Last Orbital Gradient      ...    5.0608e-07  Tolerance :   1.0000e-05
  Last Orbital Rotation      ...    2.6467e-06  Tolerance :   1.0000e-05

             **** THE GBW FILE WAS UPDATED (ox_es1_C_orca0009.gbw) ****
             **** DENSITY ox_es1_C_orca0009.scfp WAS UPDATED ****
             **** ENERGY FILE WAS UPDATED (ox_es1_C_orca0009.en.tmp) ****
             **** THE GBW FILE WAS UPDATED (ox_es1_C_orca0009.gbw) ****
             **** DENSITY ox_es1_C_orca0009.scfp WAS UPDATED ****
----------------
ORBITAL ENERGIES
----------------

  NO   OCC          E(Eh)            E(eV) 
   0   2.0000     -19.209534      -522.7180 
   1   2.0000     -10.299919      -280.2750 
   2   2.0000     -10.273071      -279.5445 
   3   2.0000      -0.984290       -26.7839 
   4   2.0000      -0.763480       -20.7754 
   5   2.0000      -0.643743       -17.5171 
   6   2.0000      -0.525008       -14.2862 
   7   2.0000      -0.482225       -13.1220 
   8   2.0000      -0.419014       -11.4019 
   9   2.0000      -0.382953       -10.4207 
  10   2.0000      -0.300912        -8.1882 
  11   2.0000      -0.270520        -7.3612 
  12   0.0000      -0.079312        -2.1582 
  13   0.0000       0.060372         1.6428 
  14   0.0000       0.083038         2.2596 
  15   0.0000       0.089325         2.4306 
  16   0.0000       0.100234         2.7275 
  17   0.0000       0.150254         4.0886 
  18   0.0000       0.181469         4.9380 
  19   0.0000       0.205347         5.5878 
  20   0.0000       0.234742         6.3876 
  21   0.0000       0.261860         7.1256 
  22   0.0000       0.272964         7.4277 
  23   0.0000       0.302275         8.2253 
  24   0.0000       0.374494        10.1905 
  25   0.0000       0.409014        11.1298 
  26   0.0000       0.423180        11.5153 
  27   0.0000       0.429702        11.6928 
  28   0.0000       0.456986        12.4352 
  29   0.0000       0.492366        13.3980 
  30   0.0000       0.502011        13.6604 
  31   0.0000       0.523509        14.2454 
  32   0.0000       0.571178        15.5425 
  33   0.0000       0.641834        17.4652 
  34   0.0000       0.660043        17.9607 
  35   0.0000       0.757843        20.6220 
  36   0.0000       0.812397        22.1064 
  37   0.0000       0.838971        22.8296 
  38   0.0000       0.844587        22.9824 
  39   0.0000       0.936951        25.4957 
  40   0.0000       0.948489        25.8097 
  41   0.0000       1.029494        28.0139 
  42   0.0000       1.069070        29.0909 
  43   0.0000       1.075162        29.2566 
  44   0.0000       1.174974        31.9727 
  45   0.0000       1.341816        36.5127 
  46   0.0000       1.398032        38.0424 
  47   0.0000       1.455480        39.6056 
  48   0.0000       1.499143        40.7937 
  49   0.0000       1.520300        41.3695 
  50   0.0000       1.570761        42.7426 
  51   0.0000       1.602902        43.6172 
  52   0.0000       1.658341        45.1258 
  53   0.0000       1.706645        46.4402 
  54   0.0000       1.733159        47.1616 
  55   0.0000       1.761322        47.9280 
  56   0.0000       1.839800        50.0635 
  57   0.0000       1.844141        50.1816 
  58   0.0000       1.878576        51.1187 
  59   0.0000       1.947449        52.9928 
  60   0.0000       1.992071        54.2070 
  61   0.0000       2.109829        57.4114 
  62   0.0000       2.138948        58.2037 
  63   0.0000       2.228889        60.6512 
  64   0.0000       2.316491        63.0349 
  65   0.0000       2.357549        64.1522 
  66   0.0000       2.422485        65.9192 
  67   0.0000       2.469849        67.2080 
  68   0.0000       2.478200        67.4352 
  69   0.0000       2.579160        70.1825 
  70   0.0000       2.600596        70.7658 
  71   0.0000       2.624528        71.4170 
  72   0.0000       2.693256        73.2872 
  73   0.0000       2.744026        74.6687 
  74   0.0000       2.775100        75.5143 
  75   0.0000       2.806033        76.3560 
  76   0.0000       2.813275        76.5531 
  77   0.0000       2.864767        77.9543 
  78   0.0000       2.972387        80.8828 
  79   0.0000       2.996869        81.5489 
  80   0.0000       3.042570        82.7925 
  81   0.0000       3.070018        83.5394 
  82   0.0000       3.109305        84.6085 
  83   0.0000       3.142902        85.5227 
  84   0.0000       3.189441        86.7891 
  85   0.0000       3.261816        88.7585 
  86   0.0000       3.363521        91.5261 
  87   0.0000       3.371705        91.7488 
  88   0.0000       3.440696        93.6261 
  89   0.0000       3.520535        95.7986 
  90   0.0000       3.603725        98.0623 
  91   0.0000       3.682890       100.2165 
  92   0.0000       3.694847       100.5419 
  93   0.0000       3.913613       106.4948 
  94   0.0000       4.033210       109.7492 
  95   0.0000       4.113145       111.9244 
  96   0.0000       4.214736       114.6888 
  97   0.0000       4.310606       117.2976 
  98   0.0000       4.460929       121.3881 
  99   0.0000       4.539113       123.5155 
 100   0.0000       4.626036       125.8808 
 101   0.0000       4.815930       131.0481 
 102   0.0000       5.234030       142.4252 
 103   0.0000       5.245962       142.7499 
 104   0.0000       5.317363       144.6928 
 105   0.0000       5.375671       146.2794 
 106   0.0000       5.623564       153.0250 
 107   0.0000       5.637618       153.4074 
 108   0.0000       5.831207       158.6752 
 109   0.0000       6.385667       173.7628 
 110   0.0000       6.454795       175.6439 
 111   0.0000       6.717821       182.8012 
 112   0.0000       6.848895       186.3679 
 113   0.0000       7.010089       190.7542 
 114   0.0000      22.240386       605.1917 
 115   0.0000      22.438430       610.5807 
 116   0.0000      43.636399      1187.4068 

                    ********************************
                    * MULLIKEN POPULATION ANALYSIS *
                    ********************************

-----------------------
MULLIKEN ATOMIC CHARGES
-----------------------
   0 O :   -0.381929
   1 C :   -0.028119
   2 C :   -0.136022
   3 H :    0.122665
   4 H :    0.123534
   5 H :    0.148393
   6 H :    0.151478
Sum of atomic charges:    0.0000000

--------------------------------
MULLIKEN REDUCED ORBITAL CHARGES
--------------------------------
  0 O s       :     3.923438  s :     3.923438
      pz      :     1.923279  p :     4.436584
      px      :     1.373648
      py      :     1.139657
      dz2     :     0.003151  d :     0.020851
      dxz     :     0.000451
      dyz     :     0.003814
      dx2y2   :     0.006799
      dxy     :     0.006636
      f0      :     0.000114  f :     0.001056
      f+1     :     0.000060
      f-1     :     0.000275
      f+2     :     0.000102
      f-2     :     0.000034
      f+3     :     0.000234
      f-3     :     0.000238
  1 C s       :     3.187471  s :     3.187471
      pz      :     1.052890  p :     2.701277
      px      :     0.922104
      py      :     0.726283
      dz2     :     0.010917  d :     0.130284
      dxz     :     0.018687
      dyz     :     0.036427
      dx2y2   :     0.026360
      dxy     :     0.037893
      f0      :     0.001535  f :     0.009086
      f+1     :     0.001144
      f-1     :     0.000628
      f+2     :     0.002231
      f-2     :     0.000198
      f+3     :     0.001365
      f-3     :     0.001985
  2 C s       :     3.281327  s :     3.281327
      pz      :     1.060169  p :     2.787991
      px      :     0.976709
      py      :     0.751113
      dz2     :     0.005401  d :     0.060951
      dxz     :     0.023448
      dyz     :     0.007794
      dx2y2   :     0.009585
      dxy     :     0.014723
      f0      :     0.000556  f :     0.005753
      f+1     :     0.001091
      f-1     :     0.000152
      f+2     :     0.000977
      f-2     :     0.000361
      f+3     :     0.001184
      f-3     :     0.001433
  3 H s       :     0.855157  s :     0.855157
      pz      :     0.011886  p :     0.022178
      px      :     0.005741
      py      :     0.004551
  4 H s       :     0.854625  s :     0.854625
      pz      :     0.011173  p :     0.021841
      px      :     0.006561
      py      :     0.004107
  5 H s       :     0.827326  s :     0.827326
      pz      :     0.011091  p :     0.024282
      px      :     0.008233
      py      :     0.004958
  6 H s       :     0.827182  s :     0.827182
      pz      :     0.010866  p :     0.021340
      px      :     0.006800
      py      :     0.003674


                     *******************************
                     * LOEWDIN POPULATION ANALYSIS *
                     *******************************

----------------------
LOEWDIN ATOMIC CHARGES
----------------------
   0 O :   -0.108688
   1 C :   -0.325311
   2 C :   -0.049349
   3 H :    0.126669
   4 H :    0.115136
   5 H :    0.104451
   6 H :    0.137093

-------------------------------
LOEWDIN REDUCED ORBITAL CHARGES
-------------------------------
  0 O s       :     3.615987  s :     3.615987
      pz      :     1.861809  p :     4.446700
      px      :     1.343330
      py      :     1.241561
      dz2     :     0.006945  d :     0.043449
      dxz     :     0.000912
      dyz     :     0.008478
      dx2y2   :     0.015120
      dxy     :     0.011993
      f0      :     0.000219  f :     0.002552
      f+1     :     0.000077
      f-1     :     0.000508
      f+2     :     0.000363
      f-2     :     0.000087
      f+3     :     0.000675
      f-3     :     0.000625
  1 C s       :     2.830157  s :     2.830157
      pz      :     1.058746  p :     2.921061
      px      :     1.067606
      py      :     0.794709
      dz2     :     0.065189  d :     0.512468
      dxz     :     0.107651
      dyz     :     0.090855
      dx2y2   :     0.125365
      dxy     :     0.123409
      f0      :     0.009440  f :     0.061625
      f+1     :     0.005157
      f-1     :     0.006060
      f+2     :     0.012359
      f-2     :     0.001087
      f+3     :     0.010087
      f-3     :     0.017435
  2 C s       :     2.874799  s :     2.874799
      pz      :     1.079315  p :     2.873998
      px      :     1.095829
      py      :     0.698855
      dz2     :     0.032634  d :     0.271383
      dxz     :     0.120699
      dyz     :     0.017096
      dx2y2   :     0.048668
      dxy     :     0.052286
      f0      :     0.003526  f :     0.029169
      f+1     :     0.004025
      f-1     :     0.001468
      f+2     :     0.005399
      f-2     :     0.001480
      f+3     :     0.005707
      f-3     :     0.007563
  3 H s       :     0.809636  s :     0.809636
      pz      :     0.034720  p :     0.063695
      px      :     0.016228
      py      :     0.012747
  4 H s       :     0.819372  s :     0.819372
      pz      :     0.034203  p :     0.065492
      px      :     0.018799
      py      :     0.012490
  5 H s       :     0.818876  s :     0.818876
      pz      :     0.036943  p :     0.076674
      px      :     0.024587
      py      :     0.015144
  6 H s       :     0.802711  s :     0.802711
      pz      :     0.031991  p :     0.060196
      px      :     0.017994
      py      :     0.010212


                      *****************************
                      * MAYER POPULATION ANALYSIS *
                      *****************************

  NA   - Mulliken gross atomic population
  ZA   - Total nuclear charge
  QA   - Mulliken gross atomic charge
  VA   - Mayer's total valence
  BVA  - Mayer's bonded valence
  FA   - Mayer's free valence

  ATOM       NA         ZA         QA         VA         BVA        FA
  0 O      8.3819     8.0000    -0.3819     1.8363     1.8363     0.0000
  1 C      6.0281     6.0000    -0.0281     3.9999     3.9999     0.0000
  2 C      6.1360     6.0000    -0.1360     3.8931     3.8931    -0.0000
  3 H      0.8773     1.0000     0.1227     0.9710     0.9710     0.0000
  4 H      0.8765     1.0000     0.1235     0.9595     0.9595    -0.0000
  5 H      0.8516     1.0000     0.1484     0.9582     0.9582     0.0000
  6 H      0.8485     1.0000     0.1515     0.9590     0.9590     0.0000

  Mayer bond orders larger than 0.100000
B(  0-O ,  1-C ) :   0.9563 B(  0-O ,  2-C ) :   0.8782 B(  1-C ,  2-C ) :   1.1082 
B(  1-C ,  3-H ) :   0.9703 B(  1-C ,  4-H ) :   0.9521 B(  2-C ,  5-H ) :   0.9528 
B(  2-C ,  6-H ) :   0.9465 

-------
TIMINGS
-------

Total SCF time: 0 days 0 hours 0 min 1 sec 

Total time                  ....       1.024 sec
Sum of individual times     ....       0.915 sec  ( 89.4%)

Fock matrix formation       ....       0.705 sec  ( 68.9%)
  Split-RI-J                ....       0.111 sec  ( 15.8% of F)
  Chain of spheres X        ....       0.522 sec  ( 74.0% of F)
  XC integration            ....       0.062 sec  (  8.9% of F)
    Basis function eval.    ....       0.017 sec  ( 27.2% of XC)
    Density eval.           ....       0.013 sec  ( 21.2% of XC)
    XC-Functional eval.     ....       0.004 sec  (  6.1% of XC)
    XC-Potential eval.      ....       0.020 sec  ( 31.8% of XC)
Diagonalization             ....       0.002 sec  (  0.2%)
Density matrix formation    ....       0.000 sec  (  0.0%)
Population analysis         ....       0.004 sec  (  0.4%)
Initial guess               ....       0.009 sec  (  0.9%)
Orbital Transformation      ....       0.000 sec  (  0.0%)
Orbital Orthonormalization  ....       0.001 sec  (  0.1%)
DIIS solution               ....       0.001 sec  (  0.1%)
SOSCF solution              ....       0.002 sec  (  0.2%)
Grid generation             ....       0.191 sec  ( 18.7%)

Maximum memory used throughout the entire SCF-calculation: 61.1 MB


           ************************************************************
           *        Program running with 8 parallel MPI-processes     *
           *              working on a common directory               *
           ************************************************************
------------------------------------------------------------------------------
                        ORCA TD-DFT/TDA CALCULATION
------------------------------------------------------------------------------

Input orbitals are from        ... ox_es1_C_orca0009.gbw
CI-vector output               ... ox_es1_C_orca0009.cis
Tamm-Dancoff approximation     ... operative
CIS-Integral strategy          ... AO-integrals
Integral handling              ... AO integral Direct
Max. core memory used          ... 3000 MB
Reference state                ... RHF
Generation of triplets         ... off
Follow IRoot                   ... off
Number of operators            ... 1
Orbital ranges used for CIS calculation:
 Operator 0:  Orbitals   3... 11  to  12...116
XAS localization array:
 Operator 0:  Orbitals  -1... -1

-------------------
XC-INTEGRATION GRID
-------------------

General Integration Accuracy     IntAcc      ... 3.467
Radial Grid Type                 RadialGrid  ... OptM3 with GC (2021)
Angular Grid (max. ang.)         AngularGrid ... 1 (Lebedev-50)
Angular grid pruning method      GridPruning ... 4 (adaptive)
Weight generation scheme         WeightScheme... Becke
Basis function cutoff            BFCut       ... 1.0000e-11
Integration weight cutoff        WCut        ... 1.0000e-14
Angular grids for H and He will be reduced by one unit
Partially contracted basis set               ... off
Rotationally invariant grid construction     ... off

Total number of grid points                  ...     4541
Total number of batches                      ...       75
Average number of points per batch           ...       60
Average number of grid points per atom       ...      649

---------------------
COSX-INTEGRATION GRID
---------------------

General Integration Accuracy     IntAcc      ... 3.067
Radial Grid Type                 RadialGrid  ... OptM3 with GC (2021)
Angular Grid (max. ang.)         AngularGrid ... 1 (Lebedev-50)
Angular grid pruning method      GridPruning ... 4 (adaptive)
Weight generation scheme         WeightScheme... Becke
Basis function cutoff            BFCut       ... 1.0000e-11
Integration weight cutoff        WCut        ... 1.0000e-14
Angular grids for H and He will be reduced by one unit
Partially contracted basis set               ... on
Rotationally invariant grid construction     ... off

Total number of grid points                  ...     2087
Total number of batches                      ...       37
Average number of points per batch           ...       56
Average number of grid points per atom       ...      298

---------------
TD-DFT XC SETUP
---------------

DFT calculation                         ... on
Name of the grid file                   ... ox_es1_C_orca0009.grid_cis.tmp
Exchange functional (TD-DFT)            ... PBE
   PBE kappa parameter  XKappa (TD-DFT) ...  0.804000
   PBE mue parameter   XMuePBE (TD-DFT) ...  0.219520
Correlation functional (TD-DFT)         ... PBE
   PBE beta parameter CBetaPBE (TD-DFT) ...  0.066725
 LDA part of GGA corr.  LDAOpt (TD-DFT) ... PW91-LDA
Hybrid DFT                              ... on
   Exchange mixing (TD-DFT)             ...  0.250
   GGA exch. scaling (TD-DFT)           ...  0.750
   GGA corr. scaling (TD-DFT)           ...  1.000

Building densities             ... done
Calculating rho(r) on the grid ... done
Building xc-kernel on the grid ... done
                    *** TD-DFT CALCULATION INITIALIZED ***

------------------------
DAVIDSON-DIAGONALIZATION
------------------------

Dimension of the eigenvalue problem            ...    945
Number of roots to be determined               ...      1
Maximum size of the expansion space            ...     10
Maximum number of iterations                   ...    100
Convergence tolerance for the residual         ...    2.500e-07
Convergence tolerance for the energies         ...    2.500e-07
Orthogonality tolerance                        ...    1.000e-14
Level Shift                                    ...    0.000e+00
Constructing the preconditioner                ... o.k.
Building the initial guess                     ... o.k.
Number of trial vectors determined             ...     10


                       ****Iteration    0****

   Memory handling for direct AO based CIS:
   Memory per vector needed      ...     1 MB
   Memory needed                 ...     1 MB
   Memory available              ...  3000 MB
   Number of vectors per batch   ...  3000
   Number of batches             ...     1
   Time for densities:            0.001
   Time for RI-J (Direct):        0.015
   Time for K (COSX):             0.056
   Time for XC-Integration:       0.016
   Time for Sigma-Completion:     0.000
   Size of expansion space: 3
   Lowest Energy          :     0.105831549561
   Maximum Energy change  :     0.105831549561 (vector 0)
   Maximum residual norm  :     0.003369424917

                       ****Iteration    1****
   Time for densities:            0.000
   Time for RI-J (Direct):        0.013
   Time for K (COSX):             0.050
   Time for XC-Integration:       0.007
   Time for Sigma-Completion:     0.000
   Size of expansion space: 4
   Lowest Energy          :     0.103394115455
   Maximum Energy change  :     0.002437434106 (vector 0)
   Maximum residual norm  :     0.000072282004

                       ****Iteration    2****
   Time for densities:            0.000
   Time for RI-J (Direct):        0.012
   Time for K (COSX):             0.050
   Time for XC-Integration:       0.007
   Time for Sigma-Completion:     0.000
   Size of expansion space: 5
   Lowest Energy          :     0.103342119657
   Maximum Energy change  :     0.000051995798 (vector 0)
   Maximum residual norm  :     0.000003178932

                       ****Iteration    3****
   Time for densities:            0.000
   Time for RI-J (Direct):        0.012
   Time for K (COSX):             0.050
   Time for XC-Integration:       0.006
   Time for Sigma-Completion:     0.000
   Size of expansion space: 6
   Lowest Energy          :     0.103339299911
   Maximum Energy change  :     0.000002819746 (vector 0)
   Maximum residual norm  :     0.000000278376

                       ****Iteration    4****
   Time for densities:            0.000
   Time for RI-J (Direct):        0.012
   Time for K (COSX):             0.050
   Time for XC-Integration:       0.006
   Time for Sigma-Completion:     0.000
   Size of expansion space: 7
   Lowest Energy          :     0.103339044832
   Maximum Energy change  :     0.000000255079 (vector 0)
   Maximum residual norm  :     0.000000015891

      *** CONVERGENCE OF RESIDUAL NORM REACHED ***

Storing the converged CI vectors               ... ox_es1_C_orca0009.cis1

                 *** DAVIDSON DONE ***

Total time for solving the CIS problem:     0.367sec

------------------------------------
TD-DFT/TDA EXCITED STATES (SINGLETS)
------------------------------------

the weight of the individual excitations are printed if larger than 1.0e-02

STATE  1:  E=   0.103339 au      2.812 eV    22680.3 cm**-1 <S**2> =   0.000000
    11a ->  12a  :     0.991781 (c=  0.99588215)


-----------------------------
TD-DFT/TDA-EXCITATION SPECTRA
-----------------------------

Center of mass = ( -0.3473,  0.1106, -0.0429)
Calculating the Dipole integrals                  ... done
Transforming integrals                            ... done
Calculating the Linear Momentum integrals         ... done
Transforming integrals                            ... done
Calculating angular momentum integrals            ... done
Transforming integrals                            ... done

-----------------------------------------------------------------------------
         ABSORPTION SPECTRUM VIA TRANSITION ELECTRIC DIPOLE MOMENTS
-----------------------------------------------------------------------------
State   Energy    Wavelength  fosc         T2        TX        TY        TZ  
        (cm-1)      (nm)                 (au**2)    (au)      (au)      (au) 
-----------------------------------------------------------------------------
   1   22680.3    440.9   0.000586874   0.00852   0.00804  -0.00171  -0.09193

-----------------------------------------------------------------------------
         ABSORPTION SPECTRUM VIA TRANSITION VELOCITY DIPOLE MOMENTS
-----------------------------------------------------------------------------
State   Energy    Wavelength   fosc        P2         PX        PY        PZ  
        (cm-1)      (nm)                 (au**2)     (au)      (au)      (au) 
-----------------------------------------------------------------------------
   1   22680.3    440.9   0.010921321   0.00169   0.00075  -0.00646   0.04063

-------------------------------------------------------------------
                             CD SPECTRUM
-------------------------------------------------------------------
State  Energy     Wavelength     R         MX        MY        MZ   
       (cm-1)       (nm)     (1e40*cgs)   (au)      (au)      (au)  
-------------------------------------------------------------------
   1   22680.3    440.9     -0.56483   0.07312   0.24710   0.01484

-------------------------------------------------------------------
         CD SPECTRUM VIA TRANSITION VELOCITY DIPOLE MOMENTS        
-------------------------------------------------------------------
State  Energy     Wavelength     R         MX        MY        MZ   
       (cm-1)       (nm)     (1e40*cgs)   (au)      (au)      (au)  
-------------------------------------------------------------------
   1   22680.3    440.9     -4.28602   0.07312   0.24710   0.01484

Total run time:        0.646 sec

           *** ORCA-CIS/TD-DFT FINISHED WITHOUT ERROR ***

Maximum memory used throughout the entire CIS-calculation: 49.4 MB

-----------------------
CIS/TD-DFT TOTAL ENERGY
-----------------------

    E(SCF)  =   -153.592505363 Eh
    DE(CIS) =      0.103339045 Eh (Root  1)
    ----------------------------- ---------
    E(tot)  =   -153.489166319 Eh



-------------------------------------------------------------------------------
                          DFT DISPERSION CORRECTION                            
                                                                               
                              DFTD3 V3.1  Rev 1                                
                          USING Becke-Johnson damping                          
-------------------------------------------------------------------------------
The PBE0 functional is recognized
Active option DFTDOPT                   ...         4   

molecular C6(AA) [au] = 388.611209 


            DFT-D V3
 parameters
 s6 scaling factor         :     1.0000 
 a1 scaling factor         :     0.4145 
 s8 scaling factor         :     1.2177 
 a2 scaling factor         :     4.8593 
 ad hoc parameters k1-k3   :    16.0000     1.3333    -4.0000 

 Edisp/kcal,au: -1.646455858019  -0.002623794142 
 E6   /kcal   :  -1.075666066 
 E8   /kcal   :  -0.570789792 
 % E8         :  34.667785892 

-------------------------   ----------------
Dispersion correction           -0.002623794
-------------------------   ----------------


-------------------------   --------------------
FINAL SINGLE POINT ENERGY      -153.491790112788
-------------------------   --------------------



           ************************************************************
           *        Program running with 8 parallel MPI-processes     *
           *              working on a common directory               *
           ************************************************************
------------------------------------------------------------------------------
                         ORCA SCF GRADIENT CALCULATION
------------------------------------------------------------------------------


------------------------
TD-DFT GRADIENT XC SETUP
------------------------

Building densities                     ... done
Calculating rho(r) on the grid         ... done
Building xc-kernel on the grid         ... done
Building xc 3rd derivative on the grid      ... done
                *** TD-DFT GRADIENT CALCULATION INITIALIZED ***

-------------------
TD-DFT/TDA GRADIENT
-------------------

Reference wavefunction             ... RHF
State of interest                  ... 1
Basis dimension                    ... 117
DFT-XC contribution needed         ... YES
RI-approximation                   ... ON
CIS-vectors being read from        ... ox_es1_C_orca0009.cis

 => Number of Vectors found: 1
 => Orbital Window: 3...11 -> 12...116

Reading the CIS file                     ... done
Norm of the CI vector                    ... 1.000000000
Making the CIS (pseudo)densities         ... done
Making operators G(D) and Q(T)           ... done
Transforming the Fock operators          ... done
Making the frozen-core relaxed density   ... done
Constructing the G(H) operator           ... done
Transforming the G(H) operator           ... done
Calculating the CIS Lagrangian           ... done
Solving the Z-vector equations           ... done
Finalizing the relaxed density           ... done
Storing the relaxed density              ... done
Constructing the G(Z) operator           ... done
Transforming the G(Z) operator           ... done
Making the W-matrix                      ... done
Finalizing the W-matrix                  ... done
Transforming the W-matrix                ... done
Nuclear repulsion gradient               ... done
One-Electron gradient                    ... done
Dispersion correction                    ... done
Prescreening matrices                    ... done
COSX-gradient                            ... done
Coulomb gradient (RI)                    ... done
Exchange-Correlation gradient            ... done

                 ---------------------------
                 EXCITED STATE GRADIENT DONE
                 ---------------------------

------------------
CARTESIAN GRADIENT
------------------

   1   O   :    0.046995844   -0.003497286    0.006689641
   2   C   :   -0.059054603   -0.077686813   -0.019590133
   3   C   :   -0.013557174    0.062377500   -0.057992109
   4   H   :    0.016730622    0.014658041   -0.006403314
   5   H   :    0.018605275    0.009047602    0.014130710
   6   H   :   -0.026448952    0.003584781    0.052111904
   7   H   :    0.016779149   -0.008492048    0.010993732

Difference to translation invariance:
           :    0.0000501619   -0.0000082242   -0.0000595683

Difference to rotation invariance:
           :   -0.0001512793    0.0000142781    0.0004009887

Norm of the cartesian gradient     ...    0.1570857026
RMS gradient                       ...    0.0342789106
MAX gradient                       ...    0.0776868132

------------------------------------------------------------------------------
                  RELAXED CIS/TDA DENSITY POPULATION ANALYSIS
                                   IROOT 1
------------------------------------------------------------------------------
------------------------------------------------------------------------------
                           ORCA POPULATION ANALYSIS
------------------------------------------------------------------------------
Input electron density              ... ox_es1_C_orca0009.cisp
BaseName (.gbw .S,...)              ... ox_es1_C_orca0009

                    ********************************
                    * MULLIKEN POPULATION ANALYSIS *
                    ********************************

-----------------------
MULLIKEN ATOMIC CHARGES
-----------------------
   0 O :   -0.172016
   1 C :   -0.067638
   2 C :   -0.331623
   3 H :    0.148628
   4 H :    0.150721
   5 H :    0.136086
   6 H :    0.135841
Sum of atomic charges:    0.0000000

--------------------------------
MULLIKEN REDUCED ORBITAL CHARGES
--------------------------------
  0 O s       :     3.901931  s :     3.901931
      pz      :     1.045113  p :     4.250226
      px      :     1.869383
      py      :     1.335730
      dz2     :     0.002468  d :     0.019247
      dxz     :     0.000518
      dyz     :     0.003987
      dx2y2   :     0.006398
      dxy     :     0.005877
      f0      :    -0.000022  f :     0.000611
      f+1     :    -0.000060
      f-1     :     0.000050
      f+2     :     0.000123
      f-2     :     0.000012
      f+3     :     0.000272
      f-3     :     0.000235
  1 C s       :     3.194824  s :     3.194824
      pz      :     1.044250  p :     2.749561
      px      :     0.990486
      py      :     0.714825
      dz2     :     0.010967  d :     0.114421
      dxz     :     0.021203
      dyz     :     0.015080
      dx2y2   :     0.027947
      dxy     :     0.039223
      f0      :     0.000890  f :     0.008832
      f+1     :     0.001209
      f-1     :     0.000501
      f+2     :     0.001223
      f-2     :     0.000143
      f+3     :     0.002417
      f-3     :     0.002448
  2 C s       :     3.288888  s :     3.288888
      pz      :     1.051479  p :     2.985354
      px      :     0.913692
      py      :     1.020182
      dz2     :     0.004697  d :     0.051838
      dxz     :     0.015951
      dyz     :     0.001967
      dx2y2   :     0.012611
      dxy     :     0.016611
      f0      :     0.000485  f :     0.005542
      f+1     :     0.000946
      f-1     :     0.000270
      f+2     :     0.000912
      f-2     :     0.000207
      f+3     :     0.001458
      f-3     :     0.001264
  3 H s       :     0.829092  s :     0.829092
      pz      :     0.012121  p :     0.022281
      px      :     0.006035
      py      :     0.004124
  4 H s       :     0.827225  s :     0.827225
      pz      :     0.011419  p :     0.022054
      px      :     0.006738
      py      :     0.003897
  5 H s       :     0.837641  s :     0.837641
      pz      :     0.010154  p :     0.026272
      px      :     0.007769
      py      :     0.008349
  6 H s       :     0.841454  s :     0.841454
      pz      :     0.009827  p :     0.022705
      px      :     0.006551
      py      :     0.006327


                     *******************************
                     * LOEWDIN POPULATION ANALYSIS *
                     *******************************

----------------------
LOEWDIN ATOMIC CHARGES
----------------------
   0 O :    0.069101
   1 C :   -0.304164
   2 C :   -0.258413
   3 H :    0.146959
   4 H :    0.132602
   5 H :    0.091172
   6 H :    0.122743

-------------------------------
LOEWDIN REDUCED ORBITAL CHARGES
-------------------------------
  0 O s       :     3.635728  s :     3.635728
      pz      :     1.021438  p :     4.245496
      px      :     1.812890
      py      :     1.411167
      dz2     :     0.007777  d :     0.047385
      dxz     :     0.001021
      dyz     :     0.008478
      dx2y2   :     0.013969
      dxy     :     0.016139
      f0      :     0.000212  f :     0.002290
      f+1     :     0.000017
      f-1     :     0.000310
      f+2     :     0.000335
      f-2     :     0.000060
      f+3     :     0.000783
      f-3     :     0.000574
  1 C s       :     2.833840  s :     2.833840
      pz      :     1.033094  p :     2.935438
      px      :     1.111271
      py      :     0.791074
      dz2     :     0.064727  d :     0.468499
      dxz     :     0.108006
      dyz     :     0.041781
      dx2y2   :     0.141029
      dxy     :     0.112956
      f0      :     0.006576  f :     0.066386
      f+1     :     0.005015
      f-1     :     0.006046
      f+2     :     0.008230
      f-2     :     0.001024
      f+3     :     0.018267
      f-3     :     0.021228
  2 C s       :     2.882864  s :     2.882864
      pz      :     1.073324  p :     3.058681
      px      :     1.065606
      py      :     0.919752
      dz2     :     0.037892  d :     0.285984
      dxz     :     0.112072
      dyz     :     0.008279
      dx2y2   :     0.053382
      dxy     :     0.074359
      f0      :     0.003418  f :     0.030885
      f+1     :     0.004414
      f-1     :     0.002102
      f+2     :     0.004921
      f-2     :     0.001152
      f+3     :     0.007743
      f-3     :     0.007135
  3 H s       :     0.789082  s :     0.789082
      pz      :     0.035009  p :     0.063959
      px      :     0.017177
      py      :     0.011772
  4 H s       :     0.801241  s :     0.801241
      pz      :     0.034650  p :     0.066157
      px      :     0.019483
      py      :     0.012023
  5 H s       :     0.826370  s :     0.826370
      pz      :     0.034140  p :     0.082458
      px      :     0.023320
      py      :     0.024997
  6 H s       :     0.813341  s :     0.813341
      pz      :     0.029151  p :     0.063916
      px      :     0.017289
      py      :     0.017476


                      *****************************
                      * MAYER POPULATION ANALYSIS *
                      *****************************

  NA   - Mulliken gross atomic population
  ZA   - Total nuclear charge
  QA   - Mulliken gross atomic charge
  VA   - Mayer's total valence
  BVA  - Mayer's bonded valence
  FA   - Mayer's free valence

  ATOM       NA         ZA         QA         VA         BVA        FA
  0 O      8.1720     8.0000    -0.1720     1.9023     1.0244     0.8779
  1 C      6.0676     6.0000    -0.0676     3.9913     3.9296     0.0617
  2 C      6.3316     6.0000    -0.3316     3.9218     3.1511     0.7706
  3 H      0.8514     1.0000     0.1486     0.9660     0.9330     0.0329
  4 H      0.8493     1.0000     0.1507     0.9620     0.9390     0.0230
  5 H      0.8639     1.0000     0.1361     0.9777     0.9682     0.0094
  6 H      0.8642     1.0000     0.1358     0.9749     0.9684     0.0065

  Mayer bond orders larger than 0.100000
B(  0-O ,  1-C ) :   0.9340 B(  1-C ,  2-C ) :   1.1396 B(  1-C ,  3-H ) :   0.9237 
B(  1-C ,  4-H ) :   0.9287 B(  2-C ,  5-H ) :   0.9658 B(  2-C ,  6-H ) :   0.9596 



-------
TIMINGS
-------

Total TD-DFT gradient time         ...        5.260 sec

Fock matrix formation       ....       0.830 sec  ( 15.8%)
  Coulomb formation         ....       0.675 sec  ( 81.4% of F)
  RI-J                      ....       0.286 sec  ( 34.5% of F)
  Chain of spheres X        ....       0.389 sec  ( 46.8% of F)
  XC integration            ....       0.155 sec  ( 18.6% of F)
Z-vector equation           ....       1.712 sec  ( 32.5%)
One electron gradient       ....       0.033 sec  (  0.6%)
Prescreening matrices       ....       0.153 sec  (  2.9%)
RI-J Coulomb gradient       ....       0.263 sec  (  5.0%)
COSX gradient               ....       0.348 sec  (  6.6%)
XC gradient                 ....       1.596 sec  ( 30.3%)

Maximum memory used throughout the entire SCFGRAD-calculation: 130.2 MB

                            ***************************************
                            *     ORCA property calculations      *
                            ***************************************

                                    ---------------------
                                    Active property flags
                                    ---------------------
   (+) Dipole Moment


------------------------------------------------------------------------------
                       ORCA ELECTRIC PROPERTIES CALCULATION
------------------------------------------------------------------------------

Dipole Moment Calculation                       ... on
Quadrupole Moment Calculation                   ... off
Polarizability Calculation                      ... off
GBWName                                         ... ox_es1_C_orca0009.gbw
Electron density                                ... ox_es1_C_orca0009.scfp
The origin for moment calculation is the CENTER OF MASS  = (-0.347345,  0.110607 -0.042913)

-------------
DIPOLE MOMENT
-------------
                                X             Y             Z
Electronic contribution:     -0.43862       1.43020      -0.09111
Nuclear contribution   :      0.81614      -2.65030       0.04363
                        -----------------------------------------
Total Dipole Moment    :      0.37752      -1.22010      -0.04747
                        -----------------------------------------
Magnitude (a.u.)       :      1.27806
Magnitude (Debye)      :      3.24856



--------------------
Rotational spectrum 
--------------------
 
Rotational constants in cm-1:     0.950734     0.489950     0.369825 
Rotational constants in MHz : 28502.293942 14688.331535 11087.067991 

 Dipole components along the rotational axes: 
x,y,z [a.u.] :    -1.177887    -0.495702     0.016957 
x,y,z [Debye]:    -2.993951    -1.259975     0.043102 

 

                        *** CIS RELAXED DENSITY ***

------------------------------------------------------------------------------
                       ORCA ELECTRIC PROPERTIES CALCULATION
------------------------------------------------------------------------------

Dipole Moment Calculation                       ... on
Quadrupole Moment Calculation                   ... off
Polarizability Calculation                      ... off
GBWName                                         ... ox_es1_C_orca0009.gbw
Electron density                                ... ox_es1_C_orca0009.cisp
The origin for moment calculation is the CENTER OF MASS  = (-0.347345,  0.110607 -0.042913)

-------------
DIPOLE MOMENT
-------------
                                X             Y             Z
Electronic contribution:     -1.04907       1.93127      -0.08566
Nuclear contribution   :      0.81614      -2.65030       0.04363
                        -----------------------------------------
Total Dipole Moment    :     -0.23293      -0.71903      -0.04203
                        -----------------------------------------
Magnitude (a.u.)       :      0.75698
Magnitude (Debye)      :      1.92410



--------------------
Rotational spectrum 
--------------------
 
Rotational constants in cm-1:     0.950734     0.489950     0.369825 
Rotational constants in MHz : 28502.293942 14688.331535 11087.067991 

 Dipole components along the rotational axes: 
x,y,z [a.u.] :    -0.401728    -0.641530     0.008815 
x,y,z [Debye]:    -1.021113    -1.630640     0.022407 

 

Timings for individual modules:

Sum of individual times         ...        7.751 sec (=   0.129 min)
GTO integral calculation        ...        0.258 sec (=   0.004 min)   3.3 %
SCF iterations                  ...        1.187 sec (=   0.020 min)  15.3 %
CIS module                      ...        0.878 sec (=   0.015 min)  11.3 %
SCF Gradient evaluation         ...        5.428 sec (=   0.090 min)  70.0 %
                             ****ORCA TERMINATED NORMALLY****
TOTAL RUN TIME: 0 days 0 hours 0 minutes 8 seconds 100 msec
