
                                 *****************
                                 * O   R   C   A *
                                 *****************

                                            #,                                       
                                            ###                                      
                                            ####                                     
                                            #####                                    
                                            ######                                   
                                           ########,                                 
                                     ,,################,,,,,                         
                               ,,#################################,,                 
                          ,,##########################################,,             
                       ,#########################################, ''#####,          
                    ,#############################################,,   '####,        
                  ,##################################################,,,,####,       
                ,###########''''           ''''###############################       
              ,#####''   ,,,,##########,,,,          '''####'''          '####       
            ,##' ,,,,###########################,,,                        '##       
           ' ,,###''''                  '''############,,,                           
         ,,##''                                '''############,,,,        ,,,,,,###''
      ,#''                                            '''#######################'''  
     '                                                          ''''####''''         
             ,#######,   #######,   ,#######,      ##                                
            ,#'     '#,  ##    ##  ,#'     '#,    #''#        ######   ,####,        
            ##       ##  ##   ,#'  ##            #'  '#       #        #'  '#        
            ##       ##  #######   ##           ,######,      #####,   #    #        
            '#,     ,#'  ##    ##  '#,     ,#' ,#      #,         ##   #,  ,#        
             '#######'   ##     ##  '#######'  #'      '#     #####' # '####'        



                  #######################################################
                  #                        -***-                        #
                  #          Department of theory and spectroscopy      #
                  #    Directorship and core code : Frank Neese         #
                  #        Max Planck Institute fuer Kohlenforschung    #
                  #                Kaiser Wilhelm Platz 1               #
                  #                 D-45470 Muelheim/Ruhr               #
                  #                      Germany                        #
                  #                                                     #
                  #                  All rights reserved                #
                  #                        -***-                        #
                  #######################################################


                         Program Version 5.0.2 -  RELEASE  -


 With contributions from (in alphabetic order):
   Daniel Aravena         : Magnetic Suceptibility
   Michael Atanasov       : Ab Initio Ligand Field Theory (pilot matlab implementation)
   Alexander A. Auer      : GIAO ZORA, VPT2 properties, NMR spectrum
   Ute Becker             : Parallelization
   Giovanni Bistoni       : ED, misc. LED, open-shell LED, HFLD
   Martin Brehm           : Molecular dynamics
   Dmytro Bykov           : SCF Hessian
   Vijay G. Chilkuri      : MRCI spin determinant printing, contributions to CSF-ICE
   Dipayan Datta          : RHF DLPNO-CCSD density
   Achintya Kumar Dutta   : EOM-CC, STEOM-CC
   Dmitry Ganyushin       : Spin-Orbit,Spin-Spin,Magnetic field MRCI
   Miquel Garcia          : C-PCM and meta-GGA Hessian, CC/C-PCM, Gaussian charge scheme
   Yang Guo               : DLPNO-NEVPT2, F12-NEVPT2, CIM, IAO-localization
   Andreas Hansen         : Spin unrestricted coupled pair/coupled cluster methods
   Benjamin Helmich-Paris : MC-RPA, TRAH-SCF, COSX integrals
   Lee Huntington         : MR-EOM, pCC
   Robert Izsak           : Overlap fitted RIJCOSX, COSX-SCS-MP3, EOM
   Marcus Kettner         : VPT2
   Christian Kollmar      : KDIIS, OOCD, Brueckner-CCSD(T), CCSD density, CASPT2, CASPT2-K
   Simone Kossmann        : Meta GGA functionals, TD-DFT gradient, OOMP2, MP2 Hessian
   Martin Krupicka        : Initial AUTO-CI
   Lucas Lang             : DCDCAS
   Marvin Lechner         : AUTO-CI (C++ implementation), FIC-MRCC
   Dagmar Lenk            : GEPOL surface, SMD
   Dimitrios Liakos       : Extrapolation schemes; Compound Job, initial MDCI parallelization
   Dimitrios Manganas     : Further ROCIS development; embedding schemes
   Dimitrios Pantazis     : SARC Basis sets
   Anastasios Papadopoulos: AUTO-CI, single reference methods and gradients
   Taras Petrenko         : DFT Hessian,TD-DFT gradient, ASA, ECA, R-Raman, ABS, FL, XAS/XES, NRVS
   Peter Pinski           : DLPNO-MP2, DLPNO-MP2 Gradient
   Christoph Reimann      : Effective Core Potentials
   Marius Retegan         : Local ZFS, SOC
   Christoph Riplinger    : Optimizer, TS searches, QM/MM, DLPNO-CCSD(T), (RO)-DLPNO pert. Triples
   Tobias Risthaus        : Range-separated hybrids, TD-DFT gradient, RPA, STAB
   Michael Roemelt        : Original ROCIS implementation
   Masaaki Saitow         : Open-shell DLPNO-CCSD energy and density
   Barbara Sandhoefer     : DKH picture change effects
   Avijit Sen             : IP-ROCIS
   Kantharuban Sivalingam : CASSCF convergence, NEVPT2, FIC-MRCI
   Bernardo de Souza      : ESD, SOC TD-DFT
   Georgi Stoychev        : AutoAux, RI-MP2 NMR, DLPNO-MP2 response
   Willem Van den Heuvel  : Paramagnetic NMR
   Boris Wezisla          : Elementary symmetry handling
   Frank Wennmohs         : Technical directorship


 We gratefully acknowledge several colleagues who have allowed us to
 interface, adapt or use parts of their codes:
   Stefan Grimme, W. Hujo, H. Kruse, P. Pracht,  : VdW corrections, initial TS optimization,
                  C. Bannwarth, S. Ehlert          DFT functionals, gCP, sTDA/sTD-DF
   Ed Valeev, F. Pavosevic, A. Kumar             : LibInt (2-el integral package), F12 methods
   Garnet Chan, S. Sharma, J. Yang, R. Olivares  : DMRG
   Ulf Ekstrom                                   : XCFun DFT Library
   Mihaly Kallay                                 : mrcc  (arbitrary order and MRCC methods)
   Jiri Pittner, Ondrej Demel                    : Mk-CCSD
   Frank Weinhold                                : gennbo (NPA and NBO analysis)
   Christopher J. Cramer and Donald G. Truhlar   : smd solvation model
   Lars Goerigk                                  : TD-DFT with DH, B97 family of functionals
   V. Asgeirsson, H. Jonsson                     : NEB implementation
   FAccTs GmbH                                   : IRC, NEB, NEB-TS, DLPNO-Multilevel, CI-OPT
                                                   MM, QMMM, 2- and 3-layer-ONIOM, Crystal-QMMM,
                                                   LR-CPCM, SF, NACMEs, symmetry and pop. for TD-DFT,
                                                   nearIR, NL-DFT gradient (VV10), updates on ESD,
                                                   ML-optimized integration grids
   S Lehtola, MJT Oliveira, MAL Marques          : LibXC Library
   Liviu Ungur et al                             : ANISO software


 Your calculation uses the libint2 library for the computation of 2-el integrals
 For citations please refer to: http://libint.valeyev.net

 Your ORCA version has been built with support for libXC version: 5.1.0
 For citations please refer to: https://tddft.org/programs/libxc/

 This ORCA versions uses:
   CBLAS   interface :  Fast vector & matrix operations
   LAPACKE interface :  Fast linear algebra routines
   SCALAPACK package :  Parallel linear algebra routines
   Shared memory     :  Shared parallel matrices
   BLAS/LAPACK       :  OpenBLAS 0.3.15  USE64BITINT DYNAMIC_ARCH NO_AFFINITY SkylakeX SINGLE_THREADED
        Core in use  :  SkylakeX
   Copyright (c) 2011-2014, The OpenBLAS Project


Your calculation utilizes the atom-pairwise dispersion correction
with the Becke-Johnson damping scheme (D3BJ)
Cite in your paper:
S.Grimme, S.Ehrlich, L.Goerigk, J Comput Chem, (2011), 32, 1456–1465 
S.Grimme, J.Antony, S.Ehrlich and H.Krieg, J.Chem.Phys., 132, (2010), 154104 
   

================================================================================

----- Orbital basis set information -----
Your calculation utilizes the basis: def2-TZVP
   F. Weigend and R. Ahlrichs, Phys. Chem. Chem. Phys. 7, 3297 (2005).

----- AuxJ basis set information -----
Your calculation utilizes the auxiliary basis: def2/J
   F. Weigend, Phys. Chem. Chem. Phys. 8, 1057 (2006).

================================================================================
                                        WARNINGS
                       Please study these warnings very carefully!
================================================================================

INFO   : Checking CIS options ...

WARNING: CIS/ROCIS methods need fully converged wavefunctions
  ===> : Setting SCFConvForced true
         You can overwrite this default with %scf ConvForced false 


INFO   : the flag for use of the SHARK integral package has been found!

================================================================================
                                       INPUT FILE
================================================================================
NAME = ox_es1_F_orca0004.inp
|  1> ! engrad PBE0 D3BJ def2-TZVP  
|  2> %pal nprocs 8 end
|  3> %maxcore 3000
|  4> 
|  5> %tddft
|  6>   nroots 1
|  7>   tda true
|  8>   Iroot 1
|  9>   end 
| 10> *xyz 0 1 
| 11> O   -1.1611686115647921 0.9361155672074594 0.048578628546713125
| 12> C   -0.8082091470365489 -0.47254958245719864 -0.04394864687025795
| 13> C   0.6721135361934458 -0.4221701511340821 0.07551129326535855
| 14> H   -1.2177862481124089 -0.6363002093538856 0.9808282392525411
| 15> H   -1.256060152075236 -0.6678094468200737 -0.9287103074222239
| 16> H   1.2825146353557513 -0.6021635221323692 -0.8645622830249977
| 17> H   1.2491887581831944 -0.6200831526048579 0.9681519923573036
| 18> *
| 19> 
| 20>                          ****END OF INPUT****
================================================================================

                     *******************************
                     * Energy+Gradient Calculation *
                     *******************************

---------------------------------
CARTESIAN COORDINATES (ANGSTROEM)
---------------------------------
  O     -1.161169    0.936116    0.048579
  C     -0.808209   -0.472550   -0.043949
  C      0.672114   -0.422170    0.075511
  H     -1.217786   -0.636300    0.980828
  H     -1.256060   -0.667809   -0.928710
  H      1.282515   -0.602164   -0.864562
  H      1.249189   -0.620083    0.968152

----------------------------
CARTESIAN COORDINATES (A.U.)
----------------------------
  NO LB      ZA    FRAG     MASS         X           Y           Z
   0 O     8.0000    0    15.999   -2.194291    1.769002    0.091800
   1 C     6.0000    0    12.011   -1.527294   -0.892989   -0.083051
   2 C     6.0000    0    12.011    1.270111   -0.797786    0.142696
   3 H     1.0000    0     1.008   -2.301282   -1.202433    1.853497
   4 H     1.0000    0     1.008   -2.373610   -1.261977   -1.755008
   5 H     1.0000    0     1.008    2.423601   -1.137924   -1.633786
   6 H     1.0000    0     1.008    2.360625   -1.171787    1.829542

--------------------------------
INTERNAL COORDINATES (ANGSTROEM)
--------------------------------
 O      0   0   0     0.000000000000     0.00000000     0.00000000
 C      1   0   0     1.455156068666     0.00000000     0.00000000
 C      2   1   0     1.485989236463   101.75348782     0.00000000
 H      2   1   3     1.115677075083    89.69246080   107.58322032
 H      2   1   3     1.010692897634    97.77043321   235.75404958
 H      3   2   1     1.135220438638   117.62589872   253.79258728
 H      3   2   1     1.081199697401   126.28951227    99.74725448

---------------------------
INTERNAL COORDINATES (A.U.)
---------------------------
 O      0   0   0     0.000000000000     0.00000000     0.00000000
 C      1   0   0     2.749846451893     0.00000000     0.00000000
 C      2   1   0     2.808112694869   101.75348782     0.00000000
 H      2   1   3     2.108324125802    89.69246080   107.58322032
 H      2   1   3     1.909932782028    97.77043321   235.75404958
 H      3   2   1     2.145255730656   117.62589872   253.79258728
 H      3   2   1     2.043171324167   126.28951227    99.74725448

---------------------
BASIS SET INFORMATION
---------------------
There are 3 groups of distinct atoms

 Group   1 Type O   : 11s6p2d1f contracted to 5s3p2d1f pattern {62111/411/11/1}
 Group   2 Type C   : 11s6p2d1f contracted to 5s3p2d1f pattern {62111/411/11/1}
 Group   3 Type H   : 5s1p contracted to 3s1p pattern {311/1}

Atom   0O    basis set group =>   1
Atom   1C    basis set group =>   2
Atom   2C    basis set group =>   2
Atom   3H    basis set group =>   3
Atom   4H    basis set group =>   3
Atom   5H    basis set group =>   3
Atom   6H    basis set group =>   3
---------------------------------
AUXILIARY/J BASIS SET INFORMATION
---------------------------------
There are 3 groups of distinct atoms

 Group   1 Type O   : 12s5p4d2f1g contracted to 6s4p3d1f1g pattern {711111/2111/211/2/1}
 Group   2 Type C   : 12s5p4d2f1g contracted to 6s4p3d1f1g pattern {711111/2111/211/2/1}
 Group   3 Type H   : 5s2p1d contracted to 3s1p1d pattern {311/2/1}

Atom   0O    basis set group =>   1
Atom   1C    basis set group =>   2
Atom   2C    basis set group =>   2
Atom   3H    basis set group =>   3
Atom   4H    basis set group =>   3
Atom   5H    basis set group =>   3
Atom   6H    basis set group =>   3

Checking for AutoStart:
The File: ox_es1_F_orca0004.gbw exists
Trying to determine its content:
     ... Fine, the file contains calculation information
     ... Fine, the calculation information was read
     ... Fine, the file contains a basis set
     ... Fine, the basis set was read
     ... Fine, the file contains a geometry
     ... Fine, the geometry was read
     ... Fine, the file contains a set of orbitals
     ... Fine, the orbitals can be read
     => possible old guess file was deleted
     => GBW file was renamed to GES file
     => GES file is set as startup file
     => Guess is set to MORead
     ... now leaving AutoStart



           ************************************************************
           *        Program running with 8 parallel MPI-processes     *
           *              working on a common directory               *
           ************************************************************
------------------------------------------------------------------------------
                           ORCA GTO INTEGRAL CALCULATION
                           -- RI-GTO INTEGRALS CHOSEN --
------------------------------------------------------------------------------
------------------------------------------------------------------------------
                   ___                                                        
                  /   \      - P O W E R E D   B Y -                         
                 /     \                                                     
                 |  |  |   _    _      __       _____    __    __             
                 |  |  |  | |  | |    /  \     |  _  \  |  |  /  |          
                  \  \/   | |  | |   /    \    | | | |  |  | /  /          
                 / \  \   | |__| |  /  /\  \   | |_| |  |  |/  /          
                |  |  |   |  __  | /  /__\  \  |    /   |      \           
                |  |  |   | |  | | |   __   |  |    \   |  |\   \          
                \     /   | |  | | |  |  |  |  | |\  \  |  | \   \       
                 \___/    |_|  |_| |__|  |__|  |_| \__\ |__|  \__/        
                                                                              
                      - O R C A' S   B I G   F R I E N D -                    
                                      &                                       
                       - I N T E G R A L  F E E D E R -                       
                                                                              
 v1 FN, 2020, v2 2021                                                         
------------------------------------------------------------------------------


Reading SHARK input file ox_es1_F_orca0004.SHARKINP.tmp ... ok
----------------------
SHARK INTEGRAL PACKAGE
----------------------

Number of atoms                             ...      7
Number of basis functions                   ...    117
Number of shells                            ...     49
Maximum angular momentum                    ...      3
Integral batch strategy                     ... SHARK/LIBINT Hybrid
RI-J (if used) integral strategy            ... SPLIT-RIJ (Revised 2003 algorithm where possible)
Printlevel                                  ...      1
Contraction scheme used                     ... SEGMENTED contraction
Coulomb Range Separation                    ... NOT USED
Exchange Range Separation                   ... NOT USED
Finite Nucleus Model                        ... NOT USED
Auxiliary Coulomb fitting basis             ... AVAILABLE
   # of basis functions in Aux-J            ...    191
   # of shells in Aux-J                     ...     65
   Maximum angular momentum in Aux-J        ...      4
Auxiliary J/K fitting basis                 ... NOT available
Auxiliary Correlation fitting basis         ... NOT available
Auxiliary 'external' fitting basis          ... NOT available
Integral threshold                          ...     2.500000e-11
Primitive cut-off                           ...     2.500000e-12
Primitive pair pre-selection threshold      ...     2.500000e-12

Calculating pre-screening integrals         ... done (  0.0 sec) Dimension = 49
Organizing shell pair data                  ... done (  0.0 sec)
Shell pair information
Total number of shell pairs                 ...      1225
Shell pairs after pre-screening             ...      1213
Total number of primitive shell pairs       ...      3648
Primitive shell pairs kept                  ...      3078
          la=0 lb=0:    367 shell pairs
          la=1 lb=0:    351 shell pairs
          la=1 lb=1:     91 shell pairs
          la=2 lb=0:    161 shell pairs
          la=2 lb=1:     78 shell pairs
          la=2 lb=2:     21 shell pairs
          la=3 lb=0:     81 shell pairs
          la=3 lb=1:     39 shell pairs
          la=3 lb=2:     18 shell pairs
          la=3 lb=3:      6 shell pairs

Calculating one electron integrals          ... done (  0.0 sec)
Calculating RI/J V-Matrix + Cholesky decomp.... done (  0.0 sec)
Calculating Nuclear repulsion               ... done (  0.0 sec) ENN=     67.575906461337 Eh

SHARK setup successfully completed in   0.1 seconds

Maximum memory used throughout the entire GTOINT-calculation: 14.9 MB


           ************************************************************
           *        Program running with 8 parallel MPI-processes     *
           *              working on a common directory               *
           ************************************************************
-------------------------------------------------------------------------------
                                 ORCA SCF
-------------------------------------------------------------------------------

------------
SCF SETTINGS
------------
Hamiltonian:
 Density Functional     Method          .... DFT(GTOs)
 Exchange Functional    Exchange        .... PBE
   PBE kappa parameter   XKappa         ....  0.804000
   PBE mue parameter    XMuePBE         ....  0.219520
 Correlation Functional Correlation     .... PBE
   PBE beta parameter  CBetaPBE         ....  0.066725
 LDA part of GGA corr.  LDAOpt          .... PW91-LDA
 Gradients option       PostSCFGGA      .... off
 Hybrid DFT is turned on
   Fraction HF Exchange ScalHFX         ....  0.250000
   Scaling of DF-GGA-X  ScalDFX         ....  0.750000
   Scaling of DF-GGA-C  ScalDFC         ....  1.000000
   Scaling of DF-LDA-C  ScalLDAC        ....  1.000000
   Perturbative correction              ....  0.000000
   Density functional embedding theory  .... OFF
   NL short-range parameter             ....  6.900000
 RI-approximation to the Coulomb term is turned on
   Number of AuxJ basis functions       .... 191
   RIJ-COSX (HFX calculated with COS-X)).... on


General Settings:
 Integral files         IntName         .... ox_es1_F_orca0004
 Hartree-Fock type      HFTyp           .... RHF
 Total Charge           Charge          ....    0
 Multiplicity           Mult            ....    1
 Number of Electrons    NEL             ....   24
 Basis Dimension        Dim             ....  117
 Nuclear Repulsion      ENuc            ....     67.5759064613 Eh

Convergence Acceleration:
 DIIS                   CNVDIIS         .... on
   Start iteration      DIISMaxIt       ....    12
   Startup error        DIISStart       ....  0.200000
   # of expansion vecs  DIISMaxEq       ....     5
   Bias factor          DIISBfac        ....   1.050
   Max. coefficient     DIISMaxC        ....  10.000
 Trust-Rad. Augm. Hess. CNVTRAH         .... auto
   Auto Start mean grad. ratio tolernc. ....  1.125000
   Auto Start start iteration           ....     1
   Auto Start num. interpolation iter.  ....    10
   Max. Number of Micro iterations      ....    16
   Max. Number of Macro iterations      .... Maxiter - #DIIS iter
   Number of Davidson start vectors     ....     2
   Converg. threshold I  (grad. norm)   ....   1.000e-05
   Converg. threshold II (energy diff.) ....   1.000e-08
   Grad. Scal. Fac. for Micro threshold ....   0.100
   Minimum threshold for Micro iter.    ....   0.010
   NR start threshold (gradient norm)   ....   0.001
   Initial trust radius                 ....   0.400
   Minimum AH scaling param. (alpha)    ....   1.000
   Maximum AH scaling param. (alpha)    .... 1000.000
   Orbital update algorithm             .... Taylor
   White noise on init. David. guess    .... on
   Maximum white noise                  ....   0.010
   Quad. conv. algorithm                .... NR
 SOSCF                  CNVSOSCF        .... on
   Start iteration      SOSCFMaxIt      ....   150
   Startup grad/error   SOSCFStart      ....  0.003300
 Level Shifting         CNVShift        .... on
   Level shift para.    LevelShift      ....    0.2500
   Turn off err/grad.   ShiftErr        ....    0.0010
 Zerner damping         CNVZerner       .... off
 Static damping         CNVDamp         .... on
   Fraction old density DampFac         ....    0.7000
   Max. Damping (<1)    DampMax         ....    0.9800
   Min. Damping (>=0)   DampMin         ....    0.0000
   Turn off err/grad.   DampErr         ....    0.1000
 Fernandez-Rico         CNVRico         .... off

SCF Procedure:
 Maximum # iterations   MaxIter         ....   125
 SCF integral mode      SCFMode         .... Direct
   Integral package                     .... SHARK and LIBINT hybrid scheme
 Reset frequency        DirectResetFreq ....    20
 Integral Threshold     Thresh          ....  2.500e-11 Eh
 Primitive CutOff       TCut            ....  2.500e-12 Eh

Convergence Tolerance:
 Convergence Check Mode ConvCheckMode   .... Total+1el-Energy
 Convergence forced     ConvForced      .... 1
 Energy Change          TolE            ....  1.000e-08 Eh
 1-El. energy change                    ....  1.000e-05 Eh
 Orbital Gradient       TolG            ....  1.000e-05
 Orbital Rotation angle TolX            ....  1.000e-05
 DIIS Error             TolErr          ....  5.000e-07


Diagonalization of the overlap matrix:
Smallest eigenvalue                        ... 5.525e-04
Time for diagonalization                   ...    0.001 sec
Threshold for overlap eigenvalues          ... 1.000e-08
Number of eigenvalues below threshold      ... 0
Time for construction of square roots      ...    0.001 sec
Total time needed                          ...    0.003 sec

---------------------
INITIAL GUESS: MOREAD
---------------------
Guess MOs are being read from file: ox_es1_F_orca0004.ges
Input Geometry matches current geometry (good)
Input basis set matches current basis set (good)
MOs were renormalized
MOs were reorthogonalized (Cholesky)
                      ------------------
                      INITIAL GUESS DONE (   0.0 sec)
                      ------------------
-------------------
DFT GRID GENERATION
-------------------

General Integration Accuracy     IntAcc      ... 4.388
Radial Grid Type                 RadialGrid  ... OptM3 with GC (2021)
Angular Grid (max. ang.)         AngularGrid ... 4 (Lebedev-302)
Angular grid pruning method      GridPruning ... 4 (adaptive)
Weight generation scheme         WeightScheme... Becke
Basis function cutoff            BFCut       ... 1.0000e-11
Integration weight cutoff        WCut        ... 1.0000e-14
Angular grids for H and He will be reduced by one unit
Partially contracted basis set               ... off
Rotationally invariant grid construction     ... off

Total number of grid points                  ...    31341
Total number of batches                      ...      493
Average number of points per batch           ...       63
Average number of grid points per atom       ...     4477
Time for grid setup =    0.118 sec

--------------------
COSX GRID GENERATION
--------------------

GRIDX 1
-------
General Integration Accuracy     IntAcc      ... 3.816
Radial Grid Type                 RadialGrid  ... OptM3 with GC (2021)
Angular Grid (max. ang.)         AngularGrid ... 1 (Lebedev-50)
Angular grid pruning method      GridPruning ... 4 (adaptive)
Weight generation scheme         WeightScheme... Becke
Basis function cutoff            BFCut       ... 1.0000e-11
Integration weight cutoff        WCut        ... 1.0000e-14
Angular grids for H and He will be reduced by one unit
Partially contracted basis set               ... on
Rotationally invariant grid construction     ... off

Total number of grid points                  ...     4042
Total number of batches                      ...       67
Average number of points per batch           ...       60
Average number of grid points per atom       ...      577
UseSFitting                                  ... on

GRIDX 2
-------
General Integration Accuracy     IntAcc      ... 4.020
Radial Grid Type                 RadialGrid  ... OptM3 with GC (2021)
Angular Grid (max. ang.)         AngularGrid ... 2 (Lebedev-110)
Angular grid pruning method      GridPruning ... 4 (adaptive)
Weight generation scheme         WeightScheme... Becke
Basis function cutoff            BFCut       ... 1.0000e-11
Integration weight cutoff        WCut        ... 1.0000e-14
Angular grids for H and He will be reduced by one unit
Partially contracted basis set               ... on
Rotationally invariant grid construction     ... off

Total number of grid points                  ...     8740
Total number of batches                      ...      140
Average number of points per batch           ...       62
Average number of grid points per atom       ...     1249
UseSFitting                                  ... on

GRIDX 3
-------
General Integration Accuracy     IntAcc      ... 4.338
Radial Grid Type                 RadialGrid  ... OptM3 with GC (2021)
Angular Grid (max. ang.)         AngularGrid ... 3 (Lebedev-194)
Angular grid pruning method      GridPruning ... 4 (adaptive)
Weight generation scheme         WeightScheme... Becke
Basis function cutoff            BFCut       ... 1.0000e-11
Integration weight cutoff        WCut        ... 1.0000e-14
Angular grids for H and He will be reduced by one unit
Partially contracted basis set               ... on
Rotationally invariant grid construction     ... off

Total number of grid points                  ...    19274
Total number of batches                      ...      305
Average number of points per batch           ...       63
Average number of grid points per atom       ...     2753
UseSFitting                                  ... on

Time for X-Grid setup             =    0.073 sec

--------------
SCF ITERATIONS
--------------
ITER       Energy         Delta-E        Max-DP      RMS-DP      [F,P]     Damp
               ***  Starting incremental Fock matrix formation  ***
                      *** Initiating the SOSCF procedure ***
                      *** Re-Reading the Fockian *** 
                      *** Removing any level shift *** 
ITER      Energy       Delta-E        Grad      Rot      Max-DP    RMS-DP
  0   -153.51881704 -153.5188170372  0.000001  0.000001  0.000002  0.000000
               *** Restarting incremental Fock matrix formation ***
                  ***Gradient check signals convergence***
              ***Rediagonalizing the Fockian in SOSCF/NRSCF***

               *****************************************************
               *                     SUCCESS                       *
               *           SCF CONVERGED AFTER   1 CYCLES          *
               *****************************************************

Old exchange energy                            =     -4.951131108 Eh
New exchange energy                            =     -4.951140171 Eh
Exchange energy change after final integration =     -0.000009063 Eh
Total energy after final integration           =   -153.518826100 Eh
Final COS-X integration done in                =     0.245 sec

----------------
TOTAL SCF ENERGY
----------------

Total Energy       :         -153.51882610 Eh           -4177.45964 eV

Components:
Nuclear Repulsion  :           67.57590646 Eh            1838.83390 eV
Electronic Energy  :         -221.09473256 Eh           -6016.29354 eV
One Electron Energy:         -342.00743975 Eh           -9306.49557 eV
Two Electron Energy:          120.91270719 Eh            3290.20203 eV
Max COSX asymmetry :            0.00000319 Eh               0.00009 eV

Virial components:
Potential Energy   :         -306.27768423 Eh           -8334.23949 eV
Kinetic Energy     :          152.75885812 Eh            4156.77986 eV
Virial Ratio       :            2.00497495


DFT components:
N(Alpha)           :       12.000001252256 electrons
N(Beta)            :       12.000001252256 electrons
N(Total)           :       24.000002504513 electrons
E(X)               :      -14.872073857589 Eh       
E(C)               :       -0.769591301674 Eh       
E(XC)              :      -15.641665159263 Eh       
DFET-embed. en.    :        0.000000000000 Eh       

---------------
SCF CONVERGENCE
---------------

  Last Energy change         ...   -1.2091e-10  Tolerance :   1.0000e-08
  Last MAX-Density change    ...    4.4409e-16  Tolerance :   1.0000e-07
  Last RMS-Density change    ...    1.7368e-17  Tolerance :   5.0000e-09
  Last Orbital Gradient      ...    5.8809e-07  Tolerance :   1.0000e-05
  Last Orbital Rotation      ...    5.0783e-06  Tolerance :   1.0000e-05

             **** THE GBW FILE WAS UPDATED (ox_es1_F_orca0004.gbw) ****
             **** DENSITY ox_es1_F_orca0004.scfp WAS UPDATED ****
             **** ENERGY FILE WAS UPDATED (ox_es1_F_orca0004.en.tmp) ****
             **** THE GBW FILE WAS UPDATED (ox_es1_F_orca0004.gbw) ****
             **** DENSITY ox_es1_F_orca0004.scfp WAS UPDATED ****
----------------
ORBITAL ENERGIES
----------------

  NO   OCC          E(Eh)            E(eV) 
   0   2.0000     -19.190573      -522.2021 
   1   2.0000     -10.329108      -281.0693 
   2   2.0000     -10.268840      -279.4294 
   3   2.0000      -0.979925       -26.6651 
   4   2.0000      -0.771733       -20.9999 
   5   2.0000      -0.630905       -17.1678 
   6   2.0000      -0.525631       -14.3032 
   7   2.0000      -0.480162       -13.0659 
   8   2.0000      -0.426166       -11.5966 
   9   2.0000      -0.387868       -10.5544 
  10   2.0000      -0.266074        -7.2402 
  11   2.0000      -0.247871        -6.7449 
  12   0.0000      -0.150268        -4.0890 
  13   0.0000       0.046753         1.2722 
  14   0.0000       0.079205         2.1553 
  15   0.0000       0.084548         2.3007 
  16   0.0000       0.122832         3.3424 
  17   0.0000       0.143712         3.9106 
  18   0.0000       0.189952         5.1689 
  19   0.0000       0.193956         5.2778 
  20   0.0000       0.227268         6.1843 
  21   0.0000       0.246459         6.7065 
  22   0.0000       0.253219         6.8904 
  23   0.0000       0.330598         8.9960 
  24   0.0000       0.353464         9.6182 
  25   0.0000       0.393030        10.6949 
  26   0.0000       0.407628        11.0921 
  27   0.0000       0.430725        11.7206 
  28   0.0000       0.439910        11.9705 
  29   0.0000       0.471543        12.8313 
  30   0.0000       0.499585        13.5944 
  31   0.0000       0.567331        15.4379 
  32   0.0000       0.570667        15.5286 
  33   0.0000       0.586316        15.9545 
  34   0.0000       0.674493        18.3539 
  35   0.0000       0.725591        19.7443 
  36   0.0000       0.782016        21.2797 
  37   0.0000       0.831690        22.6314 
  38   0.0000       0.890154        24.2223 
  39   0.0000       0.913206        24.8496 
  40   0.0000       0.927348        25.2344 
  41   0.0000       1.031384        28.0654 
  42   0.0000       1.051929        28.6245 
  43   0.0000       1.084434        29.5089 
  44   0.0000       1.186117        32.2759 
  45   0.0000       1.329710        36.1832 
  46   0.0000       1.400617        38.1127 
  47   0.0000       1.444295        39.3013 
  48   0.0000       1.510424        41.1007 
  49   0.0000       1.524725        41.4899 
  50   0.0000       1.567884        42.6643 
  51   0.0000       1.581432        43.0330 
  52   0.0000       1.630720        44.3742 
  53   0.0000       1.687147        45.9096 
  54   0.0000       1.739479        47.3336 
  55   0.0000       1.778317        48.3905 
  56   0.0000       1.809822        49.2478 
  57   0.0000       1.830132        49.8004 
  58   0.0000       1.854972        50.4763 
  59   0.0000       1.877187        51.0809 
  60   0.0000       1.995850        54.3098 
  61   0.0000       2.089246        56.8513 
  62   0.0000       2.157099        58.6976 
  63   0.0000       2.171076        59.0780 
  64   0.0000       2.308293        62.8118 
  65   0.0000       2.338868        63.6438 
  66   0.0000       2.403748        65.4093 
  67   0.0000       2.426793        66.0364 
  68   0.0000       2.475056        67.3497 
  69   0.0000       2.525939        68.7343 
  70   0.0000       2.546396        69.2910 
  71   0.0000       2.603918        70.8562 
  72   0.0000       2.638684        71.8023 
  73   0.0000       2.700456        73.4831 
  74   0.0000       2.746357        74.7322 
  75   0.0000       2.815959        76.6261 
  76   0.0000       2.871045        78.1251 
  77   0.0000       2.971426        80.8566 
  78   0.0000       2.979923        81.0878 
  79   0.0000       3.000203        81.6397 
  80   0.0000       3.046120        82.8891 
  81   0.0000       3.063441        83.3605 
  82   0.0000       3.103868        84.4605 
  83   0.0000       3.127612        85.1067 
  84   0.0000       3.184280        86.6487 
  85   0.0000       3.234014        88.0020 
  86   0.0000       3.322204        90.4018 
  87   0.0000       3.387033        92.1659 
  88   0.0000       3.399874        92.5153 
  89   0.0000       3.472706        94.4971 
  90   0.0000       3.524005        95.8930 
  91   0.0000       3.660769        99.6146 
  92   0.0000       3.677595       100.0724 
  93   0.0000       3.819477       103.9332 
  94   0.0000       3.912132       106.4545 
  95   0.0000       4.054078       110.3171 
  96   0.0000       4.120811       112.1330 
  97   0.0000       4.265770       116.0775 
  98   0.0000       4.411274       120.0369 
  99   0.0000       4.555360       123.9576 
 100   0.0000       4.577443       124.5585 
 101   0.0000       4.710671       128.1839 
 102   0.0000       5.203285       141.5886 
 103   0.0000       5.238778       142.5544 
 104   0.0000       5.375376       146.2714 
 105   0.0000       5.382668       146.4698 
 106   0.0000       5.707274       155.3028 
 107   0.0000       5.747801       156.4056 
 108   0.0000       5.905794       160.7048 
 109   0.0000       6.366126       173.2311 
 110   0.0000       6.379513       173.5954 
 111   0.0000       6.761123       183.9795 
 112   0.0000       6.807570       185.2434 
 113   0.0000       6.975114       189.8025 
 114   0.0000      21.990658       598.3962 
 115   0.0000      22.421092       610.1089 
 116   0.0000      43.774214      1191.1569 

                    ********************************
                    * MULLIKEN POPULATION ANALYSIS *
                    ********************************

-----------------------
MULLIKEN ATOMIC CHARGES
-----------------------
   0 O :   -0.408250
   1 C :   -0.059179
   2 C :   -0.125942
   3 H :    0.130097
   4 H :    0.130536
   5 H :    0.157393
   6 H :    0.175344
Sum of atomic charges:   -0.0000000

--------------------------------
MULLIKEN REDUCED ORBITAL CHARGES
--------------------------------
  0 O s       :     3.915064  s :     3.915064
      pz      :     1.924864  p :     4.470643
      px      :     1.201544
      py      :     1.344235
      dz2     :     0.002901  d :     0.021427
      dxz     :     0.000244
      dyz     :     0.004920
      dx2y2   :     0.007952
      dxy     :     0.005411
      f0      :     0.000129  f :     0.001115
      f+1     :     0.000061
      f-1     :     0.000246
      f+2     :     0.000140
      f-2     :     0.000036
      f+3     :     0.000258
      f-3     :     0.000245
  1 C s       :     3.197733  s :     3.197733
      pz      :     1.062617  p :     2.699525
      px      :     0.878373
      py      :     0.758534
      dz2     :     0.017269  d :     0.152735
      dxz     :     0.015629
      dyz     :     0.043597
      dx2y2   :     0.021792
      dxy     :     0.054447
      f0      :     0.002008  f :     0.009186
      f+1     :     0.001176
      f-1     :     0.000595
      f+2     :     0.002221
      f-2     :     0.000467
      f+3     :     0.002369
      f-3     :     0.000350
  2 C s       :     3.312127  s :     3.312127
      pz      :     1.058037  p :     2.762064
      px      :     1.009964
      py      :     0.694062
      dz2     :     0.004006  d :     0.047463
      dxz     :     0.025666
      dyz     :     0.002734
      dx2y2   :     0.004662
      dxy     :     0.010394
      f0      :     0.000407  f :     0.004289
      f+1     :     0.001101
      f-1     :     0.000060
      f+2     :     0.000776
      f-2     :     0.000164
      f+3     :     0.000683
      f-3     :     0.001098
  3 H s       :     0.847706  s :     0.847706
      pz      :     0.011731  p :     0.022196
      px      :     0.004834
      py      :     0.005631
  4 H s       :     0.845177  s :     0.845177
      pz      :     0.011636  p :     0.024287
      px      :     0.006626
      py      :     0.006025
  5 H s       :     0.821617  s :     0.821617
      pz      :     0.010526  p :     0.020990
      px      :     0.006924
      py      :     0.003540
  6 H s       :     0.801751  s :     0.801751
      pz      :     0.011069  p :     0.022905
      px      :     0.007577
      py      :     0.004260


                     *******************************
                     * LOEWDIN POPULATION ANALYSIS *
                     *******************************

----------------------
LOEWDIN ATOMIC CHARGES
----------------------
   0 O :   -0.104884
   1 C :   -0.419440
   2 C :    0.009117
   3 H :    0.144339
   4 H :    0.103222
   5 H :    0.140278
   6 H :    0.127368

-------------------------------
LOEWDIN REDUCED ORBITAL CHARGES
-------------------------------
  0 O s       :     3.595344  s :     3.595344
      pz      :     1.855135  p :     4.456549
      px      :     1.161423
      py      :     1.439991
      dz2     :     0.006095  d :     0.049829
      dxz     :     0.000470
      dyz     :     0.013605
      dx2y2   :     0.017251
      dxy     :     0.012408
      f0      :     0.000337  f :     0.003163
      f+1     :     0.000096
      f-1     :     0.000488
      f+2     :     0.000569
      f-2     :     0.000105
      f+3     :     0.000780
      f-3     :     0.000787
  1 C s       :     2.831816  s :     2.831816
      pz      :     1.060126  p :     2.958709
      px      :     1.030491
      py      :     0.868092
      dz2     :     0.086238  d :     0.564733
      dxz     :     0.080739
      dyz     :     0.111826
      dx2y2   :     0.120291
      dxy     :     0.165639
      f0      :     0.012136  f :     0.064181
      f+1     :     0.006486
      f-1     :     0.006312
      f+2     :     0.011781
      f-2     :     0.003467
      f+3     :     0.018233
      f-3     :     0.005767
  2 C s       :     2.935502  s :     2.935502
      pz      :     1.082031  p :     2.821434
      px      :     1.107131
      py      :     0.632273
      dz2     :     0.025711  d :     0.212934
      dxz     :     0.113588
      dyz     :     0.006378
      dx2y2   :     0.032651
      dxy     :     0.034607
      f0      :     0.002751  f :     0.021012
      f+1     :     0.003344
      f-1     :     0.000689
      f+2     :     0.004200
      f-2     :     0.001214
      f+3     :     0.003833
      f-3     :     0.004980
  3 H s       :     0.795858  s :     0.795858
      pz      :     0.032012  p :     0.059804
      px      :     0.013319
      py      :     0.014472
  4 H s       :     0.821235  s :     0.821235
      pz      :     0.037086  p :     0.075542
      px      :     0.020480
      py      :     0.017977
  5 H s       :     0.800650  s :     0.800650
      pz      :     0.031156  p :     0.059072
      px      :     0.018499
      py      :     0.009417
  6 H s       :     0.804338  s :     0.804338
      pz      :     0.034823  p :     0.068294
      px      :     0.021473
      py      :     0.011998


                      *****************************
                      * MAYER POPULATION ANALYSIS *
                      *****************************

  NA   - Mulliken gross atomic population
  ZA   - Total nuclear charge
  QA   - Mulliken gross atomic charge
  VA   - Mayer's total valence
  BVA  - Mayer's bonded valence
  FA   - Mayer's free valence

  ATOM       NA         ZA         QA         VA         BVA        FA
  0 O      8.4082     8.0000    -0.4082     1.7498     1.7498     0.0000
  1 C      6.0592     6.0000    -0.0592     4.0343     4.0343     0.0000
  2 C      6.1259     6.0000    -0.1259     3.7360     3.7360    -0.0000
  3 H      0.8699     1.0000     0.1301     0.9822     0.9822     0.0000
  4 H      0.8695     1.0000     0.1305     0.9758     0.9758     0.0000
  5 H      0.8426     1.0000     0.1574     0.9620     0.9620     0.0000
  6 H      0.8247     1.0000     0.1753     0.9539     0.9539    -0.0000

  Mayer bond orders larger than 0.100000
B(  0-O ,  1-C ) :   0.9755 B(  0-O ,  2-C ) :   0.7785 B(  1-C ,  2-C ) :   1.0842 
B(  1-C ,  3-H ) :   0.9849 B(  1-C ,  4-H ) :   0.9739 B(  2-C ,  5-H ) :   0.9450 
B(  2-C ,  6-H ) :   0.9388 

-------
TIMINGS
-------

Total SCF time: 0 days 0 hours 0 min 0 sec 

Total time                  ....       0.961 sec
Sum of individual times     ....       0.882 sec  ( 91.8%)

Fock matrix formation       ....       0.679 sec  ( 70.7%)
  Split-RI-J                ....       0.113 sec  ( 16.6% of F)
  Chain of spheres X        ....       0.497 sec  ( 73.2% of F)
  XC integration            ....       0.060 sec  (  8.9% of F)
    Basis function eval.    ....       0.018 sec  ( 29.0% of XC)
    Density eval.           ....       0.013 sec  ( 22.0% of XC)
    XC-Functional eval.     ....       0.004 sec  (  6.0% of XC)
    XC-Potential eval.      ....       0.019 sec  ( 32.2% of XC)
Diagonalization             ....       0.002 sec  (  0.2%)
Density matrix formation    ....       0.000 sec  (  0.0%)
Population analysis         ....       0.003 sec  (  0.3%)
Initial guess               ....       0.003 sec  (  0.4%)
Orbital Transformation      ....       0.000 sec  (  0.0%)
Orbital Orthonormalization  ....       0.001 sec  (  0.1%)
DIIS solution               ....       0.001 sec  (  0.1%)
SOSCF solution              ....       0.002 sec  (  0.2%)
Grid generation             ....       0.191 sec  ( 19.9%)

Maximum memory used throughout the entire SCF-calculation: 61.1 MB


           ************************************************************
           *        Program running with 8 parallel MPI-processes     *
           *              working on a common directory               *
           ************************************************************
------------------------------------------------------------------------------
                        ORCA TD-DFT/TDA CALCULATION
------------------------------------------------------------------------------

Input orbitals are from        ... ox_es1_F_orca0004.gbw
CI-vector output               ... ox_es1_F_orca0004.cis
Tamm-Dancoff approximation     ... operative
CIS-Integral strategy          ... AO-integrals
Integral handling              ... AO integral Direct
Max. core memory used          ... 3000 MB
Reference state                ... RHF
Generation of triplets         ... off
Follow IRoot                   ... off
Number of operators            ... 1
Orbital ranges used for CIS calculation:
 Operator 0:  Orbitals   3... 11  to  12...116
XAS localization array:
 Operator 0:  Orbitals  -1... -1

-------------------
XC-INTEGRATION GRID
-------------------

General Integration Accuracy     IntAcc      ... 3.467
Radial Grid Type                 RadialGrid  ... OptM3 with GC (2021)
Angular Grid (max. ang.)         AngularGrid ... 1 (Lebedev-50)
Angular grid pruning method      GridPruning ... 4 (adaptive)
Weight generation scheme         WeightScheme... Becke
Basis function cutoff            BFCut       ... 1.0000e-11
Integration weight cutoff        WCut        ... 1.0000e-14
Angular grids for H and He will be reduced by one unit
Partially contracted basis set               ... off
Rotationally invariant grid construction     ... off

Total number of grid points                  ...     4550
Total number of batches                      ...       75
Average number of points per batch           ...       60
Average number of grid points per atom       ...      650

---------------------
COSX-INTEGRATION GRID
---------------------

General Integration Accuracy     IntAcc      ... 3.067
Radial Grid Type                 RadialGrid  ... OptM3 with GC (2021)
Angular Grid (max. ang.)         AngularGrid ... 1 (Lebedev-50)
Angular grid pruning method      GridPruning ... 4 (adaptive)
Weight generation scheme         WeightScheme... Becke
Basis function cutoff            BFCut       ... 1.0000e-11
Integration weight cutoff        WCut        ... 1.0000e-14
Angular grids for H and He will be reduced by one unit
Partially contracted basis set               ... on
Rotationally invariant grid construction     ... off

Total number of grid points                  ...     2088
Total number of batches                      ...       37
Average number of points per batch           ...       56
Average number of grid points per atom       ...      298

---------------
TD-DFT XC SETUP
---------------

DFT calculation                         ... on
Name of the grid file                   ... ox_es1_F_orca0004.grid_cis.tmp
Exchange functional (TD-DFT)            ... PBE
   PBE kappa parameter  XKappa (TD-DFT) ...  0.804000
   PBE mue parameter   XMuePBE (TD-DFT) ...  0.219520
Correlation functional (TD-DFT)         ... PBE
   PBE beta parameter CBetaPBE (TD-DFT) ...  0.066725
 LDA part of GGA corr.  LDAOpt (TD-DFT) ... PW91-LDA
Hybrid DFT                              ... on
   Exchange mixing (TD-DFT)             ...  0.250
   GGA exch. scaling (TD-DFT)           ...  0.750
   GGA corr. scaling (TD-DFT)           ...  1.000

Building densities             ... done
Calculating rho(r) on the grid ... done
Building xc-kernel on the grid ... done
                    *** TD-DFT CALCULATION INITIALIZED ***

------------------------
DAVIDSON-DIAGONALIZATION
------------------------

Dimension of the eigenvalue problem            ...    945
Number of roots to be determined               ...      1
Maximum size of the expansion space            ...     10
Maximum number of iterations                   ...    100
Convergence tolerance for the residual         ...    2.500e-07
Convergence tolerance for the energies         ...    2.500e-07
Orthogonality tolerance                        ...    1.000e-14
Level Shift                                    ...    0.000e+00
Constructing the preconditioner                ... o.k.
Building the initial guess                     ... o.k.
Number of trial vectors determined             ...     10


                       ****Iteration    0****

   Memory handling for direct AO based CIS:
   Memory per vector needed      ...     1 MB
   Memory needed                 ...     1 MB
   Memory available              ...  3000 MB
   Number of vectors per batch   ...  3000
   Number of batches             ...     1
   Time for densities:            0.001
   Time for RI-J (Direct):        0.015
   Time for K (COSX):             0.054
   Time for XC-Integration:       0.015
   Time for Sigma-Completion:     0.000
   Size of expansion space: 3
   Lowest Energy          :     0.018935547195
   Maximum Energy change  :     0.018935547195 (vector 0)
   Maximum residual norm  :     0.002633241310

                       ****Iteration    1****
   Time for densities:            0.000
   Time for RI-J (Direct):        0.012
   Time for K (COSX):             0.048
   Time for XC-Integration:       0.006
   Time for Sigma-Completion:     0.000
   Size of expansion space: 4
   Lowest Energy          :     0.017176725084
   Maximum Energy change  :     0.001758822111 (vector 0)
   Maximum residual norm  :     0.000068889034

                       ****Iteration    2****
   Time for densities:            0.000
   Time for RI-J (Direct):        0.012
   Time for K (COSX):             0.048
   Time for XC-Integration:       0.006
   Time for Sigma-Completion:     0.000
   Size of expansion space: 5
   Lowest Energy          :     0.017123447796
   Maximum Energy change  :     0.000053277288 (vector 0)
   Maximum residual norm  :     0.000004214341

                       ****Iteration    3****
   Time for densities:            0.000
   Time for RI-J (Direct):        0.012
   Time for K (COSX):             0.048
   Time for XC-Integration:       0.006
   Time for Sigma-Completion:     0.000
   Size of expansion space: 6
   Lowest Energy          :     0.017120555390
   Maximum Energy change  :     0.000002892405 (vector 0)
   Maximum residual norm  :     0.000000126782

      *** CONVERGENCE OF RESIDUAL NORM REACHED ***

Storing the converged CI vectors               ... ox_es1_F_orca0004.cis1

                 *** DAVIDSON DONE ***

Total time for solving the CIS problem:     0.285sec

------------------------------------
TD-DFT/TDA EXCITED STATES (SINGLETS)
------------------------------------

the weight of the individual excitations are printed if larger than 1.0e-02

STATE  1:  E=   0.017121 au      0.466 eV     3757.5 cm**-1 <S**2> =   0.000000
    10a ->  12a  :     0.050451 (c= -0.22461321)
    11a ->  12a  :     0.946255 (c= -0.97275634)


-----------------------------
TD-DFT/TDA-EXCITATION SPECTRA
-----------------------------

Center of mass = ( -0.8645,  0.0722,  0.0563)
Calculating the Dipole integrals                  ... done
Transforming integrals                            ... done
Calculating the Linear Momentum integrals         ... done
Transforming integrals                            ... done
Calculating angular momentum integrals            ... done
Transforming integrals                            ... done

-----------------------------------------------------------------------------
         ABSORPTION SPECTRUM VIA TRANSITION ELECTRIC DIPOLE MOMENTS
-----------------------------------------------------------------------------
State   Energy    Wavelength  fosc         T2        TX        TY        TZ  
        (cm-1)      (nm)                 (au**2)    (au)      (au)      (au) 
-----------------------------------------------------------------------------
   1    3757.5   2661.3   0.000036571   0.00320   0.02937  -0.02760  -0.03975

-----------------------------------------------------------------------------
         ABSORPTION SPECTRUM VIA TRANSITION VELOCITY DIPOLE MOMENTS
-----------------------------------------------------------------------------
State   Energy    Wavelength   fosc        P2         PX        PY        PZ  
        (cm-1)      (nm)                 (au**2)     (au)      (au)      (au) 
-----------------------------------------------------------------------------
   1    3757.5   2661.3   0.036369624   0.00093   0.00808  -0.01901   0.02252

-------------------------------------------------------------------
                             CD SPECTRUM
-------------------------------------------------------------------
State  Energy     Wavelength     R         MX        MY        MZ   
       (cm-1)       (nm)     (1e40*cgs)   (au)      (au)      (au)  
-------------------------------------------------------------------
   1    3757.5   2661.3     -4.78413   0.00754   0.30219   0.05105

-------------------------------------------------------------------
         CD SPECTRUM VIA TRANSITION VELOCITY DIPOLE MOMENTS        
-------------------------------------------------------------------
State  Energy     Wavelength     R         MX        MY        MZ   
       (cm-1)       (nm)     (1e40*cgs)   (au)      (au)      (au)  
-------------------------------------------------------------------
   1    3757.5   2661.3    -124.85128   0.00754   0.30219   0.05105

Total run time:        0.528 sec

           *** ORCA-CIS/TD-DFT FINISHED WITHOUT ERROR ***

Maximum memory used throughout the entire CIS-calculation: 49.4 MB

-----------------------
CIS/TD-DFT TOTAL ENERGY
-----------------------

    E(SCF)  =   -153.518826100 Eh
    DE(CIS) =      0.017120555 Eh (Root  1)
    ----------------------------- ---------
    E(tot)  =   -153.501705545 Eh



-------------------------------------------------------------------------------
                          DFT DISPERSION CORRECTION                            
                                                                               
                              DFTD3 V3.1  Rev 1                                
                          USING Becke-Johnson damping                          
-------------------------------------------------------------------------------
The PBE0 functional is recognized
Active option DFTDOPT                   ...         4   

molecular C6(AA) [au] = 394.887216 


            DFT-D V3
 parameters
 s6 scaling factor         :     1.0000 
 a1 scaling factor         :     0.4145 
 s8 scaling factor         :     1.2177 
 a2 scaling factor         :     4.8593 
 ad hoc parameters k1-k3   :    16.0000     1.3333    -4.0000 

 Edisp/kcal,au: -1.641526113298  -0.002615938095 
 E6   /kcal   :  -1.071043576 
 E8   /kcal   :  -0.570482537 
 % E8         :  34.753180749 

-------------------------   ----------------
Dispersion correction           -0.002615938
-------------------------   ----------------


-------------------------   --------------------
FINAL SINGLE POINT ENERGY      -153.504321482945
-------------------------   --------------------



           ************************************************************
           *        Program running with 8 parallel MPI-processes     *
           *              working on a common directory               *
           ************************************************************
------------------------------------------------------------------------------
                         ORCA SCF GRADIENT CALCULATION
------------------------------------------------------------------------------


------------------------
TD-DFT GRADIENT XC SETUP
------------------------

Building densities                     ... done
Calculating rho(r) on the grid         ... done
Building xc-kernel on the grid         ... done
Building xc 3rd derivative on the grid      ... done
                *** TD-DFT GRADIENT CALCULATION INITIALIZED ***

-------------------
TD-DFT/TDA GRADIENT
-------------------

Reference wavefunction             ... RHF
State of interest                  ... 1
Basis dimension                    ... 117
DFT-XC contribution needed         ... YES
RI-approximation                   ... ON
CIS-vectors being read from        ... ox_es1_F_orca0004.cis

 => Number of Vectors found: 1
 => Orbital Window: 3...11 -> 12...116

Reading the CIS file                     ... done
Norm of the CI vector                    ... 1.000000000
Making the CIS (pseudo)densities         ... done
Making operators G(D) and Q(T)           ... done
Transforming the Fock operators          ... done
Making the frozen-core relaxed density   ... done
Constructing the G(H) operator           ... done
Transforming the G(H) operator           ... done
Calculating the CIS Lagrangian           ... done
Solving the Z-vector equations           ... done
Finalizing the relaxed density           ... done
Storing the relaxed density              ... done
Constructing the G(Z) operator           ... done
Transforming the G(Z) operator           ... done
Making the W-matrix                      ... done
Finalizing the W-matrix                  ... done
Transforming the W-matrix                ... done
Nuclear repulsion gradient               ... done
One-Electron gradient                    ... done
Dispersion correction                    ... done
Prescreening matrices                    ... done
COSX-gradient                            ... done
Coulomb gradient (RI)                    ... done
Exchange-Correlation gradient            ... done

                 ---------------------------
                 EXCITED STATE GRADIENT DONE
                 ---------------------------

------------------
CARTESIAN GRADIENT
------------------

   1   O   :   -0.003659692    0.010213832   -0.001342508
   2   C   :   -0.061486463   -0.098310963   -0.074987919
   3   C   :   -0.001042113    0.040693407    0.044008536
   4   H   :    0.011544981    0.023854958    0.011648805
   5   H   :    0.032162442    0.044574869    0.049694426
   6   H   :    0.014974737   -0.012494432   -0.021279233
   7   H   :    0.007564750   -0.008530042   -0.007710746

Difference to translation invariance:
           :    0.0000586427    0.0000016292    0.0000313594

Difference to rotation invariance:
           :    0.0003062878    0.0001163560   -0.0005847544

Norm of the cartesian gradient     ...    0.1735904583
RMS gradient                       ...    0.0378805436
MAX gradient                       ...    0.0983109632

------------------------------------------------------------------------------
                  RELAXED CIS/TDA DENSITY POPULATION ANALYSIS
                                   IROOT 1
------------------------------------------------------------------------------
------------------------------------------------------------------------------
                           ORCA POPULATION ANALYSIS
------------------------------------------------------------------------------
Input electron density              ... ox_es1_F_orca0004.cisp
BaseName (.gbw .S,...)              ... ox_es1_F_orca0004

                    ********************************
                    * MULLIKEN POPULATION ANALYSIS *
                    ********************************

-----------------------
MULLIKEN ATOMIC CHARGES
-----------------------
   0 O :   -0.315598
   1 C :   -0.076428
   2 C :   -0.217993
   3 H :    0.167850
   4 H :    0.152417
   5 H :    0.135167
   6 H :    0.154585
Sum of atomic charges:   -0.0000000

--------------------------------
MULLIKEN REDUCED ORBITAL CHARGES
--------------------------------
  0 O s       :     3.907475  s :     3.907475
      pz      :     1.121812  p :     4.385934
      px      :     1.947300
      py      :     1.316823
      dz2     :     0.002599  d :     0.021286
      dxz     :     0.000250
      dyz     :     0.005781
      dx2y2   :     0.007675
      dxy     :     0.004982
      f0      :     0.000033  f :     0.000903
      f+1     :    -0.000003
      f-1     :     0.000063
      f+2     :     0.000146
      f-2     :     0.000038
      f+3     :     0.000281
      f-3     :     0.000345
  1 C s       :     3.194899  s :     3.194899
      pz      :     1.018409  p :     2.733919
      px      :     0.945114
      py      :     0.770395
      dz2     :     0.016024  d :     0.138149
      dxz     :     0.019193
      dyz     :     0.023347
      dx2y2   :     0.025701
      dxy     :     0.053885
      f0      :     0.001126  f :     0.009461
      f+1     :     0.001287
      f-1     :     0.000381
      f+2     :     0.001345
      f-2     :     0.000271
      f+3     :     0.002659
      f-3     :     0.002392
  2 C s       :     3.308603  s :     3.308603
      pz      :     1.038132  p :     2.864261
      px      :     0.960969
      py      :     0.865160
      dz2     :     0.003702  d :     0.040898
      dxz     :     0.018430
      dyz     :     0.002081
      dx2y2   :     0.005495
      dxy     :     0.011190
      f0      :     0.000391  f :     0.004231
      f+1     :     0.001010
      f-1     :     0.000128
      f+2     :     0.000772
      f-2     :     0.000101
      f+3     :     0.000794
      f-3     :     0.001035
  3 H s       :     0.809479  s :     0.809479
      pz      :     0.012075  p :     0.022671
      px      :     0.005119
      py      :     0.005476
  4 H s       :     0.822973  s :     0.822973
      pz      :     0.011941  p :     0.024610
      px      :     0.006756
      py      :     0.005914
  5 H s       :     0.843596  s :     0.843596
      pz      :     0.009820  p :     0.021237
      px      :     0.006627
      py      :     0.004790
  6 H s       :     0.822071  s :     0.822071
      pz      :     0.010431  p :     0.023344
      px      :     0.007264
      py      :     0.005649


                     *******************************
                     * LOEWDIN POPULATION ANALYSIS *
                     *******************************

----------------------
LOEWDIN ATOMIC CHARGES
----------------------
   0 O :   -0.035034
   1 C :   -0.381768
   2 C :   -0.128664
   3 H :    0.185637
   4 H :    0.118037
   5 H :    0.126991
   6 H :    0.114802

-------------------------------
LOEWDIN REDUCED ORBITAL CHARGES
-------------------------------
  0 O s       :     3.600193  s :     3.600193
      pz      :     1.092350  p :     4.382382
      px      :     1.876413
      py      :     1.413619
      dz2     :     0.006149  d :     0.049526
      dxz     :     0.000440
      dyz     :     0.012579
      dx2y2   :     0.017381
      dxy     :     0.012977
      f0      :     0.000336  f :     0.002934
      f+1     :     0.000050
      f-1     :     0.000326
      f+2     :     0.000424
      f-2     :     0.000109
      f+3     :     0.000780
      f-3     :     0.000909
  1 C s       :     2.834161  s :     2.834161
      pz      :     1.013368  p :     2.950576
      px      :     1.065673
      py      :     0.871536
      dz2     :     0.084667  d :     0.527743
      dxz     :     0.086688
      dyz     :     0.058989
      dx2y2   :     0.146821
      dxy     :     0.150578
      f0      :     0.007619  f :     0.069288
      f+1     :     0.006439
      f-1     :     0.005921
      f+2     :     0.008191
      f-2     :     0.001919
      f+3     :     0.020040
      f-3     :     0.019160
  2 C s       :     2.940354  s :     2.940354
      pz      :     1.073591  p :     2.956516
      px      :     1.082586
      py      :     0.800339
      dz2     :     0.026975  d :     0.210346
      dxz     :     0.102511
      dyz     :     0.005427
      dx2y2   :     0.033361
      dxy     :     0.042072
      f0      :     0.002616  f :     0.021448
      f+1     :     0.003675
      f-1     :     0.000844
      f+2     :     0.004012
      f-2     :     0.001049
      f+3     :     0.004266
      f-3     :     0.004986
  3 H s       :     0.754813  s :     0.754813
      pz      :     0.032166  p :     0.059550
      px      :     0.014084
      py      :     0.013300
  4 H s       :     0.805981  s :     0.805981
      pz      :     0.037561  p :     0.075983
      px      :     0.020544
      py      :     0.017878
  5 H s       :     0.812992  s :     0.812992
      pz      :     0.029073  p :     0.060017
      px      :     0.017565
      py      :     0.013380
  6 H s       :     0.815193  s :     0.815193
      pz      :     0.032715  p :     0.070005
      px      :     0.020642
      py      :     0.016647


                      *****************************
                      * MAYER POPULATION ANALYSIS *
                      *****************************

  NA   - Mulliken gross atomic population
  ZA   - Total nuclear charge
  QA   - Mulliken gross atomic charge
  VA   - Mayer's total valence
  BVA  - Mayer's bonded valence
  FA   - Mayer's free valence

  ATOM       NA         ZA         QA         VA         BVA        FA
  0 O      8.3156     8.0000    -0.3156     1.7323     1.1674     0.5649
  1 C      6.0764     6.0000    -0.0764     4.0998     4.0162     0.0836
  2 C      6.2180     6.0000    -0.2180     3.8222     3.0789     0.7433
  3 H      0.8321     1.0000     0.1679     0.9699     0.9078     0.0622
  4 H      0.8476     1.0000     0.1524     0.9659     0.9457     0.0202
  5 H      0.8648     1.0000     0.1352     0.9720     0.9646     0.0074
  6 H      0.8454     1.0000     0.1546     0.9656     0.9589     0.0067

  Mayer bond orders larger than 0.100000
B(  0-O ,  1-C ) :   1.0571 B(  1-C ,  2-C ) :   1.1172 B(  1-C ,  3-H ) :   0.8799 
B(  1-C ,  4-H ) :   0.9462 B(  2-C ,  5-H ) :   0.9502 B(  2-C ,  6-H ) :   0.9443 



-------
TIMINGS
-------

Total TD-DFT gradient time         ...        5.641 sec

Fock matrix formation       ....       0.818 sec  ( 14.5%)
  Coulomb formation         ....       0.670 sec  ( 81.9% of F)
  RI-J                      ....       0.290 sec  ( 35.4% of F)
  Chain of spheres X        ....       0.380 sec  ( 46.4% of F)
  XC integration            ....       0.148 sec  ( 18.1% of F)
Z-vector equation           ....       2.242 sec  ( 39.8%)
One electron gradient       ....       0.031 sec  (  0.6%)
Prescreening matrices       ....       0.149 sec  (  2.6%)
RI-J Coulomb gradient       ....       0.260 sec  (  4.6%)
COSX gradient               ....       0.327 sec  (  5.8%)
XC gradient                 ....       1.505 sec  ( 26.7%)

Maximum memory used throughout the entire SCFGRAD-calculation: 130.2 MB

                            ***************************************
                            *     ORCA property calculations      *
                            ***************************************

                                    ---------------------
                                    Active property flags
                                    ---------------------
   (+) Dipole Moment


------------------------------------------------------------------------------
                       ORCA ELECTRIC PROPERTIES CALCULATION
------------------------------------------------------------------------------

Dipole Moment Calculation                       ... on
Quadrupole Moment Calculation                   ... off
Polarizability Calculation                      ... off
GBWName                                         ... ox_es1_F_orca0004.gbw
Electron density                                ... ox_es1_F_orca0004.scfp
The origin for moment calculation is the CENTER OF MASS  = (-0.864533,  0.072232  0.056335)

-------------
DIPOLE MOMENT
-------------
                                X             Y             Z
Electronic contribution:     -0.83300       1.28340      -0.07214
Nuclear contribution   :      1.76070      -2.50033       0.03449
                        -----------------------------------------
Total Dipole Moment    :      0.92771      -1.21693      -0.03765
                        -----------------------------------------
Magnitude (a.u.)       :      1.53068
Magnitude (Debye)      :      3.89068



--------------------
Rotational spectrum 
--------------------
 
Rotational constants in cm-1:     1.261332     0.365661     0.321434 
Rotational constants in MHz : 37813.782262 10962.231450  9636.359740 

 Dipole components along the rotational axes: 
x,y,z [a.u.] :     1.454944    -0.475401     0.010757 
x,y,z [Debye]:     3.698174    -1.208374     0.027343 

 

                        *** CIS RELAXED DENSITY ***

------------------------------------------------------------------------------
                       ORCA ELECTRIC PROPERTIES CALCULATION
------------------------------------------------------------------------------

Dipole Moment Calculation                       ... on
Quadrupole Moment Calculation                   ... off
Polarizability Calculation                      ... off
GBWName                                         ... ox_es1_F_orca0004.gbw
Electron density                                ... ox_es1_F_orca0004.cisp
The origin for moment calculation is the CENTER OF MASS  = (-0.864533,  0.072232  0.056335)

-------------
DIPOLE MOMENT
-------------
                                X             Y             Z
Electronic contribution:     -1.34918       1.49042      -0.04942
Nuclear contribution   :      1.76070      -2.50033       0.03449
                        -----------------------------------------
Total Dipole Moment    :      0.41152      -1.00991      -0.01494
                        -----------------------------------------
Magnitude (a.u.)       :      1.09064
Magnitude (Debye)      :      2.77218



--------------------
Rotational spectrum 
--------------------
 
Rotational constants in cm-1:     1.261332     0.365661     0.321434 
Rotational constants in MHz : 37813.782262 10962.231450  9636.359740 

 Dipole components along the rotational axes: 
x,y,z [a.u.] :     0.912956    -0.594091     0.055286 
x,y,z [Debye]:     2.320549    -1.510058     0.140525 

 

Timings for individual modules:

Sum of individual times         ...        7.908 sec (=   0.132 min)
GTO integral calculation        ...        0.252 sec (=   0.004 min)   3.2 %
SCF iterations                  ...        1.127 sec (=   0.019 min)  14.2 %
CIS module                      ...        0.715 sec (=   0.012 min)   9.0 %
SCF Gradient evaluation         ...        5.815 sec (=   0.097 min)  73.5 %
                             ****ORCA TERMINATED NORMALLY****
TOTAL RUN TIME: 0 days 0 hours 0 minutes 8 seconds 198 msec
