
                                 *****************
                                 * O   R   C   A *
                                 *****************

                                            #,                                       
                                            ###                                      
                                            ####                                     
                                            #####                                    
                                            ######                                   
                                           ########,                                 
                                     ,,################,,,,,                         
                               ,,#################################,,                 
                          ,,##########################################,,             
                       ,#########################################, ''#####,          
                    ,#############################################,,   '####,        
                  ,##################################################,,,,####,       
                ,###########''''           ''''###############################       
              ,#####''   ,,,,##########,,,,          '''####'''          '####       
            ,##' ,,,,###########################,,,                        '##       
           ' ,,###''''                  '''############,,,                           
         ,,##''                                '''############,,,,        ,,,,,,###''
      ,#''                                            '''#######################'''  
     '                                                          ''''####''''         
             ,#######,   #######,   ,#######,      ##                                
            ,#'     '#,  ##    ##  ,#'     '#,    #''#        ######   ,####,        
            ##       ##  ##   ,#'  ##            #'  '#       #        #'  '#        
            ##       ##  #######   ##           ,######,      #####,   #    #        
            '#,     ,#'  ##    ##  '#,     ,#' ,#      #,         ##   #,  ,#        
             '#######'   ##     ##  '#######'  #'      '#     #####' # '####'        



                  #######################################################
                  #                        -***-                        #
                  #          Department of theory and spectroscopy      #
                  #    Directorship and core code : Frank Neese         #
                  #        Max Planck Institute fuer Kohlenforschung    #
                  #                Kaiser Wilhelm Platz 1               #
                  #                 D-45470 Muelheim/Ruhr               #
                  #                      Germany                        #
                  #                                                     #
                  #                  All rights reserved                #
                  #                        -***-                        #
                  #######################################################


                         Program Version 5.0.2 -  RELEASE  -


 With contributions from (in alphabetic order):
   Daniel Aravena         : Magnetic Suceptibility
   Michael Atanasov       : Ab Initio Ligand Field Theory (pilot matlab implementation)
   Alexander A. Auer      : GIAO ZORA, VPT2 properties, NMR spectrum
   Ute Becker             : Parallelization
   Giovanni Bistoni       : ED, misc. LED, open-shell LED, HFLD
   Martin Brehm           : Molecular dynamics
   Dmytro Bykov           : SCF Hessian
   Vijay G. Chilkuri      : MRCI spin determinant printing, contributions to CSF-ICE
   Dipayan Datta          : RHF DLPNO-CCSD density
   Achintya Kumar Dutta   : EOM-CC, STEOM-CC
   Dmitry Ganyushin       : Spin-Orbit,Spin-Spin,Magnetic field MRCI
   Miquel Garcia          : C-PCM and meta-GGA Hessian, CC/C-PCM, Gaussian charge scheme
   Yang Guo               : DLPNO-NEVPT2, F12-NEVPT2, CIM, IAO-localization
   Andreas Hansen         : Spin unrestricted coupled pair/coupled cluster methods
   Benjamin Helmich-Paris : MC-RPA, TRAH-SCF, COSX integrals
   Lee Huntington         : MR-EOM, pCC
   Robert Izsak           : Overlap fitted RIJCOSX, COSX-SCS-MP3, EOM
   Marcus Kettner         : VPT2
   Christian Kollmar      : KDIIS, OOCD, Brueckner-CCSD(T), CCSD density, CASPT2, CASPT2-K
   Simone Kossmann        : Meta GGA functionals, TD-DFT gradient, OOMP2, MP2 Hessian
   Martin Krupicka        : Initial AUTO-CI
   Lucas Lang             : DCDCAS
   Marvin Lechner         : AUTO-CI (C++ implementation), FIC-MRCC
   Dagmar Lenk            : GEPOL surface, SMD
   Dimitrios Liakos       : Extrapolation schemes; Compound Job, initial MDCI parallelization
   Dimitrios Manganas     : Further ROCIS development; embedding schemes
   Dimitrios Pantazis     : SARC Basis sets
   Anastasios Papadopoulos: AUTO-CI, single reference methods and gradients
   Taras Petrenko         : DFT Hessian,TD-DFT gradient, ASA, ECA, R-Raman, ABS, FL, XAS/XES, NRVS
   Peter Pinski           : DLPNO-MP2, DLPNO-MP2 Gradient
   Christoph Reimann      : Effective Core Potentials
   Marius Retegan         : Local ZFS, SOC
   Christoph Riplinger    : Optimizer, TS searches, QM/MM, DLPNO-CCSD(T), (RO)-DLPNO pert. Triples
   Tobias Risthaus        : Range-separated hybrids, TD-DFT gradient, RPA, STAB
   Michael Roemelt        : Original ROCIS implementation
   Masaaki Saitow         : Open-shell DLPNO-CCSD energy and density
   Barbara Sandhoefer     : DKH picture change effects
   Avijit Sen             : IP-ROCIS
   Kantharuban Sivalingam : CASSCF convergence, NEVPT2, FIC-MRCI
   Bernardo de Souza      : ESD, SOC TD-DFT
   Georgi Stoychev        : AutoAux, RI-MP2 NMR, DLPNO-MP2 response
   Willem Van den Heuvel  : Paramagnetic NMR
   Boris Wezisla          : Elementary symmetry handling
   Frank Wennmohs         : Technical directorship


 We gratefully acknowledge several colleagues who have allowed us to
 interface, adapt or use parts of their codes:
   Stefan Grimme, W. Hujo, H. Kruse, P. Pracht,  : VdW corrections, initial TS optimization,
                  C. Bannwarth, S. Ehlert          DFT functionals, gCP, sTDA/sTD-DF
   Ed Valeev, F. Pavosevic, A. Kumar             : LibInt (2-el integral package), F12 methods
   Garnet Chan, S. Sharma, J. Yang, R. Olivares  : DMRG
   Ulf Ekstrom                                   : XCFun DFT Library
   Mihaly Kallay                                 : mrcc  (arbitrary order and MRCC methods)
   Jiri Pittner, Ondrej Demel                    : Mk-CCSD
   Frank Weinhold                                : gennbo (NPA and NBO analysis)
   Christopher J. Cramer and Donald G. Truhlar   : smd solvation model
   Lars Goerigk                                  : TD-DFT with DH, B97 family of functionals
   V. Asgeirsson, H. Jonsson                     : NEB implementation
   FAccTs GmbH                                   : IRC, NEB, NEB-TS, DLPNO-Multilevel, CI-OPT
                                                   MM, QMMM, 2- and 3-layer-ONIOM, Crystal-QMMM,
                                                   LR-CPCM, SF, NACMEs, symmetry and pop. for TD-DFT,
                                                   nearIR, NL-DFT gradient (VV10), updates on ESD,
                                                   ML-optimized integration grids
   S Lehtola, MJT Oliveira, MAL Marques          : LibXC Library
   Liviu Ungur et al                             : ANISO software


 Your calculation uses the libint2 library for the computation of 2-el integrals
 For citations please refer to: http://libint.valeyev.net

 Your ORCA version has been built with support for libXC version: 5.1.0
 For citations please refer to: https://tddft.org/programs/libxc/

 This ORCA versions uses:
   CBLAS   interface :  Fast vector & matrix operations
   LAPACKE interface :  Fast linear algebra routines
   SCALAPACK package :  Parallel linear algebra routines
   Shared memory     :  Shared parallel matrices
   BLAS/LAPACK       :  OpenBLAS 0.3.15  USE64BITINT DYNAMIC_ARCH NO_AFFINITY SkylakeX SINGLE_THREADED
        Core in use  :  SkylakeX
   Copyright (c) 2011-2014, The OpenBLAS Project


Your calculation utilizes the atom-pairwise dispersion correction
with the Becke-Johnson damping scheme (D3BJ)
Cite in your paper:
S.Grimme, S.Ehrlich, L.Goerigk, J Comput Chem, (2011), 32, 1456–1465 
S.Grimme, J.Antony, S.Ehrlich and H.Krieg, J.Chem.Phys., 132, (2010), 154104 
   

================================================================================

----- Orbital basis set information -----
Your calculation utilizes the basis: def2-TZVP
   F. Weigend and R. Ahlrichs, Phys. Chem. Chem. Phys. 7, 3297 (2005).

----- AuxJ basis set information -----
Your calculation utilizes the auxiliary basis: def2/J
   F. Weigend, Phys. Chem. Chem. Phys. 8, 1057 (2006).

================================================================================
                                        WARNINGS
                       Please study these warnings very carefully!
================================================================================

INFO   : Checking CIS options ...

WARNING: CIS/ROCIS methods need fully converged wavefunctions
  ===> : Setting SCFConvForced true
         You can overwrite this default with %scf ConvForced false 


INFO   : the flag for use of the SHARK integral package has been found!

================================================================================
                                       INPUT FILE
================================================================================
NAME = ox_es1_E_orca0002.inp
|  1> ! engrad PBE0 D3BJ def2-TZVP  
|  2> %pal nprocs 8 end
|  3> %maxcore 3000
|  4> 
|  5> %tddft
|  6>   nroots 1
|  7>   tda true
|  8>   Iroot 1
|  9>   end 
| 10> *xyz 0 1 
| 11> O   -0.907683522739101 0.894713750271198 -0.07304274077479206
| 12> C   -0.7060823086255839 -0.44538500006760245 -0.009506092706622086
| 13> C   0.7444846027916296 -0.4848583521127071 0.010168867033285182
| 14> H   -1.3480635942799464 -0.6524196582956886 0.9656921534103619
| 15> H   -1.2575212070165736 -0.7395856974700349 -0.8780282072101997
| 16> H   1.244980833679433 -0.6489366491136299 -0.8878745760237157
| 17> H   1.2265903304473034 -0.574015553613044 0.9051251388118248
| 18> *
| 19> 
| 20>                          ****END OF INPUT****
================================================================================

                     *******************************
                     * Energy+Gradient Calculation *
                     *******************************

---------------------------------
CARTESIAN COORDINATES (ANGSTROEM)
---------------------------------
  O     -0.907684    0.894714   -0.073043
  C     -0.706082   -0.445385   -0.009506
  C      0.744485   -0.484858    0.010169
  H     -1.348064   -0.652420    0.965692
  H     -1.257521   -0.739586   -0.878028
  H      1.244981   -0.648937   -0.887875
  H      1.226590   -0.574016    0.905125

----------------------------
CARTESIAN COORDINATES (A.U.)
----------------------------
  NO LB      ZA    FRAG     MASS         X           Y           Z
   0 O     8.0000    0    15.999   -1.715273    1.690764   -0.138031
   1 C     6.0000    0    12.011   -1.334302   -0.841656   -0.017964
   2 C     6.0000    0    12.011    1.406872   -0.916249    0.019216
   3 H     1.0000    0     1.008   -2.547471   -1.232894    1.824894
   4 H     1.0000    0     1.008   -2.376371   -1.397614   -1.659233
   5 H     1.0000    0     1.008    2.352673   -1.226313   -1.677840
   6 H     1.0000    0     1.008    2.317920   -1.084732    1.710439

--------------------------------
INTERNAL COORDINATES (ANGSTROEM)
--------------------------------
 O      0   0   0     0.000000000000     0.00000000     0.00000000
 C      1   0   0     1.356666729834     0.00000000     0.00000000
 C      2   1   0     1.451237270077   100.13885398     0.00000000
 H      2   1   3     1.185755008451    97.50033653   124.17647110
 H      2   1   3     1.070032509970    99.03244381   235.81231948
 H      3   2   1     1.041105273398   118.23608324   263.15029221
 H      3   2   1     1.020451697835   119.11025477    97.47882063

---------------------------
INTERNAL COORDINATES (A.U.)
---------------------------
 O      0   0   0     0.000000000000     0.00000000     0.00000000
 C      1   0   0     2.563728574389     0.00000000     0.00000000
 C      2   1   0     2.742440995785   100.13885398     0.00000000
 H      2   1   3     2.240752227899    97.50033653   124.17647110
 H      2   1   3     2.022068398235    99.03244381   235.81231948
 H      3   2   1     1.967403843304   118.23608324   263.15029221
 H      3   2   1     1.928374241802   119.11025477    97.47882063

---------------------
BASIS SET INFORMATION
---------------------
There are 3 groups of distinct atoms

 Group   1 Type O   : 11s6p2d1f contracted to 5s3p2d1f pattern {62111/411/11/1}
 Group   2 Type C   : 11s6p2d1f contracted to 5s3p2d1f pattern {62111/411/11/1}
 Group   3 Type H   : 5s1p contracted to 3s1p pattern {311/1}

Atom   0O    basis set group =>   1
Atom   1C    basis set group =>   2
Atom   2C    basis set group =>   2
Atom   3H    basis set group =>   3
Atom   4H    basis set group =>   3
Atom   5H    basis set group =>   3
Atom   6H    basis set group =>   3
---------------------------------
AUXILIARY/J BASIS SET INFORMATION
---------------------------------
There are 3 groups of distinct atoms

 Group   1 Type O   : 12s5p4d2f1g contracted to 6s4p3d1f1g pattern {711111/2111/211/2/1}
 Group   2 Type C   : 12s5p4d2f1g contracted to 6s4p3d1f1g pattern {711111/2111/211/2/1}
 Group   3 Type H   : 5s2p1d contracted to 3s1p1d pattern {311/2/1}

Atom   0O    basis set group =>   1
Atom   1C    basis set group =>   2
Atom   2C    basis set group =>   2
Atom   3H    basis set group =>   3
Atom   4H    basis set group =>   3
Atom   5H    basis set group =>   3
Atom   6H    basis set group =>   3

Checking for AutoStart:
The File: ox_es1_E_orca0002.gbw exists
Trying to determine its content:
     ... Fine, the file contains calculation information
     ... Fine, the calculation information was read
     ... Fine, the file contains a basis set
     ... Fine, the basis set was read
     ... Fine, the file contains a geometry
     ... Fine, the geometry was read
     ... Fine, the file contains a set of orbitals
     ... Fine, the orbitals can be read
     => possible old guess file was deleted
     => GBW file was renamed to GES file
     => GES file is set as startup file
     => Guess is set to MORead
     ... now leaving AutoStart



           ************************************************************
           *        Program running with 8 parallel MPI-processes     *
           *              working on a common directory               *
           ************************************************************
------------------------------------------------------------------------------
                           ORCA GTO INTEGRAL CALCULATION
                           -- RI-GTO INTEGRALS CHOSEN --
------------------------------------------------------------------------------
------------------------------------------------------------------------------
                   ___                                                        
                  /   \      - P O W E R E D   B Y -                         
                 /     \                                                     
                 |  |  |   _    _      __       _____    __    __             
                 |  |  |  | |  | |    /  \     |  _  \  |  |  /  |          
                  \  \/   | |  | |   /    \    | | | |  |  | /  /          
                 / \  \   | |__| |  /  /\  \   | |_| |  |  |/  /          
                |  |  |   |  __  | /  /__\  \  |    /   |      \           
                |  |  |   | |  | | |   __   |  |    \   |  |\   \          
                \     /   | |  | | |  |  |  |  | |\  \  |  | \   \       
                 \___/    |_|  |_| |__|  |__|  |_| \__\ |__|  \__/        
                                                                              
                      - O R C A' S   B I G   F R I E N D -                    
                                      &                                       
                       - I N T E G R A L  F E E D E R -                       
                                                                              
 v1 FN, 2020, v2 2021                                                         
------------------------------------------------------------------------------


Reading SHARK input file ox_es1_E_orca0002.SHARKINP.tmp ... ok
----------------------
SHARK INTEGRAL PACKAGE
----------------------

Number of atoms                             ...      7
Number of basis functions                   ...    117
Number of shells                            ...     49
Maximum angular momentum                    ...      3
Integral batch strategy                     ... SHARK/LIBINT Hybrid
RI-J (if used) integral strategy            ... SPLIT-RIJ (Revised 2003 algorithm where possible)
Printlevel                                  ...      1
Contraction scheme used                     ... SEGMENTED contraction
Coulomb Range Separation                    ... NOT USED
Exchange Range Separation                   ... NOT USED
Finite Nucleus Model                        ... NOT USED
Auxiliary Coulomb fitting basis             ... AVAILABLE
   # of basis functions in Aux-J            ...    191
   # of shells in Aux-J                     ...     65
   Maximum angular momentum in Aux-J        ...      4
Auxiliary J/K fitting basis                 ... NOT available
Auxiliary Correlation fitting basis         ... NOT available
Auxiliary 'external' fitting basis          ... NOT available
Integral threshold                          ...     2.500000e-11
Primitive cut-off                           ...     2.500000e-12
Primitive pair pre-selection threshold      ...     2.500000e-12

Calculating pre-screening integrals         ... done (  0.0 sec) Dimension = 49
Organizing shell pair data                  ... done (  0.0 sec)
Shell pair information
Total number of shell pairs                 ...      1225
Shell pairs after pre-screening             ...      1214
Total number of primitive shell pairs       ...      3648
Primitive shell pairs kept                  ...      3098
          la=0 lb=0:    368 shell pairs
          la=1 lb=0:    351 shell pairs
          la=1 lb=1:     91 shell pairs
          la=2 lb=0:    161 shell pairs
          la=2 lb=1:     78 shell pairs
          la=2 lb=2:     21 shell pairs
          la=3 lb=0:     81 shell pairs
          la=3 lb=1:     39 shell pairs
          la=3 lb=2:     18 shell pairs
          la=3 lb=3:      6 shell pairs

Calculating one electron integrals          ... done (  0.0 sec)
Calculating RI/J V-Matrix + Cholesky decomp.... done (  0.0 sec)
Calculating Nuclear repulsion               ... done (  0.0 sec) ENN=     70.109869432952 Eh

SHARK setup successfully completed in   0.1 seconds

Maximum memory used throughout the entire GTOINT-calculation: 14.9 MB


           ************************************************************
           *        Program running with 8 parallel MPI-processes     *
           *              working on a common directory               *
           ************************************************************
-------------------------------------------------------------------------------
                                 ORCA SCF
-------------------------------------------------------------------------------

------------
SCF SETTINGS
------------
Hamiltonian:
 Density Functional     Method          .... DFT(GTOs)
 Exchange Functional    Exchange        .... PBE
   PBE kappa parameter   XKappa         ....  0.804000
   PBE mue parameter    XMuePBE         ....  0.219520
 Correlation Functional Correlation     .... PBE
   PBE beta parameter  CBetaPBE         ....  0.066725
 LDA part of GGA corr.  LDAOpt          .... PW91-LDA
 Gradients option       PostSCFGGA      .... off
 Hybrid DFT is turned on
   Fraction HF Exchange ScalHFX         ....  0.250000
   Scaling of DF-GGA-X  ScalDFX         ....  0.750000
   Scaling of DF-GGA-C  ScalDFC         ....  1.000000
   Scaling of DF-LDA-C  ScalLDAC        ....  1.000000
   Perturbative correction              ....  0.000000
   Density functional embedding theory  .... OFF
   NL short-range parameter             ....  6.900000
 RI-approximation to the Coulomb term is turned on
   Number of AuxJ basis functions       .... 191
   RIJ-COSX (HFX calculated with COS-X)).... on


General Settings:
 Integral files         IntName         .... ox_es1_E_orca0002
 Hartree-Fock type      HFTyp           .... RHF
 Total Charge           Charge          ....    0
 Multiplicity           Mult            ....    1
 Number of Electrons    NEL             ....   24
 Basis Dimension        Dim             ....  117
 Nuclear Repulsion      ENuc            ....     70.1098694330 Eh

Convergence Acceleration:
 DIIS                   CNVDIIS         .... on
   Start iteration      DIISMaxIt       ....    12
   Startup error        DIISStart       ....  0.200000
   # of expansion vecs  DIISMaxEq       ....     5
   Bias factor          DIISBfac        ....   1.050
   Max. coefficient     DIISMaxC        ....  10.000
 Trust-Rad. Augm. Hess. CNVTRAH         .... auto
   Auto Start mean grad. ratio tolernc. ....  1.125000
   Auto Start start iteration           ....     1
   Auto Start num. interpolation iter.  ....    10
   Max. Number of Micro iterations      ....    16
   Max. Number of Macro iterations      .... Maxiter - #DIIS iter
   Number of Davidson start vectors     ....     2
   Converg. threshold I  (grad. norm)   ....   1.000e-05
   Converg. threshold II (energy diff.) ....   1.000e-08
   Grad. Scal. Fac. for Micro threshold ....   0.100
   Minimum threshold for Micro iter.    ....   0.010
   NR start threshold (gradient norm)   ....   0.001
   Initial trust radius                 ....   0.400
   Minimum AH scaling param. (alpha)    ....   1.000
   Maximum AH scaling param. (alpha)    .... 1000.000
   Orbital update algorithm             .... Taylor
   White noise on init. David. guess    .... on
   Maximum white noise                  ....   0.010
   Quad. conv. algorithm                .... NR
 SOSCF                  CNVSOSCF        .... on
   Start iteration      SOSCFMaxIt      ....   150
   Startup grad/error   SOSCFStart      ....  0.003300
 Level Shifting         CNVShift        .... on
   Level shift para.    LevelShift      ....    0.2500
   Turn off err/grad.   ShiftErr        ....    0.0010
 Zerner damping         CNVZerner       .... off
 Static damping         CNVDamp         .... on
   Fraction old density DampFac         ....    0.7000
   Max. Damping (<1)    DampMax         ....    0.9800
   Min. Damping (>=0)   DampMin         ....    0.0000
   Turn off err/grad.   DampErr         ....    0.1000
 Fernandez-Rico         CNVRico         .... off

SCF Procedure:
 Maximum # iterations   MaxIter         ....   125
 SCF integral mode      SCFMode         .... Direct
   Integral package                     .... SHARK and LIBINT hybrid scheme
 Reset frequency        DirectResetFreq ....    20
 Integral Threshold     Thresh          ....  2.500e-11 Eh
 Primitive CutOff       TCut            ....  2.500e-12 Eh

Convergence Tolerance:
 Convergence Check Mode ConvCheckMode   .... Total+1el-Energy
 Convergence forced     ConvForced      .... 1
 Energy Change          TolE            ....  1.000e-08 Eh
 1-El. energy change                    ....  1.000e-05 Eh
 Orbital Gradient       TolG            ....  1.000e-05
 Orbital Rotation angle TolX            ....  1.000e-05
 DIIS Error             TolErr          ....  5.000e-07


Diagonalization of the overlap matrix:
Smallest eigenvalue                        ... 4.371e-04
Time for diagonalization                   ...    0.001 sec
Threshold for overlap eigenvalues          ... 1.000e-08
Number of eigenvalues below threshold      ... 0
Time for construction of square roots      ...    0.001 sec
Total time needed                          ...    0.003 sec

---------------------
INITIAL GUESS: MOREAD
---------------------
Guess MOs are being read from file: ox_es1_E_orca0002.ges
Input Geometry matches current geometry (good)
Input basis set matches current basis set (good)
MOs were renormalized
MOs were reorthogonalized (Cholesky)
                      ------------------
                      INITIAL GUESS DONE (   0.0 sec)
                      ------------------
-------------------
DFT GRID GENERATION
-------------------

General Integration Accuracy     IntAcc      ... 4.388
Radial Grid Type                 RadialGrid  ... OptM3 with GC (2021)
Angular Grid (max. ang.)         AngularGrid ... 4 (Lebedev-302)
Angular grid pruning method      GridPruning ... 4 (adaptive)
Weight generation scheme         WeightScheme... Becke
Basis function cutoff            BFCut       ... 1.0000e-11
Integration weight cutoff        WCut        ... 1.0000e-14
Angular grids for H and He will be reduced by one unit
Partially contracted basis set               ... off
Rotationally invariant grid construction     ... off

Total number of grid points                  ...    31313
Total number of batches                      ...      493
Average number of points per batch           ...       63
Average number of grid points per atom       ...     4473
Time for grid setup =    0.124 sec

--------------------
COSX GRID GENERATION
--------------------

GRIDX 1
-------
General Integration Accuracy     IntAcc      ... 3.816
Radial Grid Type                 RadialGrid  ... OptM3 with GC (2021)
Angular Grid (max. ang.)         AngularGrid ... 1 (Lebedev-50)
Angular grid pruning method      GridPruning ... 4 (adaptive)
Weight generation scheme         WeightScheme... Becke
Basis function cutoff            BFCut       ... 1.0000e-11
Integration weight cutoff        WCut        ... 1.0000e-14
Angular grids for H and He will be reduced by one unit
Partially contracted basis set               ... on
Rotationally invariant grid construction     ... off

Total number of grid points                  ...     4036
Total number of batches                      ...       67
Average number of points per batch           ...       60
Average number of grid points per atom       ...      577
UseSFitting                                  ... on

GRIDX 2
-------
General Integration Accuracy     IntAcc      ... 4.020
Radial Grid Type                 RadialGrid  ... OptM3 with GC (2021)
Angular Grid (max. ang.)         AngularGrid ... 2 (Lebedev-110)
Angular grid pruning method      GridPruning ... 4 (adaptive)
Weight generation scheme         WeightScheme... Becke
Basis function cutoff            BFCut       ... 1.0000e-11
Integration weight cutoff        WCut        ... 1.0000e-14
Angular grids for H and He will be reduced by one unit
Partially contracted basis set               ... on
Rotationally invariant grid construction     ... off

Total number of grid points                  ...     8723
Total number of batches                      ...      140
Average number of points per batch           ...       62
Average number of grid points per atom       ...     1246
UseSFitting                                  ... on

GRIDX 3
-------
General Integration Accuracy     IntAcc      ... 4.338
Radial Grid Type                 RadialGrid  ... OptM3 with GC (2021)
Angular Grid (max. ang.)         AngularGrid ... 3 (Lebedev-194)
Angular grid pruning method      GridPruning ... 4 (adaptive)
Weight generation scheme         WeightScheme... Becke
Basis function cutoff            BFCut       ... 1.0000e-11
Integration weight cutoff        WCut        ... 1.0000e-14
Angular grids for H and He will be reduced by one unit
Partially contracted basis set               ... on
Rotationally invariant grid construction     ... off

Total number of grid points                  ...    19250
Total number of batches                      ...      305
Average number of points per batch           ...       63
Average number of grid points per atom       ...     2750
UseSFitting                                  ... on

Time for X-Grid setup             =    0.080 sec

--------------
SCF ITERATIONS
--------------
ITER       Energy         Delta-E        Max-DP      RMS-DP      [F,P]     Damp
               ***  Starting incremental Fock matrix formation  ***
                      *** Initiating the SOSCF procedure ***
                      *** Re-Reading the Fockian *** 
                      *** Removing any level shift *** 
ITER      Energy       Delta-E        Grad      Rot      Max-DP    RMS-DP
  0   -153.54524393 -153.5452439303  0.000001  0.000001  0.000001  0.000000
               *** Restarting incremental Fock matrix formation ***
                  ***Gradient check signals convergence***
              ***Rediagonalizing the Fockian in SOSCF/NRSCF***

               *****************************************************
               *                     SUCCESS                       *
               *           SCF CONVERGED AFTER   1 CYCLES          *
               *****************************************************

Old exchange energy                            =     -4.972447696 Eh
New exchange energy                            =     -4.972449083 Eh
Exchange energy change after final integration =     -0.000001387 Eh
Total energy after final integration           =   -153.545245317 Eh
Final COS-X integration done in                =     0.300 sec

----------------
TOTAL SCF ENERGY
----------------

Total Energy       :         -153.54524532 Eh           -4178.17854 eV

Components:
Nuclear Repulsion  :           70.10986943 Eh            1907.78654 eV
Electronic Energy  :         -223.65511475 Eh           -6085.96508 eV
One Electron Energy:         -346.89686040 Eh           -9439.54347 eV
Two Electron Energy:          123.24174565 Eh            3353.57839 eV
Max COSX asymmetry :            0.00000145 Eh               0.00004 eV

Virial components:
Potential Energy   :         -306.55683006 Eh           -8341.83544 eV
Kinetic Energy     :          153.01158474 Eh            4163.65690 eV
Virial Ratio       :            2.00348771


DFT components:
N(Alpha)           :       12.000004311181 electrons
N(Beta)            :       12.000004311181 electrons
N(Total)           :       24.000008622362 electrons
E(X)               :      -14.923575551801 Eh       
E(C)               :       -0.775032176963 Eh       
E(XC)              :      -15.698607728764 Eh       
DFET-embed. en.    :        0.000000000000 Eh       

---------------
SCF CONVERGENCE
---------------

  Last Energy change         ...    1.1227e-11  Tolerance :   1.0000e-08
  Last MAX-Density change    ...    1.4433e-15  Tolerance :   1.0000e-07
  Last RMS-Density change    ...    2.2158e-17  Tolerance :   5.0000e-09
  Last Orbital Gradient      ...    8.8515e-07  Tolerance :   1.0000e-05
  Last Orbital Rotation      ...    6.4291e-06  Tolerance :   1.0000e-05

             **** THE GBW FILE WAS UPDATED (ox_es1_E_orca0002.gbw) ****
             **** DENSITY ox_es1_E_orca0002.scfp WAS UPDATED ****
             **** ENERGY FILE WAS UPDATED (ox_es1_E_orca0002.en.tmp) ****
             **** THE GBW FILE WAS UPDATED (ox_es1_E_orca0002.gbw) ****
             **** DENSITY ox_es1_E_orca0002.scfp WAS UPDATED ****
----------------
ORBITAL ENERGIES
----------------

  NO   OCC          E(Eh)            E(eV) 
   0   2.0000     -19.196800      -522.3715 
   1   2.0000     -10.312444      -280.6159 
   2   2.0000     -10.272067      -279.5172 
   3   2.0000      -1.022088       -27.8124 
   4   2.0000      -0.782412       -21.2905 
   5   2.0000      -0.622614       -16.9422 
   6   2.0000      -0.535788       -14.5795 
   7   2.0000      -0.493545       -13.4300 
   8   2.0000      -0.431156       -11.7324 
   9   2.0000      -0.408273       -11.1097 
  10   2.0000      -0.276262        -7.5175 
  11   2.0000      -0.247820        -6.7435 
  12   0.0000      -0.138583        -3.7710 
  13   0.0000       0.059482         1.6186 
  14   0.0000       0.079447         2.1619 
  15   0.0000       0.091032         2.4771 
  16   0.0000       0.141991         3.8638 
  17   0.0000       0.147578         4.0158 
  18   0.0000       0.177566         4.8318 
  19   0.0000       0.211757         5.7622 
  20   0.0000       0.233980         6.3669 
  21   0.0000       0.248330         6.7574 
  22   0.0000       0.256412         6.9773 
  23   0.0000       0.346598         9.4314 
  24   0.0000       0.381071        10.3695 
  25   0.0000       0.405400        11.0315 
  26   0.0000       0.426200        11.5975 
  27   0.0000       0.432475        11.7682 
  28   0.0000       0.450857        12.2684 
  29   0.0000       0.488756        13.2997 
  30   0.0000       0.492200        13.3934 
  31   0.0000       0.557579        15.1725 
  32   0.0000       0.582285        15.8448 
  33   0.0000       0.594464        16.1762 
  34   0.0000       0.645221        17.5574 
  35   0.0000       0.739167        20.1138 
  36   0.0000       0.803836        21.8735 
  37   0.0000       0.846444        23.0329 
  38   0.0000       0.861165        23.4335 
  39   0.0000       0.920533        25.0490 
  40   0.0000       0.937278        25.5046 
  41   0.0000       1.038363        28.2553 
  42   0.0000       1.060615        28.8608 
  43   0.0000       1.087482        29.5919 
  44   0.0000       1.207980        32.8708 
  45   0.0000       1.318107        35.8675 
  46   0.0000       1.395359        37.9696 
  47   0.0000       1.455615        39.6093 
  48   0.0000       1.523097        41.4456 
  49   0.0000       1.533306        41.7234 
  50   0.0000       1.561477        42.4899 
  51   0.0000       1.613562        43.9073 
  52   0.0000       1.643503        44.7220 
  53   0.0000       1.685220        45.8572 
  54   0.0000       1.782780        48.5119 
  55   0.0000       1.801419        49.0191 
  56   0.0000       1.810832        49.2753 
  57   0.0000       1.827489        49.7285 
  58   0.0000       1.867009        50.8039 
  59   0.0000       1.895914        51.5905 
  60   0.0000       2.001579        54.4657 
  61   0.0000       2.096725        57.0548 
  62   0.0000       2.187724        59.5310 
  63   0.0000       2.250246        61.2323 
  64   0.0000       2.287135        62.2361 
  65   0.0000       2.361649        64.2637 
  66   0.0000       2.404455        65.4286 
  67   0.0000       2.492243        67.8174 
  68   0.0000       2.523014        68.6547 
  69   0.0000       2.535765        69.0017 
  70   0.0000       2.579584        70.1940 
  71   0.0000       2.609174        70.9992 
  72   0.0000       2.662893        72.4610 
  73   0.0000       2.729651        74.2776 
  74   0.0000       2.772186        75.4350 
  75   0.0000       2.821073        76.7653 
  76   0.0000       2.830082        77.0104 
  77   0.0000       2.984218        81.2047 
  78   0.0000       3.015245        82.0490 
  79   0.0000       3.034736        82.5794 
  80   0.0000       3.089722        84.0756 
  81   0.0000       3.108386        84.5835 
  82   0.0000       3.128168        85.1218 
  83   0.0000       3.174599        86.3852 
  84   0.0000       3.176907        86.4480 
  85   0.0000       3.190353        86.8139 
  86   0.0000       3.374433        91.8230 
  87   0.0000       3.414181        92.9046 
  88   0.0000       3.461447        94.1908 
  89   0.0000       3.505470        95.3887 
  90   0.0000       3.521517        95.8254 
  91   0.0000       3.659390        99.5771 
  92   0.0000       3.703016       100.7642 
  93   0.0000       3.896466       106.0282 
  94   0.0000       4.089417       111.2787 
  95   0.0000       4.102021       111.6217 
  96   0.0000       4.127587       112.3174 
  97   0.0000       4.268036       116.1392 
  98   0.0000       4.417751       120.2131 
  99   0.0000       4.453469       121.1850 
 100   0.0000       4.613891       125.5504 
 101   0.0000       4.776631       129.9787 
 102   0.0000       5.202617       141.5704 
 103   0.0000       5.256153       143.0272 
 104   0.0000       5.439101       148.0055 
 105   0.0000       5.462446       148.6407 
 106   0.0000       5.881431       160.0419 
 107   0.0000       5.910253       160.8262 
 108   0.0000       6.015980       163.7031 
 109   0.0000       6.409482       174.4109 
 110   0.0000       6.415672       174.5793 
 111   0.0000       6.849455       186.3831 
 112   0.0000       6.861462       186.7099 
 113   0.0000       6.955583       189.2710 
 114   0.0000      22.227270       604.8348 
 115   0.0000      22.586805       614.6182 
 116   0.0000      43.806364      1192.0318 

                    ********************************
                    * MULLIKEN POPULATION ANALYSIS *
                    ********************************

-----------------------
MULLIKEN ATOMIC CHARGES
-----------------------
   0 O :   -0.368157
   1 C :   -0.036485
   2 C :   -0.120975
   3 H :    0.089666
   4 H :    0.101944
   5 H :    0.167030
   6 H :    0.166977
Sum of atomic charges:   -0.0000000

--------------------------------
MULLIKEN REDUCED ORBITAL CHARGES
--------------------------------
  0 O s       :     3.896740  s :     3.896740
      pz      :     1.894776  p :     4.443127
      px      :     1.211769
      py      :     1.336583
      dz2     :     0.003390  d :     0.026849
      dxz     :     0.000280
      dyz     :     0.006568
      dx2y2   :     0.009473
      dxy     :     0.007138
      f0      :     0.000181  f :     0.001441
      f+1     :     0.000072
      f-1     :     0.000320
      f+2     :     0.000202
      f-2     :     0.000029
      f+3     :     0.000317
      f-3     :     0.000321
  1 C s       :     3.188563  s :     3.188563
      pz      :     1.052444  p :     2.662555
      px      :     0.881758
      py      :     0.728352
      dz2     :     0.010728  d :     0.174185
      dxz     :     0.020036
      dyz     :     0.055164
      dx2y2   :     0.022579
      dxy     :     0.065677
      f0      :     0.001968  f :     0.011183
      f+1     :     0.001222
      f-1     :     0.000924
      f+2     :     0.003503
      f-2     :     0.000312
      f+3     :     0.002592
      f-3     :     0.000662
  2 C s       :     3.284280  s :     3.284280
      pz      :     1.067149  p :     2.782216
      px      :     1.005844
      py      :     0.709223
      dz2     :     0.006318  d :     0.049688
      dxz     :     0.023157
      dyz     :     0.003364
      dx2y2   :     0.005102
      dxy     :     0.011746
      f0      :     0.000596  f :     0.004791
      f+1     :     0.001175
      f-1     :     0.000070
      f+2     :     0.000698
      f-2     :     0.000188
      f+3     :     0.000799
      f-3     :     0.001265
  3 H s       :     0.892315  s :     0.892315
      pz      :     0.008688  p :     0.018018
      px      :     0.005704
      py      :     0.003626
  4 H s       :     0.875639  s :     0.875639
      pz      :     0.010082  p :     0.022418
      px      :     0.006886
      py      :     0.005449
  5 H s       :     0.808997  s :     0.808997
      pz      :     0.012108  p :     0.023972
      px      :     0.007216
      py      :     0.004648
  6 H s       :     0.808460  s :     0.808460
      pz      :     0.012534  p :     0.024563
      px      :     0.007404
      py      :     0.004625


                     *******************************
                     * LOEWDIN POPULATION ANALYSIS *
                     *******************************

----------------------
LOEWDIN ATOMIC CHARGES
----------------------
   0 O :   -0.005658
   1 C :   -0.507414
   2 C :    0.038450
   3 H :    0.125910
   4 H :    0.111145
   5 H :    0.122905
   6 H :    0.114663

-------------------------------
LOEWDIN REDUCED ORBITAL CHARGES
-------------------------------
  0 O s       :     3.518219  s :     3.518219
      pz      :     1.808758  p :     4.418146
      px      :     1.151433
      py      :     1.457956
      dz2     :     0.007169  d :     0.064647
      dxz     :     0.000243
      dyz     :     0.019926
      dx2y2   :     0.019867
      dxy     :     0.017442
      f0      :     0.000553  f :     0.004646
      f+1     :     0.000120
      f-1     :     0.000669
      f+2     :     0.000984
      f-2     :     0.000052
      f+3     :     0.001286
      f-3     :     0.000984
  1 C s       :     2.819831  s :     2.819831
      pz      :     1.038798  p :     2.939813
      px      :     1.024096
      py      :     0.876919
      dz2     :     0.069049  d :     0.666176
      dxz     :     0.104759
      dyz     :     0.153015
      dx2y2   :     0.134878
      dxy     :     0.204474
      f0      :     0.012382  f :     0.081595
      f+1     :     0.006522
      f-1     :     0.008204
      f+2     :     0.020602
      f-2     :     0.003695
      f+3     :     0.019697
      f-3     :     0.010492
  2 C s       :     2.886813  s :     2.886813
      pz      :     1.079425  p :     2.828778
      px      :     1.112275
      py      :     0.637078
      dz2     :     0.033292  d :     0.221233
      dxz     :     0.107691
      dyz     :     0.006336
      dx2y2   :     0.035495
      dxy     :     0.038418
      f0      :     0.004118  f :     0.024727
      f+1     :     0.004130
      f-1     :     0.000865
      f+2     :     0.004454
      f-2     :     0.000716
      f+3     :     0.004277
      f-3     :     0.006167
  3 H s       :     0.827362  s :     0.827362
      pz      :     0.024196  p :     0.046727
      px      :     0.013727
      py      :     0.008805
  4 H s       :     0.825065  s :     0.825065
      pz      :     0.030505  p :     0.063790
      px      :     0.018465
      py      :     0.014820
  5 H s       :     0.804324  s :     0.804324
      pz      :     0.037919  p :     0.072771
      px      :     0.021530
      py      :     0.013322
  6 H s       :     0.809008  s :     0.809008
      pz      :     0.040248  p :     0.076329
      px      :     0.022570
      py      :     0.013512


                      *****************************
                      * MAYER POPULATION ANALYSIS *
                      *****************************

  NA   - Mulliken gross atomic population
  ZA   - Total nuclear charge
  QA   - Mulliken gross atomic charge
  VA   - Mayer's total valence
  BVA  - Mayer's bonded valence
  FA   - Mayer's free valence

  ATOM       NA         ZA         QA         VA         BVA        FA
  0 O      8.3682     8.0000    -0.3682     1.8406     1.8406    -0.0000
  1 C      6.0365     6.0000    -0.0365     4.0612     4.0612    -0.0000
  2 C      6.1210     6.0000    -0.1210     3.7715     3.7715     0.0000
  3 H      0.9103     1.0000     0.0897     0.9665     0.9665     0.0000
  4 H      0.8981     1.0000     0.1019     0.9626     0.9626     0.0000
  5 H      0.8330     1.0000     0.1670     0.9589     0.9589    -0.0000
  6 H      0.8330     1.0000     0.1670     0.9593     0.9593    -0.0000

  Mayer bond orders larger than 0.100000
B(  0-O ,  1-C ) :   1.0540 B(  0-O ,  2-C ) :   0.8005 B(  1-C ,  2-C ) :   1.0604 
B(  1-C ,  3-H ) :   0.9662 B(  1-C ,  4-H ) :   0.9781 B(  2-C ,  5-H ) :   0.9490 
B(  2-C ,  6-H ) :   0.9509 

-------
TIMINGS
-------

Total SCF time: 0 days 0 hours 0 min 1 sec 

Total time                  ....       1.109 sec
Sum of individual times     ....       1.018 sec  ( 91.8%)

Fock matrix formation       ....       0.799 sec  ( 72.0%)
  Split-RI-J                ....       0.127 sec  ( 15.9% of F)
  Chain of spheres X        ....       0.598 sec  ( 74.9% of F)
  XC integration            ....       0.071 sec  (  8.9% of F)
    Basis function eval.    ....       0.020 sec  ( 28.7% of XC)
    Density eval.           ....       0.015 sec  ( 21.3% of XC)
    XC-Functional eval.     ....       0.004 sec  (  6.2% of XC)
    XC-Potential eval.      ....       0.023 sec  ( 32.2% of XC)
Diagonalization             ....       0.003 sec  (  0.2%)
Density matrix formation    ....       0.000 sec  (  0.0%)
Population analysis         ....       0.003 sec  (  0.2%)
Initial guess               ....       0.005 sec  (  0.5%)
Orbital Transformation      ....       0.000 sec  (  0.0%)
Orbital Orthonormalization  ....       0.001 sec  (  0.1%)
DIIS solution               ....       0.002 sec  (  0.1%)
SOSCF solution              ....       0.003 sec  (  0.2%)
Grid generation             ....       0.204 sec  ( 18.4%)

Maximum memory used throughout the entire SCF-calculation: 61.1 MB


           ************************************************************
           *        Program running with 8 parallel MPI-processes     *
           *              working on a common directory               *
           ************************************************************
------------------------------------------------------------------------------
                        ORCA TD-DFT/TDA CALCULATION
------------------------------------------------------------------------------

Input orbitals are from        ... ox_es1_E_orca0002.gbw
CI-vector output               ... ox_es1_E_orca0002.cis
Tamm-Dancoff approximation     ... operative
CIS-Integral strategy          ... AO-integrals
Integral handling              ... AO integral Direct
Max. core memory used          ... 3000 MB
Reference state                ... RHF
Generation of triplets         ... off
Follow IRoot                   ... off
Number of operators            ... 1
Orbital ranges used for CIS calculation:
 Operator 0:  Orbitals   3... 11  to  12...116
XAS localization array:
 Operator 0:  Orbitals  -1... -1

-------------------
XC-INTEGRATION GRID
-------------------

General Integration Accuracy     IntAcc      ... 3.467
Radial Grid Type                 RadialGrid  ... OptM3 with GC (2021)
Angular Grid (max. ang.)         AngularGrid ... 1 (Lebedev-50)
Angular grid pruning method      GridPruning ... 4 (adaptive)
Weight generation scheme         WeightScheme... Becke
Basis function cutoff            BFCut       ... 1.0000e-11
Integration weight cutoff        WCut        ... 1.0000e-14
Angular grids for H and He will be reduced by one unit
Partially contracted basis set               ... off
Rotationally invariant grid construction     ... off

Total number of grid points                  ...     4541
Total number of batches                      ...       74
Average number of points per batch           ...       61
Average number of grid points per atom       ...      649

---------------------
COSX-INTEGRATION GRID
---------------------

General Integration Accuracy     IntAcc      ... 3.067
Radial Grid Type                 RadialGrid  ... OptM3 with GC (2021)
Angular Grid (max. ang.)         AngularGrid ... 1 (Lebedev-50)
Angular grid pruning method      GridPruning ... 4 (adaptive)
Weight generation scheme         WeightScheme... Becke
Basis function cutoff            BFCut       ... 1.0000e-11
Integration weight cutoff        WCut        ... 1.0000e-14
Angular grids for H and He will be reduced by one unit
Partially contracted basis set               ... on
Rotationally invariant grid construction     ... off

Total number of grid points                  ...     2085
Total number of batches                      ...       37
Average number of points per batch           ...       56
Average number of grid points per atom       ...      298

---------------
TD-DFT XC SETUP
---------------

DFT calculation                         ... on
Name of the grid file                   ... ox_es1_E_orca0002.grid_cis.tmp
Exchange functional (TD-DFT)            ... PBE
   PBE kappa parameter  XKappa (TD-DFT) ...  0.804000
   PBE mue parameter   XMuePBE (TD-DFT) ...  0.219520
Correlation functional (TD-DFT)         ... PBE
   PBE beta parameter CBetaPBE (TD-DFT) ...  0.066725
 LDA part of GGA corr.  LDAOpt (TD-DFT) ... PW91-LDA
Hybrid DFT                              ... on
   Exchange mixing (TD-DFT)             ...  0.250
   GGA exch. scaling (TD-DFT)           ...  0.750
   GGA corr. scaling (TD-DFT)           ...  1.000

Building densities             ... done
Calculating rho(r) on the grid ... done
Building xc-kernel on the grid ... done
                    *** TD-DFT CALCULATION INITIALIZED ***

------------------------
DAVIDSON-DIAGONALIZATION
------------------------

Dimension of the eigenvalue problem            ...    945
Number of roots to be determined               ...      1
Maximum size of the expansion space            ...     10
Maximum number of iterations                   ...    100
Convergence tolerance for the residual         ...    2.500e-07
Convergence tolerance for the energies         ...    2.500e-07
Orthogonality tolerance                        ...    1.000e-14
Level Shift                                    ...    0.000e+00
Constructing the preconditioner                ... o.k.
Building the initial guess                     ... o.k.
Number of trial vectors determined             ...     10


                       ****Iteration    0****

   Memory handling for direct AO based CIS:
   Memory per vector needed      ...     1 MB
   Memory needed                 ...     1 MB
   Memory available              ...  3000 MB
   Number of vectors per batch   ...  3000
   Number of batches             ...     1
   Time for densities:            0.001
   Time for RI-J (Direct):        0.016
   Time for K (COSX):             0.060
   Time for XC-Integration:       0.017
   Time for Sigma-Completion:     0.000
   Size of expansion space: 3
   Lowest Energy          :     0.030343837370
   Maximum Energy change  :     0.030343837370 (vector 0)
   Maximum residual norm  :     0.002331233486

                       ****Iteration    1****
   Time for densities:            0.000
   Time for RI-J (Direct):        0.013
   Time for K (COSX):             0.056
   Time for XC-Integration:       0.007
   Time for Sigma-Completion:     0.000
   Size of expansion space: 4
   Lowest Energy          :     0.028692518529
   Maximum Energy change  :     0.001651318841 (vector 0)
   Maximum residual norm  :     0.000039379842

                       ****Iteration    2****
   Time for densities:            0.000
   Time for RI-J (Direct):        0.013
   Time for K (COSX):             0.057
   Time for XC-Integration:       0.007
   Time for Sigma-Completion:     0.000
   Size of expansion space: 5
   Lowest Energy          :     0.028664334027
   Maximum Energy change  :     0.000028184502 (vector 0)
   Maximum residual norm  :     0.000001423509

                       ****Iteration    3****
   Time for densities:            0.000
   Time for RI-J (Direct):        0.013
   Time for K (COSX):             0.057
   Time for XC-Integration:       0.007
   Time for Sigma-Completion:     0.000
   Size of expansion space: 6
   Lowest Energy          :     0.028663047006
   Maximum Energy change  :     0.000001287021 (vector 0)
   Maximum residual norm  :     0.000000096791

      *** CONVERGENCE OF RESIDUAL NORM REACHED ***

Storing the converged CI vectors               ... ox_es1_E_orca0002.cis1

                 *** DAVIDSON DONE ***

Total time for solving the CIS problem:     0.328sec

------------------------------------
TD-DFT/TDA EXCITED STATES (SINGLETS)
------------------------------------

the weight of the individual excitations are printed if larger than 1.0e-02

STATE  1:  E=   0.028663 au      0.780 eV     6290.8 cm**-1 <S**2> =   0.000000
    11a ->  12a  :     0.990972 (c=  0.99547564)


-----------------------------
TD-DFT/TDA-EXCITATION SPECTRA
-----------------------------

Center of mass = ( -0.6090,  0.0217, -0.0453)
Calculating the Dipole integrals                  ... done
Transforming integrals                            ... done
Calculating the Linear Momentum integrals         ... done
Transforming integrals                            ... done
Calculating angular momentum integrals            ... done
Transforming integrals                            ... done

-----------------------------------------------------------------------------
         ABSORPTION SPECTRUM VIA TRANSITION ELECTRIC DIPOLE MOMENTS
-----------------------------------------------------------------------------
State   Energy    Wavelength  fosc         T2        TX        TY        TZ  
        (cm-1)      (nm)                 (au**2)    (au)      (au)      (au) 
-----------------------------------------------------------------------------
   1    6290.8   1589.6   0.000064468   0.00337   0.01764  -0.00512  -0.05510

-----------------------------------------------------------------------------
         ABSORPTION SPECTRUM VIA TRANSITION VELOCITY DIPOLE MOMENTS
-----------------------------------------------------------------------------
State   Energy    Wavelength   fosc        P2         PX        PY        PZ  
        (cm-1)      (nm)                 (au**2)     (au)      (au)      (au) 
-----------------------------------------------------------------------------
   1    6290.8   1589.6   0.012409437   0.00053   0.00542  -0.00111   0.02243

-------------------------------------------------------------------
                             CD SPECTRUM
-------------------------------------------------------------------
State  Energy     Wavelength     R         MX        MY        MZ   
       (cm-1)       (nm)     (1e40*cgs)   (au)      (au)      (au)  
-------------------------------------------------------------------
   1    6290.8   1589.6     -0.29680  -0.01933   0.28178  -0.02096

-------------------------------------------------------------------
         CD SPECTRUM VIA TRANSITION VELOCITY DIPOLE MOMENTS        
-------------------------------------------------------------------
State  Energy     Wavelength     R         MX        MY        MZ   
       (cm-1)       (nm)     (1e40*cgs)   (au)      (au)      (au)  
-------------------------------------------------------------------
   1    6290.8   1589.6    -14.59842  -0.01933   0.28178  -0.02096

Total run time:        0.618 sec

           *** ORCA-CIS/TD-DFT FINISHED WITHOUT ERROR ***

Maximum memory used throughout the entire CIS-calculation: 49.4 MB

-----------------------
CIS/TD-DFT TOTAL ENERGY
-----------------------

    E(SCF)  =   -153.545245317 Eh
    DE(CIS) =      0.028663047 Eh (Root  1)
    ----------------------------- ---------
    E(tot)  =   -153.516582270 Eh



-------------------------------------------------------------------------------
                          DFT DISPERSION CORRECTION                            
                                                                               
                              DFTD3 V3.1  Rev 1                                
                          USING Becke-Johnson damping                          
-------------------------------------------------------------------------------
The PBE0 functional is recognized
Active option DFTDOPT                   ...         4   

molecular C6(AA) [au] = 394.204182 


            DFT-D V3
 parameters
 s6 scaling factor         :     1.0000 
 a1 scaling factor         :     0.4145 
 s8 scaling factor         :     1.2177 
 a2 scaling factor         :     4.8593 
 ad hoc parameters k1-k3   :    16.0000     1.3333    -4.0000 

 Edisp/kcal,au: -1.655833716612  -0.002638738710 
 E6   /kcal   :  -1.080846457 
 E8   /kcal   :  -0.574987259 
 % E8         :  34.724939686 

-------------------------   ----------------
Dispersion correction           -0.002638739
-------------------------   ----------------


-------------------------   --------------------
FINAL SINGLE POINT ENERGY      -153.519221008782
-------------------------   --------------------



           ************************************************************
           *        Program running with 8 parallel MPI-processes     *
           *              working on a common directory               *
           ************************************************************
------------------------------------------------------------------------------
                         ORCA SCF GRADIENT CALCULATION
------------------------------------------------------------------------------


------------------------
TD-DFT GRADIENT XC SETUP
------------------------

Building densities                     ... done
Calculating rho(r) on the grid         ... done
Building xc-kernel on the grid         ... done
Building xc 3rd derivative on the grid      ... done
                *** TD-DFT GRADIENT CALCULATION INITIALIZED ***

-------------------
TD-DFT/TDA GRADIENT
-------------------

Reference wavefunction             ... RHF
State of interest                  ... 1
Basis dimension                    ... 117
DFT-XC contribution needed         ... YES
RI-approximation                   ... ON
CIS-vectors being read from        ... ox_es1_E_orca0002.cis

 => Number of Vectors found: 1
 => Orbital Window: 3...11 -> 12...116

Reading the CIS file                     ... done
Norm of the CI vector                    ... 1.000000000
Making the CIS (pseudo)densities         ... done
Making operators G(D) and Q(T)           ... done
Transforming the Fock operators          ... done
Making the frozen-core relaxed density   ... done
Constructing the G(H) operator           ... done
Transforming the G(H) operator           ... done
Calculating the CIS Lagrangian           ... done
Solving the Z-vector equations           ... done
Finalizing the relaxed density           ... done
Storing the relaxed density              ... done
Constructing the G(Z) operator           ... done
Transforming the G(Z) operator           ... done
Making the W-matrix                      ... done
Finalizing the W-matrix                  ... done
Transforming the W-matrix                ... done
Nuclear repulsion gradient               ... done
One-Electron gradient                    ... done
Dispersion correction                    ... done
Prescreening matrices                    ... done
COSX-gradient                            ... done
Coulomb gradient (RI)                    ... done
Exchange-Correlation gradient            ... done

                 ---------------------------
                 EXCITED STATE GRADIENT DONE
                 ---------------------------

------------------
CARTESIAN GRADIENT
------------------

   1   O   :    0.007820512   -0.025692109   -0.000358150
   2   C   :    0.005768562   -0.045806787   -0.038270255
   3   C   :    0.040782622    0.030885071    0.012420500
   4   H   :   -0.021442857    0.015005150    0.028124091
   5   H   :    0.012421437    0.029317925    0.014815871
   6   H   :   -0.018416349   -0.000548658    0.026110890
   7   H   :   -0.026981392   -0.003185299   -0.042799159

Difference to translation invariance:
           :   -0.0000474652   -0.0000247089    0.0000437872

Difference to rotation invariance:
           :    0.0000766463    0.0000847548    0.0001422789

Norm of the cartesian gradient     ...    0.1157121922
RMS gradient                       ...    0.0252504705
MAX gradient                       ...    0.0458067874

------------------------------------------------------------------------------
                  RELAXED CIS/TDA DENSITY POPULATION ANALYSIS
                                   IROOT 1
------------------------------------------------------------------------------
------------------------------------------------------------------------------
                           ORCA POPULATION ANALYSIS
------------------------------------------------------------------------------
Input electron density              ... ox_es1_E_orca0002.cisp
BaseName (.gbw .S,...)              ... ox_es1_E_orca0002

                    ********************************
                    * MULLIKEN POPULATION ANALYSIS *
                    ********************************

-----------------------
MULLIKEN ATOMIC CHARGES
-----------------------
   0 O :   -0.282671
   1 C :   -0.072065
   2 C :   -0.243018
   3 H :    0.157576
   4 H :    0.153245
   5 H :    0.142254
   6 H :    0.144679
Sum of atomic charges:   -0.0000000

--------------------------------
MULLIKEN REDUCED ORBITAL CHARGES
--------------------------------
  0 O s       :     3.885111  s :     3.885111
      pz      :     1.134135  p :     4.369981
      px      :     1.899672
      py      :     1.336174
      dz2     :     0.003006  d :     0.026372
      dxz     :     0.000211
      dyz     :     0.007582
      dx2y2   :     0.009446
      dxy     :     0.006128
      f0      :     0.000077  f :     0.001206
      f+1     :    -0.000017
      f-1     :     0.000101
      f+2     :     0.000223
      f-2     :     0.000021
      f+3     :     0.000346
      f-3     :     0.000455
  1 C s       :     3.190776  s :     3.190776
      pz      :     0.991809  p :     2.708987
      px      :     0.960859
      py      :     0.756319
      dz2     :     0.009446  d :     0.160854
      dxz     :     0.024437
      dyz     :     0.030114
      dx2y2   :     0.025497
      dxy     :     0.071360
      f0      :     0.001062  f :     0.011449
      f+1     :     0.001340
      f-1     :     0.000608
      f+2     :     0.002015
      f-2     :     0.000218
      f+3     :     0.003829
      f-3     :     0.002377
  2 C s       :     3.268417  s :     3.268417
      pz      :     1.041818  p :     2.929014
      px      :     0.955213
      py      :     0.931982
      dz2     :     0.005686  d :     0.040874
      dxz     :     0.014727
      dyz     :     0.001551
      dx2y2   :     0.006826
      dxy     :     0.012084
      f0      :     0.000584  f :     0.004713
      f+1     :     0.001039
      f-1     :     0.000163
      f+2     :     0.000700
      f-2     :     0.000095
      f+3     :     0.000943
      f-3     :     0.001189
  3 H s       :     0.823602  s :     0.823602
      pz      :     0.009020  p :     0.018822
      px      :     0.005965
      py      :     0.003837
  4 H s       :     0.823628  s :     0.823628
      pz      :     0.010421  p :     0.023127
      px      :     0.007024
      py      :     0.005682
  5 H s       :     0.832870  s :     0.832870
      pz      :     0.011189  p :     0.024876
      px      :     0.006951
      py      :     0.006736
  6 H s       :     0.829827  s :     0.829827
      pz      :     0.011486  p :     0.025495
      px      :     0.007090
      py      :     0.006918


                     *******************************
                     * LOEWDIN POPULATION ANALYSIS *
                     *******************************

----------------------
LOEWDIN ATOMIC CHARGES
----------------------
   0 O :    0.051102
   1 C :   -0.460138
   2 C :   -0.133541
   3 H :    0.181598
   4 H :    0.151008
   5 H :    0.108815
   6 H :    0.101156

-------------------------------
LOEWDIN REDUCED ORBITAL CHARGES
-------------------------------
  0 O s       :     3.523459  s :     3.523459
      pz      :     1.097954  p :     4.356326
      px      :     1.800439
      py      :     1.457933
      dz2     :     0.007272  d :     0.064719
      dxz     :     0.000264
      dyz     :     0.017060
      dx2y2   :     0.020390
      dxy     :     0.019734
      f0      :     0.000533  f :     0.004393
      f+1     :     0.000073
      f-1     :     0.000459
      f+2     :     0.000708
      f-2     :     0.000055
      f+3     :     0.001375
      f-3     :     0.001190
  1 C s       :     2.824887  s :     2.824887
      pz      :     0.969997  p :     2.933147
      px      :     1.066990
      py      :     0.896160
      dz2     :     0.066584  d :     0.613834
      dxz     :     0.109067
      dyz     :     0.080026
      dx2y2   :     0.161438
      dxy     :     0.196720
      f0      :     0.007354  f :     0.088270
      f+1     :     0.006558
      f-1     :     0.007570
      f+2     :     0.013039
      f-2     :     0.002414
      f+3     :     0.028697
      f-3     :     0.022638
  2 C s       :     2.886912  s :     2.886912
      pz      :     1.071202  p :     3.002896
      px      :     1.089578
      py      :     0.842116
      dz2     :     0.035514  d :     0.218583
      dxz     :     0.094065
      dyz     :     0.004276
      dx2y2   :     0.036972
      dxy     :     0.047757
      f0      :     0.003868  f :     0.025150
      f+1     :     0.004391
      f-1     :     0.000989
      f+2     :     0.004084
      f-2     :     0.000556
      f+3     :     0.005014
      f-3     :     0.006249
  3 H s       :     0.770516  s :     0.770516
      pz      :     0.024574  p :     0.047886
      px      :     0.014214
      py      :     0.009098
  4 H s       :     0.783995  s :     0.783995
      pz      :     0.030968  p :     0.064997
      px      :     0.018777
      py      :     0.015252
  5 H s       :     0.815678  s :     0.815678
      pz      :     0.034921  p :     0.075507
      px      :     0.020727
      py      :     0.019859
  6 H s       :     0.819253  s :     0.819253
      pz      :     0.037054  p :     0.079591
      px      :     0.021694
      py      :     0.020843


                      *****************************
                      * MAYER POPULATION ANALYSIS *
                      *****************************

  NA   - Mulliken gross atomic population
  ZA   - Total nuclear charge
  QA   - Mulliken gross atomic charge
  VA   - Mayer's total valence
  BVA  - Mayer's bonded valence
  FA   - Mayer's free valence

  ATOM       NA         ZA         QA         VA         BVA        FA
  0 O      8.2827     8.0000    -0.2827     1.8632     1.2649     0.5983
  1 C      6.0721     6.0000    -0.0721     4.1224     4.0280     0.0944
  2 C      6.2430     6.0000    -0.2430     3.8589     3.0870     0.7719
  3 H      0.8424     1.0000     0.1576     0.9567     0.8645     0.0922
  4 H      0.8468     1.0000     0.1532     0.9600     0.8916     0.0684
  5 H      0.8577     1.0000     0.1423     0.9773     0.9705     0.0069
  6 H      0.8553     1.0000     0.1447     0.9768     0.9699     0.0069

  Mayer bond orders larger than 0.100000
B(  0-O ,  1-C ) :   1.1806 B(  1-C ,  2-C ) :   1.0957 B(  1-C ,  3-H ) :   0.8538 
B(  1-C ,  4-H ) :   0.8945 B(  2-C ,  5-H ) :   0.9592 B(  2-C ,  6-H ) :   0.9599 



-------
TIMINGS
-------

Total TD-DFT gradient time         ...        6.270 sec

Fock matrix formation       ....       0.907 sec  ( 14.5%)
  Coulomb formation         ....       0.729 sec  ( 80.4% of F)
  RI-J                      ....       0.322 sec  ( 35.5% of F)
  Chain of spheres X        ....       0.406 sec  ( 44.8% of F)
  XC integration            ....       0.178 sec  ( 19.6% of F)
Z-vector equation           ....       2.273 sec  ( 36.2%)
One electron gradient       ....       0.036 sec  (  0.6%)
Prescreening matrices       ....       0.169 sec  (  2.7%)
RI-J Coulomb gradient       ....       0.291 sec  (  4.6%)
COSX gradient               ....       0.415 sec  (  6.6%)
XC gradient                 ....       1.840 sec  ( 29.3%)

Maximum memory used throughout the entire SCFGRAD-calculation: 130.2 MB

                            ***************************************
                            *     ORCA property calculations      *
                            ***************************************

                                    ---------------------
                                    Active property flags
                                    ---------------------
   (+) Dipole Moment


------------------------------------------------------------------------------
                       ORCA ELECTRIC PROPERTIES CALCULATION
------------------------------------------------------------------------------

Dipole Moment Calculation                       ... on
Quadrupole Moment Calculation                   ... off
Polarizability Calculation                      ... off
GBWName                                         ... ox_es1_E_orca0002.gbw
Electron density                                ... ox_es1_E_orca0002.scfp
The origin for moment calculation is the CENTER OF MASS  = (-0.608955,  0.021684 -0.045252)

-------------
DIPOLE MOMENT
-------------
                                X             Y             Z
Electronic contribution:     -0.27450       1.39227      -0.16795
Nuclear contribution   :      1.07490      -2.48329       0.18756
                        -----------------------------------------
Total Dipole Moment    :      0.80041      -1.09102       0.01961
                        -----------------------------------------
Magnitude (a.u.)       :      1.35328
Magnitude (Debye)      :      3.43976



--------------------
Rotational spectrum 
--------------------
 
Rotational constants in cm-1:     1.255683     0.412980     0.354458 
Rotational constants in MHz : 37644.426662 12380.838187 10626.376125 

 Dipole components along the rotational axes: 
x,y,z [a.u.] :     1.292428    -0.398724     0.044868 
x,y,z [Debye]:     3.285090    -1.013476     0.114045 

 

                        *** CIS RELAXED DENSITY ***

------------------------------------------------------------------------------
                       ORCA ELECTRIC PROPERTIES CALCULATION
------------------------------------------------------------------------------

Dipole Moment Calculation                       ... on
Quadrupole Moment Calculation                   ... off
Polarizability Calculation                      ... off
GBWName                                         ... ox_es1_E_orca0002.gbw
Electron density                                ... ox_es1_E_orca0002.cisp
The origin for moment calculation is the CENTER OF MASS  = (-0.608955,  0.021684 -0.045252)

-------------
DIPOLE MOMENT
-------------
                                X             Y             Z
Electronic contribution:     -0.94255       1.55281      -0.15209
Nuclear contribution   :      1.07490      -2.48329       0.18756
                        -----------------------------------------
Total Dipole Moment    :      0.13236      -0.93048       0.03548
                        -----------------------------------------
Magnitude (a.u.)       :      0.94052
Magnitude (Debye)      :      2.39061



--------------------
Rotational spectrum 
--------------------
 
Rotational constants in cm-1:     1.255683     0.412980     0.354458 
Rotational constants in MHz : 37644.426662 12380.838187 10626.376125 

 Dipole components along the rotational axes: 
x,y,z [a.u.] :     0.660875    -0.668820     0.022397 
x,y,z [Debye]:     1.679811    -1.700006     0.056929 

 

Timings for individual modules:

Sum of individual times         ...        8.779 sec (=   0.146 min)
GTO integral calculation        ...        0.247 sec (=   0.004 min)   2.8 %
SCF iterations                  ...        1.289 sec (=   0.021 min)  14.7 %
CIS module                      ...        0.817 sec (=   0.014 min)   9.3 %
SCF Gradient evaluation         ...        6.427 sec (=   0.107 min)  73.2 %
                             ****ORCA TERMINATED NORMALLY****
TOTAL RUN TIME: 0 days 0 hours 0 minutes 9 seconds 117 msec
