
                                 *****************
                                 * O   R   C   A *
                                 *****************

                                            #,                                       
                                            ###                                      
                                            ####                                     
                                            #####                                    
                                            ######                                   
                                           ########,                                 
                                     ,,################,,,,,                         
                               ,,#################################,,                 
                          ,,##########################################,,             
                       ,#########################################, ''#####,          
                    ,#############################################,,   '####,        
                  ,##################################################,,,,####,       
                ,###########''''           ''''###############################       
              ,#####''   ,,,,##########,,,,          '''####'''          '####       
            ,##' ,,,,###########################,,,                        '##       
           ' ,,###''''                  '''############,,,                           
         ,,##''                                '''############,,,,        ,,,,,,###''
      ,#''                                            '''#######################'''  
     '                                                          ''''####''''         
             ,#######,   #######,   ,#######,      ##                                
            ,#'     '#,  ##    ##  ,#'     '#,    #''#        ######   ,####,        
            ##       ##  ##   ,#'  ##            #'  '#       #        #'  '#        
            ##       ##  #######   ##           ,######,      #####,   #    #        
            '#,     ,#'  ##    ##  '#,     ,#' ,#      #,         ##   #,  ,#        
             '#######'   ##     ##  '#######'  #'      '#     #####' # '####'        



                  #######################################################
                  #                        -***-                        #
                  #          Department of theory and spectroscopy      #
                  #    Directorship and core code : Frank Neese         #
                  #        Max Planck Institute fuer Kohlenforschung    #
                  #                Kaiser Wilhelm Platz 1               #
                  #                 D-45470 Muelheim/Ruhr               #
                  #                      Germany                        #
                  #                                                     #
                  #                  All rights reserved                #
                  #                        -***-                        #
                  #######################################################


                         Program Version 5.0.2 -  RELEASE  -


 With contributions from (in alphabetic order):
   Daniel Aravena         : Magnetic Suceptibility
   Michael Atanasov       : Ab Initio Ligand Field Theory (pilot matlab implementation)
   Alexander A. Auer      : GIAO ZORA, VPT2 properties, NMR spectrum
   Ute Becker             : Parallelization
   Giovanni Bistoni       : ED, misc. LED, open-shell LED, HFLD
   Martin Brehm           : Molecular dynamics
   Dmytro Bykov           : SCF Hessian
   Vijay G. Chilkuri      : MRCI spin determinant printing, contributions to CSF-ICE
   Dipayan Datta          : RHF DLPNO-CCSD density
   Achintya Kumar Dutta   : EOM-CC, STEOM-CC
   Dmitry Ganyushin       : Spin-Orbit,Spin-Spin,Magnetic field MRCI
   Miquel Garcia          : C-PCM and meta-GGA Hessian, CC/C-PCM, Gaussian charge scheme
   Yang Guo               : DLPNO-NEVPT2, F12-NEVPT2, CIM, IAO-localization
   Andreas Hansen         : Spin unrestricted coupled pair/coupled cluster methods
   Benjamin Helmich-Paris : MC-RPA, TRAH-SCF, COSX integrals
   Lee Huntington         : MR-EOM, pCC
   Robert Izsak           : Overlap fitted RIJCOSX, COSX-SCS-MP3, EOM
   Marcus Kettner         : VPT2
   Christian Kollmar      : KDIIS, OOCD, Brueckner-CCSD(T), CCSD density, CASPT2, CASPT2-K
   Simone Kossmann        : Meta GGA functionals, TD-DFT gradient, OOMP2, MP2 Hessian
   Martin Krupicka        : Initial AUTO-CI
   Lucas Lang             : DCDCAS
   Marvin Lechner         : AUTO-CI (C++ implementation), FIC-MRCC
   Dagmar Lenk            : GEPOL surface, SMD
   Dimitrios Liakos       : Extrapolation schemes; Compound Job, initial MDCI parallelization
   Dimitrios Manganas     : Further ROCIS development; embedding schemes
   Dimitrios Pantazis     : SARC Basis sets
   Anastasios Papadopoulos: AUTO-CI, single reference methods and gradients
   Taras Petrenko         : DFT Hessian,TD-DFT gradient, ASA, ECA, R-Raman, ABS, FL, XAS/XES, NRVS
   Peter Pinski           : DLPNO-MP2, DLPNO-MP2 Gradient
   Christoph Reimann      : Effective Core Potentials
   Marius Retegan         : Local ZFS, SOC
   Christoph Riplinger    : Optimizer, TS searches, QM/MM, DLPNO-CCSD(T), (RO)-DLPNO pert. Triples
   Tobias Risthaus        : Range-separated hybrids, TD-DFT gradient, RPA, STAB
   Michael Roemelt        : Original ROCIS implementation
   Masaaki Saitow         : Open-shell DLPNO-CCSD energy and density
   Barbara Sandhoefer     : DKH picture change effects
   Avijit Sen             : IP-ROCIS
   Kantharuban Sivalingam : CASSCF convergence, NEVPT2, FIC-MRCI
   Bernardo de Souza      : ESD, SOC TD-DFT
   Georgi Stoychev        : AutoAux, RI-MP2 NMR, DLPNO-MP2 response
   Willem Van den Heuvel  : Paramagnetic NMR
   Boris Wezisla          : Elementary symmetry handling
   Frank Wennmohs         : Technical directorship


 We gratefully acknowledge several colleagues who have allowed us to
 interface, adapt or use parts of their codes:
   Stefan Grimme, W. Hujo, H. Kruse, P. Pracht,  : VdW corrections, initial TS optimization,
                  C. Bannwarth, S. Ehlert          DFT functionals, gCP, sTDA/sTD-DF
   Ed Valeev, F. Pavosevic, A. Kumar             : LibInt (2-el integral package), F12 methods
   Garnet Chan, S. Sharma, J. Yang, R. Olivares  : DMRG
   Ulf Ekstrom                                   : XCFun DFT Library
   Mihaly Kallay                                 : mrcc  (arbitrary order and MRCC methods)
   Jiri Pittner, Ondrej Demel                    : Mk-CCSD
   Frank Weinhold                                : gennbo (NPA and NBO analysis)
   Christopher J. Cramer and Donald G. Truhlar   : smd solvation model
   Lars Goerigk                                  : TD-DFT with DH, B97 family of functionals
   V. Asgeirsson, H. Jonsson                     : NEB implementation
   FAccTs GmbH                                   : IRC, NEB, NEB-TS, DLPNO-Multilevel, CI-OPT
                                                   MM, QMMM, 2- and 3-layer-ONIOM, Crystal-QMMM,
                                                   LR-CPCM, SF, NACMEs, symmetry and pop. for TD-DFT,
                                                   nearIR, NL-DFT gradient (VV10), updates on ESD,
                                                   ML-optimized integration grids
   S Lehtola, MJT Oliveira, MAL Marques          : LibXC Library
   Liviu Ungur et al                             : ANISO software


 Your calculation uses the libint2 library for the computation of 2-el integrals
 For citations please refer to: http://libint.valeyev.net

 Your ORCA version has been built with support for libXC version: 5.1.0
 For citations please refer to: https://tddft.org/programs/libxc/

 This ORCA versions uses:
   CBLAS   interface :  Fast vector & matrix operations
   LAPACKE interface :  Fast linear algebra routines
   SCALAPACK package :  Parallel linear algebra routines
   Shared memory     :  Shared parallel matrices
   BLAS/LAPACK       :  OpenBLAS 0.3.15  USE64BITINT DYNAMIC_ARCH NO_AFFINITY SkylakeX SINGLE_THREADED
        Core in use  :  SkylakeX
   Copyright (c) 2011-2014, The OpenBLAS Project


Your calculation utilizes the atom-pairwise dispersion correction
with the Becke-Johnson damping scheme (D3BJ)
Cite in your paper:
S.Grimme, S.Ehrlich, L.Goerigk, J Comput Chem, (2011), 32, 1456–1465 
S.Grimme, J.Antony, S.Ehrlich and H.Krieg, J.Chem.Phys., 132, (2010), 154104 
   

================================================================================

----- Orbital basis set information -----
Your calculation utilizes the basis: def2-TZVP
   F. Weigend and R. Ahlrichs, Phys. Chem. Chem. Phys. 7, 3297 (2005).

----- AuxJ basis set information -----
Your calculation utilizes the auxiliary basis: def2/J
   F. Weigend, Phys. Chem. Chem. Phys. 8, 1057 (2006).

================================================================================
                                        WARNINGS
                       Please study these warnings very carefully!
================================================================================

INFO   : Checking CIS options ...

WARNING: CIS/ROCIS methods need fully converged wavefunctions
  ===> : Setting SCFConvForced true
         You can overwrite this default with %scf ConvForced false 


INFO   : the flag for use of the SHARK integral package has been found!

================================================================================
                                       INPUT FILE
================================================================================
NAME = ox_es1_D_orca0006.inp
|  1> ! engrad PBE0 D3BJ def2-TZVP  
|  2> %pal nprocs 8 end
|  3> %maxcore 3000
|  4> 
|  5> %tddft
|  6>   nroots 1
|  7>   tda true
|  8>   Iroot 1
|  9>   end 
| 10> *xyz 0 1 
| 11> O   -0.7534389149492687 1.0021736952359295 0.03532799131167136
| 12> C   -0.7143440292757276 -0.3911713142317879 -0.04540993799565835
| 13> C   0.7567674098144983 -0.4578683025883427 -0.09281337029905333
| 14> H   -1.2032663319031136 -0.6451829795053435 0.9371426928641996
| 15> H   -1.2443722970757378 -0.6703877919265502 -0.8174735583249779
| 16> H   1.2482126705206202 -0.6751270548397333 -0.9915879696337092
| 17> H   1.2619604479123154 -0.6059341909963575 0.9414643391084392
| 18> *
| 19> 
| 20>                          ****END OF INPUT****
================================================================================

                     *******************************
                     * Energy+Gradient Calculation *
                     *******************************

---------------------------------
CARTESIAN COORDINATES (ANGSTROEM)
---------------------------------
  O     -0.753439    1.002174    0.035328
  C     -0.714344   -0.391171   -0.045410
  C      0.756767   -0.457868   -0.092813
  H     -1.203266   -0.645183    0.937143
  H     -1.244372   -0.670388   -0.817474
  H      1.248213   -0.675127   -0.991588
  H      1.261960   -0.605934    0.941464

----------------------------
CARTESIAN COORDINATES (A.U.)
----------------------------
  NO LB      ZA    FRAG     MASS         X           Y           Z
   0 O     8.0000    0    15.999   -1.423793    1.893834    0.066760
   1 C     6.0000    0    12.011   -1.349915   -0.739207   -0.085812
   2 C     6.0000    0    12.011    1.430083   -0.865246   -0.175392
   3 H     1.0000    0     1.008   -2.273844   -1.219219    1.770943
   4 H     1.0000    0     1.008   -2.351523   -1.266849   -1.544801
   5 H     1.0000    0     1.008    2.358780   -1.275805   -1.873830
   6 H     1.0000    0     1.008    2.384760   -1.145050    1.779110

--------------------------------
INTERNAL COORDINATES (ANGSTROEM)
--------------------------------
 O      0   0   0     0.000000000000     0.00000000     0.00000000
 C      1   0   0     1.396229686951     0.00000000     0.00000000
 C      2   1   0     1.473385367062    94.30075518     0.00000000
 H      2   1   3     1.126488622451    99.34820549   118.09614620
 H      2   1   3     0.977227731862   108.39893410   236.16449679
 H      3   2   1     1.047146403379   120.37124124   254.36240157
 H      3   2   1     1.160548962013   114.31394693    93.60231990

---------------------------
INTERNAL COORDINATES (A.U.)
---------------------------
 O      0   0   0     0.000000000000     0.00000000     0.00000000
 C      1   0   0     2.638491728388     0.00000000     0.00000000
 C      2   1   0     2.784294833474    94.30075518     0.00000000
 H      2   1   3     2.128754989410    99.34820549   118.09614620
 H      2   1   3     1.846692783691   108.39893410   236.16449679
 H      3   2   1     1.978819924507   120.37124124   254.36240157
 H      3   2   1     2.193119703211   114.31394693    93.60231990

---------------------
BASIS SET INFORMATION
---------------------
There are 3 groups of distinct atoms

 Group   1 Type O   : 11s6p2d1f contracted to 5s3p2d1f pattern {62111/411/11/1}
 Group   2 Type C   : 11s6p2d1f contracted to 5s3p2d1f pattern {62111/411/11/1}
 Group   3 Type H   : 5s1p contracted to 3s1p pattern {311/1}

Atom   0O    basis set group =>   1
Atom   1C    basis set group =>   2
Atom   2C    basis set group =>   2
Atom   3H    basis set group =>   3
Atom   4H    basis set group =>   3
Atom   5H    basis set group =>   3
Atom   6H    basis set group =>   3
---------------------------------
AUXILIARY/J BASIS SET INFORMATION
---------------------------------
There are 3 groups of distinct atoms

 Group   1 Type O   : 12s5p4d2f1g contracted to 6s4p3d1f1g pattern {711111/2111/211/2/1}
 Group   2 Type C   : 12s5p4d2f1g contracted to 6s4p3d1f1g pattern {711111/2111/211/2/1}
 Group   3 Type H   : 5s2p1d contracted to 3s1p1d pattern {311/2/1}

Atom   0O    basis set group =>   1
Atom   1C    basis set group =>   2
Atom   2C    basis set group =>   2
Atom   3H    basis set group =>   3
Atom   4H    basis set group =>   3
Atom   5H    basis set group =>   3
Atom   6H    basis set group =>   3

Checking for AutoStart:
The File: ox_es1_D_orca0006.gbw exists
Trying to determine its content:
     ... Fine, the file contains calculation information
     ... Fine, the calculation information was read
     ... Fine, the file contains a basis set
     ... Fine, the basis set was read
     ... Fine, the file contains a geometry
     ... Fine, the geometry was read
     ... Fine, the file contains a set of orbitals
     ... Fine, the orbitals can be read
     => possible old guess file was deleted
     => GBW file was renamed to GES file
     => GES file is set as startup file
     => Guess is set to MORead
     ... now leaving AutoStart



           ************************************************************
           *        Program running with 8 parallel MPI-processes     *
           *              working on a common directory               *
           ************************************************************
------------------------------------------------------------------------------
                           ORCA GTO INTEGRAL CALCULATION
                           -- RI-GTO INTEGRALS CHOSEN --
------------------------------------------------------------------------------
------------------------------------------------------------------------------
                   ___                                                        
                  /   \      - P O W E R E D   B Y -                         
                 /     \                                                     
                 |  |  |   _    _      __       _____    __    __             
                 |  |  |  | |  | |    /  \     |  _  \  |  |  /  |          
                  \  \/   | |  | |   /    \    | | | |  |  | /  /          
                 / \  \   | |__| |  /  /\  \   | |_| |  |  |/  /          
                |  |  |   |  __  | /  /__\  \  |    /   |      \           
                |  |  |   | |  | | |   __   |  |    \   |  |\   \          
                \     /   | |  | | |  |  |  |  | |\  \  |  | \   \       
                 \___/    |_|  |_| |__|  |__|  |_| \__\ |__|  \__/        
                                                                              
                      - O R C A' S   B I G   F R I E N D -                    
                                      &                                       
                       - I N T E G R A L  F E E D E R -                       
                                                                              
 v1 FN, 2020, v2 2021                                                         
------------------------------------------------------------------------------


Reading SHARK input file ox_es1_D_orca0006.SHARKINP.tmp ... ok
----------------------
SHARK INTEGRAL PACKAGE
----------------------

Number of atoms                             ...      7
Number of basis functions                   ...    117
Number of shells                            ...     49
Maximum angular momentum                    ...      3
Integral batch strategy                     ... SHARK/LIBINT Hybrid
RI-J (if used) integral strategy            ... SPLIT-RIJ (Revised 2003 algorithm where possible)
Printlevel                                  ...      1
Contraction scheme used                     ... SEGMENTED contraction
Coulomb Range Separation                    ... NOT USED
Exchange Range Separation                   ... NOT USED
Finite Nucleus Model                        ... NOT USED
Auxiliary Coulomb fitting basis             ... AVAILABLE
   # of basis functions in Aux-J            ...    191
   # of shells in Aux-J                     ...     65
   Maximum angular momentum in Aux-J        ...      4
Auxiliary J/K fitting basis                 ... NOT available
Auxiliary Correlation fitting basis         ... NOT available
Auxiliary 'external' fitting basis          ... NOT available
Integral threshold                          ...     2.500000e-11
Primitive cut-off                           ...     2.500000e-12
Primitive pair pre-selection threshold      ...     2.500000e-12

Calculating pre-screening integrals         ... done (  0.0 sec) Dimension = 49
Organizing shell pair data                  ... done (  0.0 sec)
Shell pair information
Total number of shell pairs                 ...      1225
Shell pairs after pre-screening             ...      1214
Total number of primitive shell pairs       ...      3648
Primitive shell pairs kept                  ...      3093
          la=0 lb=0:    368 shell pairs
          la=1 lb=0:    351 shell pairs
          la=1 lb=1:     91 shell pairs
          la=2 lb=0:    161 shell pairs
          la=2 lb=1:     78 shell pairs
          la=2 lb=2:     21 shell pairs
          la=3 lb=0:     81 shell pairs
          la=3 lb=1:     39 shell pairs
          la=3 lb=2:     18 shell pairs
          la=3 lb=3:      6 shell pairs

Calculating one electron integrals          ... done (  0.0 sec)
Calculating RI/J V-Matrix + Cholesky decomp.... done (  0.0 sec)
Calculating Nuclear repulsion               ... done (  0.0 sec) ENN=     69.591331281696 Eh

SHARK setup successfully completed in   0.1 seconds

Maximum memory used throughout the entire GTOINT-calculation: 14.9 MB


           ************************************************************
           *        Program running with 8 parallel MPI-processes     *
           *              working on a common directory               *
           ************************************************************
-------------------------------------------------------------------------------
                                 ORCA SCF
-------------------------------------------------------------------------------

------------
SCF SETTINGS
------------
Hamiltonian:
 Density Functional     Method          .... DFT(GTOs)
 Exchange Functional    Exchange        .... PBE
   PBE kappa parameter   XKappa         ....  0.804000
   PBE mue parameter    XMuePBE         ....  0.219520
 Correlation Functional Correlation     .... PBE
   PBE beta parameter  CBetaPBE         ....  0.066725
 LDA part of GGA corr.  LDAOpt          .... PW91-LDA
 Gradients option       PostSCFGGA      .... off
 Hybrid DFT is turned on
   Fraction HF Exchange ScalHFX         ....  0.250000
   Scaling of DF-GGA-X  ScalDFX         ....  0.750000
   Scaling of DF-GGA-C  ScalDFC         ....  1.000000
   Scaling of DF-LDA-C  ScalLDAC        ....  1.000000
   Perturbative correction              ....  0.000000
   Density functional embedding theory  .... OFF
   NL short-range parameter             ....  6.900000
 RI-approximation to the Coulomb term is turned on
   Number of AuxJ basis functions       .... 191
   RIJ-COSX (HFX calculated with COS-X)).... on


General Settings:
 Integral files         IntName         .... ox_es1_D_orca0006
 Hartree-Fock type      HFTyp           .... RHF
 Total Charge           Charge          ....    0
 Multiplicity           Mult            ....    1
 Number of Electrons    NEL             ....   24
 Basis Dimension        Dim             ....  117
 Nuclear Repulsion      ENuc            ....     69.5913312817 Eh

Convergence Acceleration:
 DIIS                   CNVDIIS         .... on
   Start iteration      DIISMaxIt       ....    12
   Startup error        DIISStart       ....  0.200000
   # of expansion vecs  DIISMaxEq       ....     5
   Bias factor          DIISBfac        ....   1.050
   Max. coefficient     DIISMaxC        ....  10.000
 Trust-Rad. Augm. Hess. CNVTRAH         .... auto
   Auto Start mean grad. ratio tolernc. ....  1.125000
   Auto Start start iteration           ....     1
   Auto Start num. interpolation iter.  ....    10
   Max. Number of Micro iterations      ....    16
   Max. Number of Macro iterations      .... Maxiter - #DIIS iter
   Number of Davidson start vectors     ....     2
   Converg. threshold I  (grad. norm)   ....   1.000e-05
   Converg. threshold II (energy diff.) ....   1.000e-08
   Grad. Scal. Fac. for Micro threshold ....   0.100
   Minimum threshold for Micro iter.    ....   0.010
   NR start threshold (gradient norm)   ....   0.001
   Initial trust radius                 ....   0.400
   Minimum AH scaling param. (alpha)    ....   1.000
   Maximum AH scaling param. (alpha)    .... 1000.000
   Orbital update algorithm             .... Taylor
   White noise on init. David. guess    .... on
   Maximum white noise                  ....   0.010
   Quad. conv. algorithm                .... NR
 SOSCF                  CNVSOSCF        .... on
   Start iteration      SOSCFMaxIt      ....   150
   Startup grad/error   SOSCFStart      ....  0.003300
 Level Shifting         CNVShift        .... on
   Level shift para.    LevelShift      ....    0.2500
   Turn off err/grad.   ShiftErr        ....    0.0010
 Zerner damping         CNVZerner       .... off
 Static damping         CNVDamp         .... on
   Fraction old density DampFac         ....    0.7000
   Max. Damping (<1)    DampMax         ....    0.9800
   Min. Damping (>=0)   DampMin         ....    0.0000
   Turn off err/grad.   DampErr         ....    0.1000
 Fernandez-Rico         CNVRico         .... off

SCF Procedure:
 Maximum # iterations   MaxIter         ....   125
 SCF integral mode      SCFMode         .... Direct
   Integral package                     .... SHARK and LIBINT hybrid scheme
 Reset frequency        DirectResetFreq ....    20
 Integral Threshold     Thresh          ....  2.500e-11 Eh
 Primitive CutOff       TCut            ....  2.500e-12 Eh

Convergence Tolerance:
 Convergence Check Mode ConvCheckMode   .... Total+1el-Energy
 Convergence forced     ConvForced      .... 1
 Energy Change          TolE            ....  1.000e-08 Eh
 1-El. energy change                    ....  1.000e-05 Eh
 Orbital Gradient       TolG            ....  1.000e-05
 Orbital Rotation angle TolX            ....  1.000e-05
 DIIS Error             TolErr          ....  5.000e-07


Diagonalization of the overlap matrix:
Smallest eigenvalue                        ... 4.968e-04
Time for diagonalization                   ...    0.001 sec
Threshold for overlap eigenvalues          ... 1.000e-08
Number of eigenvalues below threshold      ... 0
Time for construction of square roots      ...    0.001 sec
Total time needed                          ...    0.003 sec

---------------------
INITIAL GUESS: MOREAD
---------------------
Guess MOs are being read from file: ox_es1_D_orca0006.ges
Input Geometry matches current geometry (good)
Input basis set matches current basis set (good)
MOs were renormalized
MOs were reorthogonalized (Cholesky)
                      ------------------
                      INITIAL GUESS DONE (   0.0 sec)
                      ------------------
-------------------
DFT GRID GENERATION
-------------------

General Integration Accuracy     IntAcc      ... 4.388
Radial Grid Type                 RadialGrid  ... OptM3 with GC (2021)
Angular Grid (max. ang.)         AngularGrid ... 4 (Lebedev-302)
Angular grid pruning method      GridPruning ... 4 (adaptive)
Weight generation scheme         WeightScheme... Becke
Basis function cutoff            BFCut       ... 1.0000e-11
Integration weight cutoff        WCut        ... 1.0000e-14
Angular grids for H and He will be reduced by one unit
Partially contracted basis set               ... off
Rotationally invariant grid construction     ... off

Total number of grid points                  ...    31313
Total number of batches                      ...      493
Average number of points per batch           ...       63
Average number of grid points per atom       ...     4473
Time for grid setup =    0.117 sec

--------------------
COSX GRID GENERATION
--------------------

GRIDX 1
-------
General Integration Accuracy     IntAcc      ... 3.816
Radial Grid Type                 RadialGrid  ... OptM3 with GC (2021)
Angular Grid (max. ang.)         AngularGrid ... 1 (Lebedev-50)
Angular grid pruning method      GridPruning ... 4 (adaptive)
Weight generation scheme         WeightScheme... Becke
Basis function cutoff            BFCut       ... 1.0000e-11
Integration weight cutoff        WCut        ... 1.0000e-14
Angular grids for H and He will be reduced by one unit
Partially contracted basis set               ... on
Rotationally invariant grid construction     ... off

Total number of grid points                  ...     4029
Total number of batches                      ...       67
Average number of points per batch           ...       60
Average number of grid points per atom       ...      576
UseSFitting                                  ... on

GRIDX 2
-------
General Integration Accuracy     IntAcc      ... 4.020
Radial Grid Type                 RadialGrid  ... OptM3 with GC (2021)
Angular Grid (max. ang.)         AngularGrid ... 2 (Lebedev-110)
Angular grid pruning method      GridPruning ... 4 (adaptive)
Weight generation scheme         WeightScheme... Becke
Basis function cutoff            BFCut       ... 1.0000e-11
Integration weight cutoff        WCut        ... 1.0000e-14
Angular grids for H and He will be reduced by one unit
Partially contracted basis set               ... on
Rotationally invariant grid construction     ... off

Total number of grid points                  ...     8720
Total number of batches                      ...      140
Average number of points per batch           ...       62
Average number of grid points per atom       ...     1246
UseSFitting                                  ... on

GRIDX 3
-------
General Integration Accuracy     IntAcc      ... 4.338
Radial Grid Type                 RadialGrid  ... OptM3 with GC (2021)
Angular Grid (max. ang.)         AngularGrid ... 3 (Lebedev-194)
Angular grid pruning method      GridPruning ... 4 (adaptive)
Weight generation scheme         WeightScheme... Becke
Basis function cutoff            BFCut       ... 1.0000e-11
Integration weight cutoff        WCut        ... 1.0000e-14
Angular grids for H and He will be reduced by one unit
Partially contracted basis set               ... on
Rotationally invariant grid construction     ... off

Total number of grid points                  ...    19256
Total number of batches                      ...      304
Average number of points per batch           ...       63
Average number of grid points per atom       ...     2751
UseSFitting                                  ... on

Time for X-Grid setup             =    0.073 sec

--------------
SCF ITERATIONS
--------------
ITER       Energy         Delta-E        Max-DP      RMS-DP      [F,P]     Damp
               ***  Starting incremental Fock matrix formation  ***
                      *** Initiating the SOSCF procedure ***
                      *** Re-Reading the Fockian *** 
                      *** Removing any level shift *** 
ITER      Energy       Delta-E        Grad      Rot      Max-DP    RMS-DP
  0   -153.55932575 -153.5593257454  0.000000  0.000000  0.000001  0.000000
               *** Restarting incremental Fock matrix formation ***
                  ***Gradient check signals convergence***
              ***Rediagonalizing the Fockian in SOSCF/NRSCF***

               *****************************************************
               *                     SUCCESS                       *
               *           SCF CONVERGED AFTER   1 CYCLES          *
               *****************************************************

Old exchange energy                            =     -4.966363443 Eh
New exchange energy                            =     -4.966372693 Eh
Exchange energy change after final integration =     -0.000009249 Eh
Total energy after final integration           =   -153.559334995 Eh
Final COS-X integration done in                =     0.256 sec

----------------
TOTAL SCF ENERGY
----------------

Total Energy       :         -153.55933499 Eh           -4178.56194 eV

Components:
Nuclear Repulsion  :           69.59133128 Eh            1893.67640 eV
Electronic Energy  :         -223.15066628 Eh           -6072.23834 eV
One Electron Energy:         -345.96864466 Eh           -9414.28543 eV
Two Electron Energy:          122.81797839 Eh            3342.04710 eV
Max COSX asymmetry :            0.00000109 Eh               0.00003 eV

Virial components:
Potential Energy   :         -306.43322285 Eh           -8338.47191 eV
Kinetic Energy     :          152.87388785 Eh            4159.90997 eV
Virial Ratio       :            2.00448374


DFT components:
N(Alpha)           :       12.000008482538 electrons
N(Beta)            :       12.000008482538 electrons
N(Total)           :       24.000016965077 electrons
E(X)               :      -14.904862716930 Eh       
E(C)               :       -0.773993408764 Eh       
E(XC)              :      -15.678856125694 Eh       
DFET-embed. en.    :        0.000000000000 Eh       

---------------
SCF CONVERGENCE
---------------

  Last Energy change         ...    4.2064e-12  Tolerance :   1.0000e-08
  Last MAX-Density change    ...    2.5535e-15  Tolerance :   1.0000e-07
  Last RMS-Density change    ...    3.8640e-17  Tolerance :   5.0000e-09
  Last Orbital Gradient      ...    3.7509e-07  Tolerance :   1.0000e-05
  Last Orbital Rotation      ...    2.7625e-06  Tolerance :   1.0000e-05

             **** THE GBW FILE WAS UPDATED (ox_es1_D_orca0006.gbw) ****
             **** DENSITY ox_es1_D_orca0006.scfp WAS UPDATED ****
             **** ENERGY FILE WAS UPDATED (ox_es1_D_orca0006.en.tmp) ****
             **** THE GBW FILE WAS UPDATED (ox_es1_D_orca0006.gbw) ****
             **** DENSITY ox_es1_D_orca0006.scfp WAS UPDATED ****
----------------
ORBITAL ENERGIES
----------------

  NO   OCC          E(Eh)            E(eV) 
   0   2.0000     -19.200849      -522.4817 
   1   2.0000     -10.320138      -280.8252 
   2   2.0000     -10.261405      -279.2270 
   3   2.0000      -1.007845       -27.4248 
   4   2.0000      -0.764409       -20.8006 
   5   2.0000      -0.635489       -17.2925 
   6   2.0000      -0.528898       -14.3921 
   7   2.0000      -0.477702       -12.9989 
   8   2.0000      -0.428645       -11.6640 
   9   2.0000      -0.399999       -10.8845 
  10   2.0000      -0.283789        -7.7223 
  11   2.0000      -0.258430        -7.0322 
  12   0.0000      -0.122650        -3.3375 
  13   0.0000       0.047586         1.2949 
  14   0.0000       0.084967         2.3121 
  15   0.0000       0.092432         2.5152 
  16   0.0000       0.130778         3.5587 
  17   0.0000       0.151193         4.1142 
  18   0.0000       0.180226         4.9042 
  19   0.0000       0.203386         5.5344 
  20   0.0000       0.236705         6.4411 
  21   0.0000       0.249298         6.7837 
  22   0.0000       0.274924         7.4811 
  23   0.0000       0.338641         9.2149 
  24   0.0000       0.370963        10.0944 
  25   0.0000       0.398339        10.8394 
  26   0.0000       0.412245        11.2178 
  27   0.0000       0.419105        11.4044 
  28   0.0000       0.444155        12.0861 
  29   0.0000       0.479333        13.0433 
  30   0.0000       0.499252        13.5853 
  31   0.0000       0.556274        15.1370 
  32   0.0000       0.576716        15.6932 
  33   0.0000       0.615611        16.7516 
  34   0.0000       0.648639        17.6504 
  35   0.0000       0.740119        20.1397 
  36   0.0000       0.809684        22.0326 
  37   0.0000       0.856086        23.2953 
  38   0.0000       0.867575        23.6079 
  39   0.0000       0.920655        25.0523 
  40   0.0000       0.939013        25.5519 
  41   0.0000       1.038460        28.2579 
  42   0.0000       1.044976        28.4353 
  43   0.0000       1.071334        29.1525 
  44   0.0000       1.186578        32.2884 
  45   0.0000       1.323731        36.0206 
  46   0.0000       1.378163        37.5017 
  47   0.0000       1.472406        40.0662 
  48   0.0000       1.522118        41.4189 
  49   0.0000       1.536544        41.8115 
  50   0.0000       1.594869        43.3986 
  51   0.0000       1.611530        43.8520 
  52   0.0000       1.640519        44.6408 
  53   0.0000       1.696449        46.1627 
  54   0.0000       1.737879        47.2901 
  55   0.0000       1.782522        48.5049 
  56   0.0000       1.784032        48.5460 
  57   0.0000       1.831023        49.8247 
  58   0.0000       1.887113        51.3509 
  59   0.0000       1.898130        51.6507 
  60   0.0000       2.000946        54.4485 
  61   0.0000       2.107843        57.3573 
  62   0.0000       2.148449        58.4623 
  63   0.0000       2.223575        60.5066 
  64   0.0000       2.332475        63.4699 
  65   0.0000       2.374789        64.6213 
  66   0.0000       2.404081        65.4184 
  67   0.0000       2.456864        66.8547 
  68   0.0000       2.503733        68.1300 
  69   0.0000       2.541189        69.1493 
  70   0.0000       2.570596        69.9495 
  71   0.0000       2.637371        71.7665 
  72   0.0000       2.651584        72.1533 
  73   0.0000       2.732859        74.3649 
  74   0.0000       2.775318        75.5202 
  75   0.0000       2.828453        76.9661 
  76   0.0000       2.854663        77.6793 
  77   0.0000       2.940774        80.0225 
  78   0.0000       2.961895        80.5973 
  79   0.0000       2.988625        81.3246 
  80   0.0000       3.041244        82.7565 
  81   0.0000       3.080805        83.8330 
  82   0.0000       3.122318        84.9626 
  83   0.0000       3.143521        85.5396 
  84   0.0000       3.199338        87.0584 
  85   0.0000       3.212853        87.4262 
  86   0.0000       3.342027        90.9412 
  87   0.0000       3.415534        92.9414 
  88   0.0000       3.497805        95.1801 
  89   0.0000       3.503361        95.3313 
  90   0.0000       3.540510        96.3422 
  91   0.0000       3.709258       100.9340 
  92   0.0000       3.721343       101.2629 
  93   0.0000       3.809322       103.6569 
  94   0.0000       3.971210       108.0621 
  95   0.0000       4.060906       110.5029 
  96   0.0000       4.143640       112.7542 
  97   0.0000       4.314215       117.3958 
  98   0.0000       4.404886       119.8630 
  99   0.0000       4.501024       122.4791 
 100   0.0000       4.569674       124.3471 
 101   0.0000       4.768560       129.7591 
 102   0.0000       5.210401       141.7822 
 103   0.0000       5.269648       143.3944 
 104   0.0000       5.395586       146.8213 
 105   0.0000       5.418182       147.4362 
 106   0.0000       5.814135       158.2107 
 107   0.0000       5.841760       158.9624 
 108   0.0000       5.972209       162.5121 
 109   0.0000       6.396410       174.0552 
 110   0.0000       6.434493       175.0915 
 111   0.0000       6.803553       185.1341 
 112   0.0000       6.838621       186.0883 
 113   0.0000       6.956636       189.2997 
 114   0.0000      22.045797       599.8966 
 115   0.0000      22.647543       616.2710 
 116   0.0000      43.750631      1190.5152 

                    ********************************
                    * MULLIKEN POPULATION ANALYSIS *
                    ********************************

-----------------------
MULLIKEN ATOMIC CHARGES
-----------------------
   0 O :   -0.382390
   1 C :   -0.008238
   2 C :   -0.144511
   3 H :    0.092577
   4 H :    0.107178
   5 H :    0.164979
   6 H :    0.170404
Sum of atomic charges:    0.0000000

--------------------------------
MULLIKEN REDUCED ORBITAL CHARGES
--------------------------------
  0 O s       :     3.906429  s :     3.906429
      pz      :     1.899195  p :     4.449701
      px      :     1.272471
      py      :     1.278036
      dz2     :     0.003314  d :     0.024942
      dxz     :     0.000287
      dyz     :     0.005657
      dx2y2   :     0.008973
      dxy     :     0.006711
      f0      :     0.000159  f :     0.001318
      f+1     :     0.000059
      f-1     :     0.000312
      f+2     :     0.000180
      f-2     :     0.000024
      f+3     :     0.000269
      f-3     :     0.000314
  1 C s       :     3.170255  s :     3.170255
      pz      :     1.052739  p :     2.669877
      px      :     0.894817
      py      :     0.722322
      dz2     :     0.009776  d :     0.157889
      dxz     :     0.017065
      dyz     :     0.051229
      dx2y2   :     0.022321
      dxy     :     0.057498
      f0      :     0.001822  f :     0.010216
      f+1     :     0.001076
      f-1     :     0.000888
      f+2     :     0.003045
      f-2     :     0.000120
      f+3     :     0.002110
      f-3     :     0.001156
  2 C s       :     3.312372  s :     3.312372
      pz      :     1.046493  p :     2.775088
      px      :     1.012906
      py      :     0.715689
      dz2     :     0.007150  d :     0.052174
      dxz     :     0.022554
      dyz     :     0.004796
      dx2y2   :     0.005505
      dxy     :     0.012169
      f0      :     0.000651  f :     0.004877
      f+1     :     0.001102
      f-1     :     0.000112
      f+2     :     0.000682
      f-2     :     0.000252
      f+3     :     0.000900
      f-3     :     0.001177
  3 H s       :     0.887508  s :     0.887508
      pz      :     0.010511  p :     0.019915
      px      :     0.005213
      py      :     0.004192
  4 H s       :     0.869085  s :     0.869085
      pz      :     0.010026  p :     0.023737
      px      :     0.007948
      py      :     0.005763
  5 H s       :     0.810910  s :     0.810910
      pz      :     0.012056  p :     0.024111
      px      :     0.007235
      py      :     0.004820
  6 H s       :     0.809352  s :     0.809352
      pz      :     0.011681  p :     0.020244
      px      :     0.005282
      py      :     0.003281


                     *******************************
                     * LOEWDIN POPULATION ANALYSIS *
                     *******************************

----------------------
LOEWDIN ATOMIC CHARGES
----------------------
   0 O :   -0.034537
   1 C :   -0.443574
   2 C :   -0.003951
   3 H :    0.124570
   4 H :    0.083854
   5 H :    0.117044
   6 H :    0.156594

-------------------------------
LOEWDIN REDUCED ORBITAL CHARGES
-------------------------------
  0 O s       :     3.543451  s :     3.543451
      pz      :     1.819594  p :     4.430184
      px      :     1.213571
      py      :     1.397020
      dz2     :     0.006911  d :     0.056956
      dxz     :     0.000287
      dyz     :     0.015735
      dx2y2   :     0.018622
      dxy     :     0.015401
      f0      :     0.000428  f :     0.003946
      f+1     :     0.000096
      f-1     :     0.000615
      f+2     :     0.000820
      f-2     :     0.000024
      f+3     :     0.001149
      f-3     :     0.000814
  1 C s       :     2.802746  s :     2.802746
      pz      :     1.058467  p :     2.944886
      px      :     1.034781
      py      :     0.851638
      dz2     :     0.067541  d :     0.620786
      dxz     :     0.097382
      dyz     :     0.143066
      dx2y2   :     0.136304
      dxy     :     0.176492
      f0      :     0.011116  f :     0.075156
      f+1     :     0.005880
      f-1     :     0.008238
      f+2     :     0.017876
      f-2     :     0.002274
      f+3     :     0.014859
      f-3     :     0.014913
  2 C s       :     2.921581  s :     2.921581
      pz      :     1.069309  p :     2.839376
      px      :     1.114851
      py      :     0.655216
      dz2     :     0.033980  d :     0.219312
      dxz     :     0.100769
      dyz     :     0.010151
      dx2y2   :     0.036042
      dxy     :     0.038370
      f0      :     0.004201  f :     0.023681
      f+1     :     0.003270
      f-1     :     0.000990
      f+2     :     0.004060
      f-2     :     0.000968
      f+3     :     0.004245
      f-3     :     0.005948
  3 H s       :     0.821629  s :     0.821629
      pz      :     0.029315  p :     0.053801
      px      :     0.013527
      py      :     0.010959
  4 H s       :     0.837027  s :     0.837027
      pz      :     0.035523  p :     0.079119
      px      :     0.025141
      py      :     0.018454
  5 H s       :     0.809605  s :     0.809605
      pz      :     0.037962  p :     0.073351
      px      :     0.021584
      py      :     0.013804
  6 H s       :     0.788350  s :     0.788350
      pz      :     0.032751  p :     0.055055
      px      :     0.013920
      py      :     0.008384


                      *****************************
                      * MAYER POPULATION ANALYSIS *
                      *****************************

  NA   - Mulliken gross atomic population
  ZA   - Total nuclear charge
  QA   - Mulliken gross atomic charge
  VA   - Mayer's total valence
  BVA  - Mayer's bonded valence
  FA   - Mayer's free valence

  ATOM       NA         ZA         QA         VA         BVA        FA
  0 O      8.3824     8.0000    -0.3824     1.8617     1.8617    -0.0000
  1 C      6.0082     6.0000    -0.0082     4.0609     4.0609     0.0000
  2 C      6.1445     6.0000    -0.1445     3.7794     3.7794     0.0000
  3 H      0.9074     1.0000     0.0926     0.9636     0.9636    -0.0000
  4 H      0.8928     1.0000     0.1072     0.9478     0.9478    -0.0000
  5 H      0.8350     1.0000     0.1650     0.9585     0.9585     0.0000
  6 H      0.8296     1.0000     0.1704     0.9561     0.9561    -0.0000

  Mayer bond orders larger than 0.100000
B(  0-O ,  1-C ) :   1.0482 B(  0-O ,  2-C ) :   0.8226 B(  1-C ,  2-C ) :   1.0665 
B(  1-C ,  3-H ) :   0.9722 B(  1-C ,  4-H ) :   0.9682 B(  2-C ,  5-H ) :   0.9438 
B(  2-C ,  6-H ) :   0.9413 

-------
TIMINGS
-------

Total SCF time: 0 days 0 hours 0 min 1 sec 

Total time                  ....       1.015 sec
Sum of individual times     ....       0.904 sec  ( 89.0%)

Fock matrix formation       ....       0.698 sec  ( 68.8%)
  Split-RI-J                ....       0.115 sec  ( 16.4% of F)
  Chain of spheres X        ....       0.512 sec  ( 73.4% of F)
  XC integration            ....       0.061 sec  (  8.8% of F)
    Basis function eval.    ....       0.018 sec  ( 28.6% of XC)
    Density eval.           ....       0.013 sec  ( 22.0% of XC)
    XC-Functional eval.     ....       0.004 sec  (  6.0% of XC)
    XC-Potential eval.      ....       0.020 sec  ( 32.3% of XC)
Diagonalization             ....       0.002 sec  (  0.2%)
Density matrix formation    ....       0.000 sec  (  0.0%)
Population analysis         ....       0.004 sec  (  0.4%)
Initial guess               ....       0.005 sec  (  0.5%)
Orbital Transformation      ....       0.000 sec  (  0.0%)
Orbital Orthonormalization  ....       0.001 sec  (  0.1%)
DIIS solution               ....       0.001 sec  (  0.1%)
SOSCF solution              ....       0.002 sec  (  0.2%)
Grid generation             ....       0.190 sec  ( 18.7%)

Maximum memory used throughout the entire SCF-calculation: 61.1 MB


           ************************************************************
           *        Program running with 8 parallel MPI-processes     *
           *              working on a common directory               *
           ************************************************************
------------------------------------------------------------------------------
                        ORCA TD-DFT/TDA CALCULATION
------------------------------------------------------------------------------

Input orbitals are from        ... ox_es1_D_orca0006.gbw
CI-vector output               ... ox_es1_D_orca0006.cis
Tamm-Dancoff approximation     ... operative
CIS-Integral strategy          ... AO-integrals
Integral handling              ... AO integral Direct
Max. core memory used          ... 3000 MB
Reference state                ... RHF
Generation of triplets         ... off
Follow IRoot                   ... off
Number of operators            ... 1
Orbital ranges used for CIS calculation:
 Operator 0:  Orbitals   3... 11  to  12...116
XAS localization array:
 Operator 0:  Orbitals  -1... -1

-------------------
XC-INTEGRATION GRID
-------------------

General Integration Accuracy     IntAcc      ... 3.467
Radial Grid Type                 RadialGrid  ... OptM3 with GC (2021)
Angular Grid (max. ang.)         AngularGrid ... 1 (Lebedev-50)
Angular grid pruning method      GridPruning ... 4 (adaptive)
Weight generation scheme         WeightScheme... Becke
Basis function cutoff            BFCut       ... 1.0000e-11
Integration weight cutoff        WCut        ... 1.0000e-14
Angular grids for H and He will be reduced by one unit
Partially contracted basis set               ... off
Rotationally invariant grid construction     ... off

Total number of grid points                  ...     4530
Total number of batches                      ...       75
Average number of points per batch           ...       60
Average number of grid points per atom       ...      647

---------------------
COSX-INTEGRATION GRID
---------------------

General Integration Accuracy     IntAcc      ... 3.067
Radial Grid Type                 RadialGrid  ... OptM3 with GC (2021)
Angular Grid (max. ang.)         AngularGrid ... 1 (Lebedev-50)
Angular grid pruning method      GridPruning ... 4 (adaptive)
Weight generation scheme         WeightScheme... Becke
Basis function cutoff            BFCut       ... 1.0000e-11
Integration weight cutoff        WCut        ... 1.0000e-14
Angular grids for H and He will be reduced by one unit
Partially contracted basis set               ... on
Rotationally invariant grid construction     ... off

Total number of grid points                  ...     2080
Total number of batches                      ...       37
Average number of points per batch           ...       56
Average number of grid points per atom       ...      297

---------------
TD-DFT XC SETUP
---------------

DFT calculation                         ... on
Name of the grid file                   ... ox_es1_D_orca0006.grid_cis.tmp
Exchange functional (TD-DFT)            ... PBE
   PBE kappa parameter  XKappa (TD-DFT) ...  0.804000
   PBE mue parameter   XMuePBE (TD-DFT) ...  0.219520
Correlation functional (TD-DFT)         ... PBE
   PBE beta parameter CBetaPBE (TD-DFT) ...  0.066725
 LDA part of GGA corr.  LDAOpt (TD-DFT) ... PW91-LDA
Hybrid DFT                              ... on
   Exchange mixing (TD-DFT)             ...  0.250
   GGA exch. scaling (TD-DFT)           ...  0.750
   GGA corr. scaling (TD-DFT)           ...  1.000

Building densities             ... done
Calculating rho(r) on the grid ... done
Building xc-kernel on the grid ... done
                    *** TD-DFT CALCULATION INITIALIZED ***

------------------------
DAVIDSON-DIAGONALIZATION
------------------------

Dimension of the eigenvalue problem            ...    945
Number of roots to be determined               ...      1
Maximum size of the expansion space            ...     10
Maximum number of iterations                   ...    100
Convergence tolerance for the residual         ...    2.500e-07
Convergence tolerance for the energies         ...    2.500e-07
Orthogonality tolerance                        ...    1.000e-14
Level Shift                                    ...    0.000e+00
Constructing the preconditioner                ... o.k.
Building the initial guess                     ... o.k.
Number of trial vectors determined             ...     10


                       ****Iteration    0****

   Memory handling for direct AO based CIS:
   Memory per vector needed      ...     1 MB
   Memory needed                 ...     1 MB
   Memory available              ...  3000 MB
   Number of vectors per batch   ...  3000
   Number of batches             ...     1
   Time for densities:            0.000
   Time for RI-J (Direct):        0.016
   Time for K (COSX):             0.055
   Time for XC-Integration:       0.015
   Time for Sigma-Completion:     0.000
   Size of expansion space: 3
   Lowest Energy          :     0.055418625616
   Maximum Energy change  :     0.055418625616 (vector 0)
   Maximum residual norm  :     0.002655845717

                       ****Iteration    1****
   Time for densities:            0.000
   Time for RI-J (Direct):        0.012
   Time for K (COSX):             0.048
   Time for XC-Integration:       0.007
   Time for Sigma-Completion:     0.000
   Size of expansion space: 4
   Lowest Energy          :     0.053567505190
   Maximum Energy change  :     0.001851120425 (vector 0)
   Maximum residual norm  :     0.000059877434

                       ****Iteration    2****
   Time for densities:            0.000
   Time for RI-J (Direct):        0.012
   Time for K (COSX):             0.049
   Time for XC-Integration:       0.006
   Time for Sigma-Completion:     0.000
   Size of expansion space: 5
   Lowest Energy          :     0.053524015454
   Maximum Energy change  :     0.000043489736 (vector 0)
   Maximum residual norm  :     0.000004127917

                       ****Iteration    3****
   Time for densities:            0.000
   Time for RI-J (Direct):        0.012
   Time for K (COSX):             0.049
   Time for XC-Integration:       0.006
   Time for Sigma-Completion:     0.000
   Size of expansion space: 6
   Lowest Energy          :     0.053520723662
   Maximum Energy change  :     0.000003291792 (vector 0)
   Maximum residual norm  :     0.000000181476

      *** CONVERGENCE OF RESIDUAL NORM REACHED ***

Storing the converged CI vectors               ... ox_es1_D_orca0006.cis1

                 *** DAVIDSON DONE ***

Total time for solving the CIS problem:     0.293sec

------------------------------------
TD-DFT/TDA EXCITED STATES (SINGLETS)
------------------------------------

the weight of the individual excitations are printed if larger than 1.0e-02

STATE  1:  E=   0.053521 au      1.456 eV    11746.4 cm**-1 <S**2> =   0.000000
    10a ->  12a  :     0.021970 (c=  0.14822216)
    11a ->  12a  :     0.974117 (c=  0.98697359)


-----------------------------
TD-DFT/TDA-EXCITATION SPECTRA
-----------------------------

Center of mass = ( -0.4925,  0.1381, -0.0440)
Calculating the Dipole integrals                  ... done
Transforming integrals                            ... done
Calculating the Linear Momentum integrals         ... done
Transforming integrals                            ... done
Calculating angular momentum integrals            ... done
Transforming integrals                            ... done

-----------------------------------------------------------------------------
         ABSORPTION SPECTRUM VIA TRANSITION ELECTRIC DIPOLE MOMENTS
-----------------------------------------------------------------------------
State   Energy    Wavelength  fosc         T2        TX        TY        TZ  
        (cm-1)      (nm)                 (au**2)    (au)      (au)      (au) 
-----------------------------------------------------------------------------
   1   11746.4    851.3   0.000185115   0.00519   0.00527  -0.02113  -0.06866

-----------------------------------------------------------------------------
         ABSORPTION SPECTRUM VIA TRANSITION VELOCITY DIPOLE MOMENTS
-----------------------------------------------------------------------------
State   Energy    Wavelength   fosc        P2         PX        PY        PZ  
        (cm-1)      (nm)                 (au**2)     (au)      (au)      (au) 
-----------------------------------------------------------------------------
   1   11746.4    851.3   0.010601221   0.00085   0.00598  -0.01217   0.02583

-------------------------------------------------------------------
                             CD SPECTRUM
-------------------------------------------------------------------
State  Energy     Wavelength     R         MX        MY        MZ   
       (cm-1)       (nm)     (1e40*cgs)   (au)      (au)      (au)  
-------------------------------------------------------------------
   1   11746.4    851.3     -2.79656   0.02269   0.27925   0.00221

-------------------------------------------------------------------
         CD SPECTRUM VIA TRANSITION VELOCITY DIPOLE MOMENTS        
-------------------------------------------------------------------
State  Energy     Wavelength     R         MX        MY        MZ   
       (cm-1)       (nm)     (1e40*cgs)   (au)      (au)      (au)  
-------------------------------------------------------------------
   1   11746.4    851.3    -28.22817   0.02269   0.27925   0.00221

Total run time:        0.563 sec

           *** ORCA-CIS/TD-DFT FINISHED WITHOUT ERROR ***

Maximum memory used throughout the entire CIS-calculation: 49.4 MB

-----------------------
CIS/TD-DFT TOTAL ENERGY
-----------------------

    E(SCF)  =   -153.559334995 Eh
    DE(CIS) =      0.053520724 Eh (Root  1)
    ----------------------------- ---------
    E(tot)  =   -153.505814271 Eh



-------------------------------------------------------------------------------
                          DFT DISPERSION CORRECTION                            
                                                                               
                              DFTD3 V3.1  Rev 1                                
                          USING Becke-Johnson damping                          
-------------------------------------------------------------------------------
The PBE0 functional is recognized
Active option DFTDOPT                   ...         4   

molecular C6(AA) [au] = 393.842240 


            DFT-D V3
 parameters
 s6 scaling factor         :     1.0000 
 a1 scaling factor         :     0.4145 
 s8 scaling factor         :     1.2177 
 a2 scaling factor         :     4.8593 
 ad hoc parameters k1-k3   :    16.0000     1.3333    -4.0000 

 Edisp/kcal,au: -1.657900630554  -0.002642032546 
 E6   /kcal   :  -1.082396248 
 E8   /kcal   :  -0.575504382 
 % E8         :  34.712839340 

-------------------------   ----------------
Dispersion correction           -0.002642033
-------------------------   ----------------


-------------------------   --------------------
FINAL SINGLE POINT ENERGY      -153.508456303783
-------------------------   --------------------



           ************************************************************
           *        Program running with 8 parallel MPI-processes     *
           *              working on a common directory               *
           ************************************************************
------------------------------------------------------------------------------
                         ORCA SCF GRADIENT CALCULATION
------------------------------------------------------------------------------


------------------------
TD-DFT GRADIENT XC SETUP
------------------------

Building densities                     ... done
Calculating rho(r) on the grid         ... done
Building xc-kernel on the grid         ... done
Building xc 3rd derivative on the grid      ... done
                *** TD-DFT GRADIENT CALCULATION INITIALIZED ***

-------------------
TD-DFT/TDA GRADIENT
-------------------

Reference wavefunction             ... RHF
State of interest                  ... 1
Basis dimension                    ... 117
DFT-XC contribution needed         ... YES
RI-approximation                   ... ON
CIS-vectors being read from        ... ox_es1_D_orca0006.cis

 => Number of Vectors found: 1
 => Orbital Window: 3...11 -> 12...116

Reading the CIS file                     ... done
Norm of the CI vector                    ... 1.000000000
Making the CIS (pseudo)densities         ... done
Making operators G(D) and Q(T)           ... done
Transforming the Fock operators          ... done
Making the frozen-core relaxed density   ... done
Constructing the G(H) operator           ... done
Transforming the G(H) operator           ... done
Calculating the CIS Lagrangian           ... done
Solving the Z-vector equations           ... done
Finalizing the relaxed density           ... done
Storing the relaxed density              ... done
Constructing the G(Z) operator           ... done
Transforming the G(Z) operator           ... done
Making the W-matrix                      ... done
Finalizing the W-matrix                  ... done
Transforming the W-matrix                ... done
Nuclear repulsion gradient               ... done
One-Electron gradient                    ... done
Dispersion correction                    ... done
Prescreening matrices                    ... done
COSX-gradient                            ... done
Coulomb gradient (RI)                    ... done
Exchange-Correlation gradient            ... done

                 ---------------------------
                 EXCITED STATE GRADIENT DONE
                 ---------------------------

------------------
CARTESIAN GRADIENT
------------------

   1   O   :    0.023179471   -0.007362537    0.002488101
   2   C   :   -0.084044905   -0.076965081   -0.090922869
   3   C   :    0.007531306    0.045103809   -0.068309493
   4   H   :   -0.002874220    0.010825795    0.011714816
   5   H   :    0.062118221    0.039775440    0.080361132
   6   H   :   -0.017420365   -0.000665347    0.021283657
   7   H   :    0.011535960   -0.010740533    0.043372820

Difference to translation invariance:
           :    0.0000254687   -0.0000284530   -0.0000118368

Difference to rotation invariance:
           :    0.0000540576    0.0000189596    0.0002153807

Norm of the cartesian gradient     ...    0.2089425655
RMS gradient                       ...    0.0455950058
MAX gradient                       ...    0.0909228695

------------------------------------------------------------------------------
                  RELAXED CIS/TDA DENSITY POPULATION ANALYSIS
                                   IROOT 1
------------------------------------------------------------------------------
------------------------------------------------------------------------------
                           ORCA POPULATION ANALYSIS
------------------------------------------------------------------------------
Input electron density              ... ox_es1_D_orca0006.cisp
BaseName (.gbw .S,...)              ... ox_es1_D_orca0006

                    ********************************
                    * MULLIKEN POPULATION ANALYSIS *
                    ********************************

-----------------------
MULLIKEN ATOMIC CHARGES
-----------------------
   0 O :   -0.250482
   1 C :   -0.055361
   2 C :   -0.275718
   3 H :    0.154309
   4 H :    0.143433
   5 H :    0.142755
   6 H :    0.141063
Sum of atomic charges:    0.0000000

--------------------------------
MULLIKEN REDUCED ORBITAL CHARGES
--------------------------------
  0 O s       :     3.893488  s :     3.893488
      pz      :     1.097219  p :     4.331776
      px      :     1.921257
      py      :     1.313300
      dz2     :     0.002874  d :     0.024188
      dxz     :     0.000250
      dyz     :     0.006369
      dx2y2   :     0.009066
      dxy     :     0.005629
      f0      :     0.000042  f :     0.001029
      f+1     :    -0.000034
      f-1     :     0.000087
      f+2     :     0.000207
      f-2     :     0.000002
      f+3     :     0.000296
      f-3     :     0.000429
  1 C s       :     3.171093  s :     3.171093
      pz      :     1.023815  p :     2.732966
      px      :     0.972616
      py      :     0.736535
      dz2     :     0.008844  d :     0.141032
      dxz     :     0.020539
      dyz     :     0.024832
      dx2y2   :     0.024607
      dxy     :     0.062210
      f0      :     0.000960  f :     0.010270
      f+1     :     0.001158
      f-1     :     0.000651
      f+2     :     0.001711
      f-2     :     0.000130
      f+3     :     0.003584
      f-3     :     0.002075
  2 C s       :     3.308665  s :     3.308665
      pz      :     1.023574  p :     2.918320
      px      :     0.949277
      py      :     0.945469
      dz2     :     0.006492  d :     0.043970
      dxz     :     0.014896
      dyz     :     0.002107
      dx2y2   :     0.007812
      dxy     :     0.012663
      f0      :     0.000623  f :     0.004762
      f+1     :     0.000973
      f-1     :     0.000225
      f+2     :     0.000662
      f-2     :     0.000140
      f+3     :     0.001061
      f-3     :     0.001078
  3 H s       :     0.825068  s :     0.825068
      pz      :     0.010795  p :     0.020623
      px      :     0.005551
      py      :     0.004276
  4 H s       :     0.832312  s :     0.832312
      pz      :     0.010312  p :     0.024255
      px      :     0.008147
      py      :     0.005796
  5 H s       :     0.832127  s :     0.832127
      pz      :     0.011169  p :     0.025118
      px      :     0.006801
      py      :     0.007148
  6 H s       :     0.838188  s :     0.838188
      pz      :     0.010560  p :     0.020749
      px      :     0.005110
      py      :     0.005079


                     *******************************
                     * LOEWDIN POPULATION ANALYSIS *
                     *******************************

----------------------
LOEWDIN ATOMIC CHARGES
----------------------
   0 O :    0.065253
   1 C :   -0.404770
   2 C :   -0.181178
   3 H :    0.172812
   4 H :    0.108122
   5 H :    0.102097
   6 H :    0.137663

-------------------------------
LOEWDIN REDUCED ORBITAL CHARGES
-------------------------------
  0 O s       :     3.552562  s :     3.552562
      pz      :     1.065010  p :     4.319964
      px      :     1.829743
      py      :     1.425210
      dz2     :     0.007087  d :     0.058516
      dxz     :     0.000336
      dyz     :     0.014389
      dx2y2   :     0.018315
      dxy     :     0.018388
      f0      :     0.000424  f :     0.003706
      f+1     :     0.000050
      f-1     :     0.000404
      f+2     :     0.000634
      f-2     :     0.000018
      f+3     :     0.001237
      f-3     :     0.000938
  1 C s       :     2.806249  s :     2.806249
      pz      :     1.011499  p :     2.955062
      px      :     1.079686
      py      :     0.863876
      dz2     :     0.066119  d :     0.562313
      dxz     :     0.099024
      dyz     :     0.070991
      dx2y2   :     0.156900
      dxy     :     0.169278
      f0      :     0.006660  f :     0.081147
      f+1     :     0.005817
      f-1     :     0.007839
      f+2     :     0.011196
      f-2     :     0.002120
      f+3     :     0.026233
      f-3     :     0.021280
  2 C s       :     2.926344  s :     2.926344
      pz      :     1.059632  p :     3.006289
      px      :     1.081155
      py      :     0.865502
      dz2     :     0.036364  d :     0.223974
      dxz     :     0.090937
      dyz     :     0.007003
      dx2y2   :     0.038068
      dxy     :     0.051603
      f0      :     0.004068  f :     0.024570
      f+1     :     0.003629
      f-1     :     0.001307
      f+2     :     0.003713
      f-2     :     0.000777
      f+3     :     0.005178
      f-3     :     0.005897
  3 H s       :     0.772245  s :     0.772245
      pz      :     0.029628  p :     0.054943
      px      :     0.014370
      py      :     0.010945
  4 H s       :     0.811436  s :     0.811436
      pz      :     0.035882  p :     0.080442
      px      :     0.025888
      py      :     0.018672
  5 H s       :     0.821458  s :     0.821458
      pz      :     0.035099  p :     0.076444
      px      :     0.020354
      py      :     0.020991
  6 H s       :     0.805841  s :     0.805841
      pz      :     0.029595  p :     0.056496
      px      :     0.013458
      py      :     0.013444


                      *****************************
                      * MAYER POPULATION ANALYSIS *
                      *****************************

  NA   - Mulliken gross atomic population
  ZA   - Total nuclear charge
  QA   - Mulliken gross atomic charge
  VA   - Mayer's total valence
  BVA  - Mayer's bonded valence
  FA   - Mayer's free valence

  ATOM       NA         ZA         QA         VA         BVA        FA
  0 O      8.2505     8.0000    -0.2505     1.8739     1.1906     0.6833
  1 C      6.0554     6.0000    -0.0554     4.0874     4.0059     0.0815
  2 C      6.2757     6.0000    -0.2757     3.8601     3.0777     0.7823
  3 H      0.8457     1.0000     0.1543     0.9562     0.8764     0.0797
  4 H      0.8566     1.0000     0.1434     0.9577     0.9222     0.0355
  5 H      0.8572     1.0000     0.1428     0.9757     0.9662     0.0095
  6 H      0.8589     1.0000     0.1411     0.9736     0.9673     0.0063

  Mayer bond orders larger than 0.100000
B(  0-O ,  1-C ) :   1.1047 B(  1-C ,  2-C ) :   1.0960 B(  1-C ,  3-H ) :   0.8727 
B(  1-C ,  4-H ) :   0.9284 B(  2-C ,  5-H ) :   0.9543 B(  2-C ,  6-H ) :   0.9524 



-------
TIMINGS
-------

Total TD-DFT gradient time         ...        5.743 sec

Fock matrix formation       ....       0.830 sec  ( 14.5%)
  Coulomb formation         ....       0.680 sec  ( 82.0% of F)
  RI-J                      ....       0.295 sec  ( 35.5% of F)
  Chain of spheres X        ....       0.385 sec  ( 46.4% of F)
  XC integration            ....       0.150 sec  ( 18.0% of F)
Z-vector equation           ....       1.864 sec  ( 32.5%)
One electron gradient       ....       0.032 sec  (  0.6%)
Prescreening matrices       ....       0.154 sec  (  2.7%)
RI-J Coulomb gradient       ....       0.289 sec  (  5.0%)
COSX gradient               ....       0.359 sec  (  6.2%)
XC gradient                 ....       1.880 sec  ( 32.7%)

Maximum memory used throughout the entire SCFGRAD-calculation: 130.2 MB

                            ***************************************
                            *     ORCA property calculations      *
                            ***************************************

                                    ---------------------
                                    Active property flags
                                    ---------------------
   (+) Dipole Moment


------------------------------------------------------------------------------
                       ORCA ELECTRIC PROPERTIES CALCULATION
------------------------------------------------------------------------------

Dipole Moment Calculation                       ... on
Quadrupole Moment Calculation                   ... off
Polarizability Calculation                      ... off
GBWName                                         ... ox_es1_D_orca0006.gbw
Electron density                                ... ox_es1_D_orca0006.scfp
The origin for moment calculation is the CENTER OF MASS  = (-0.492526,  0.138065 -0.043964)

-------------
DIPOLE MOMENT
-------------
                                X             Y             Z
Electronic contribution:     -0.42143       1.48502      -0.24928
Nuclear contribution   :      1.02946      -2.69653       0.15342
                        -----------------------------------------
Total Dipole Moment    :      0.60803      -1.21151      -0.09586
                        -----------------------------------------
Magnitude (a.u.)       :      1.35891
Magnitude (Debye)      :      3.45409



--------------------
Rotational spectrum 
--------------------
 
Rotational constants in cm-1:     1.132624     0.428746     0.356374 
Rotational constants in MHz : 33955.204016 12853.470816 10683.825529 

 Dipole components along the rotational axes: 
x,y,z [a.u.] :    -1.257264    -0.515621    -0.008459 
x,y,z [Debye]:    -3.195710    -1.310604    -0.021500 

 

                        *** CIS RELAXED DENSITY ***

------------------------------------------------------------------------------
                       ORCA ELECTRIC PROPERTIES CALCULATION
------------------------------------------------------------------------------

Dipole Moment Calculation                       ... on
Quadrupole Moment Calculation                   ... off
Polarizability Calculation                      ... off
GBWName                                         ... ox_es1_D_orca0006.gbw
Electron density                                ... ox_es1_D_orca0006.cisp
The origin for moment calculation is the CENTER OF MASS  = (-0.492526,  0.138065 -0.043964)

-------------
DIPOLE MOMENT
-------------
                                X             Y             Z
Electronic contribution:     -1.07102       1.78042      -0.18726
Nuclear contribution   :      1.02946      -2.69653       0.15342
                        -----------------------------------------
Total Dipole Moment    :     -0.04156      -0.91612      -0.03384
                        -----------------------------------------
Magnitude (a.u.)       :      0.91768
Magnitude (Debye)      :      2.33257



--------------------
Rotational spectrum 
--------------------
 
Rotational constants in cm-1:     1.132624     0.428746     0.356374 
Rotational constants in MHz : 33955.204016 12853.470816 10683.825529 

 Dipole components along the rotational axes: 
x,y,z [a.u.] :    -0.570783    -0.718344     0.018251 
x,y,z [Debye]:    -1.450815    -1.825885     0.046389 

 

Timings for individual modules:

Sum of individual times         ...        8.109 sec (=   0.135 min)
GTO integral calculation        ...        0.259 sec (=   0.004 min)   3.2 %
SCF iterations                  ...        1.174 sec (=   0.020 min)  14.5 %
CIS module                      ...        0.762 sec (=   0.013 min)   9.4 %
SCF Gradient evaluation         ...        5.915 sec (=   0.099 min)  72.9 %
                             ****ORCA TERMINATED NORMALLY****
TOTAL RUN TIME: 0 days 0 hours 0 minutes 8 seconds 494 msec
