
                                 *****************
                                 * O   R   C   A *
                                 *****************

                                            #,                                       
                                            ###                                      
                                            ####                                     
                                            #####                                    
                                            ######                                   
                                           ########,                                 
                                     ,,################,,,,,                         
                               ,,#################################,,                 
                          ,,##########################################,,             
                       ,#########################################, ''#####,          
                    ,#############################################,,   '####,        
                  ,##################################################,,,,####,       
                ,###########''''           ''''###############################       
              ,#####''   ,,,,##########,,,,          '''####'''          '####       
            ,##' ,,,,###########################,,,                        '##       
           ' ,,###''''                  '''############,,,                           
         ,,##''                                '''############,,,,        ,,,,,,###''
      ,#''                                            '''#######################'''  
     '                                                          ''''####''''         
             ,#######,   #######,   ,#######,      ##                                
            ,#'     '#,  ##    ##  ,#'     '#,    #''#        ######   ,####,        
            ##       ##  ##   ,#'  ##            #'  '#       #        #'  '#        
            ##       ##  #######   ##           ,######,      #####,   #    #        
            '#,     ,#'  ##    ##  '#,     ,#' ,#      #,         ##   #,  ,#        
             '#######'   ##     ##  '#######'  #'      '#     #####' # '####'        



                  #######################################################
                  #                        -***-                        #
                  #          Department of theory and spectroscopy      #
                  #    Directorship and core code : Frank Neese         #
                  #        Max Planck Institute fuer Kohlenforschung    #
                  #                Kaiser Wilhelm Platz 1               #
                  #                 D-45470 Muelheim/Ruhr               #
                  #                      Germany                        #
                  #                                                     #
                  #                  All rights reserved                #
                  #                        -***-                        #
                  #######################################################


                         Program Version 5.0.2 -  RELEASE  -


 With contributions from (in alphabetic order):
   Daniel Aravena         : Magnetic Suceptibility
   Michael Atanasov       : Ab Initio Ligand Field Theory (pilot matlab implementation)
   Alexander A. Auer      : GIAO ZORA, VPT2 properties, NMR spectrum
   Ute Becker             : Parallelization
   Giovanni Bistoni       : ED, misc. LED, open-shell LED, HFLD
   Martin Brehm           : Molecular dynamics
   Dmytro Bykov           : SCF Hessian
   Vijay G. Chilkuri      : MRCI spin determinant printing, contributions to CSF-ICE
   Dipayan Datta          : RHF DLPNO-CCSD density
   Achintya Kumar Dutta   : EOM-CC, STEOM-CC
   Dmitry Ganyushin       : Spin-Orbit,Spin-Spin,Magnetic field MRCI
   Miquel Garcia          : C-PCM and meta-GGA Hessian, CC/C-PCM, Gaussian charge scheme
   Yang Guo               : DLPNO-NEVPT2, F12-NEVPT2, CIM, IAO-localization
   Andreas Hansen         : Spin unrestricted coupled pair/coupled cluster methods
   Benjamin Helmich-Paris : MC-RPA, TRAH-SCF, COSX integrals
   Lee Huntington         : MR-EOM, pCC
   Robert Izsak           : Overlap fitted RIJCOSX, COSX-SCS-MP3, EOM
   Marcus Kettner         : VPT2
   Christian Kollmar      : KDIIS, OOCD, Brueckner-CCSD(T), CCSD density, CASPT2, CASPT2-K
   Simone Kossmann        : Meta GGA functionals, TD-DFT gradient, OOMP2, MP2 Hessian
   Martin Krupicka        : Initial AUTO-CI
   Lucas Lang             : DCDCAS
   Marvin Lechner         : AUTO-CI (C++ implementation), FIC-MRCC
   Dagmar Lenk            : GEPOL surface, SMD
   Dimitrios Liakos       : Extrapolation schemes; Compound Job, initial MDCI parallelization
   Dimitrios Manganas     : Further ROCIS development; embedding schemes
   Dimitrios Pantazis     : SARC Basis sets
   Anastasios Papadopoulos: AUTO-CI, single reference methods and gradients
   Taras Petrenko         : DFT Hessian,TD-DFT gradient, ASA, ECA, R-Raman, ABS, FL, XAS/XES, NRVS
   Peter Pinski           : DLPNO-MP2, DLPNO-MP2 Gradient
   Christoph Reimann      : Effective Core Potentials
   Marius Retegan         : Local ZFS, SOC
   Christoph Riplinger    : Optimizer, TS searches, QM/MM, DLPNO-CCSD(T), (RO)-DLPNO pert. Triples
   Tobias Risthaus        : Range-separated hybrids, TD-DFT gradient, RPA, STAB
   Michael Roemelt        : Original ROCIS implementation
   Masaaki Saitow         : Open-shell DLPNO-CCSD energy and density
   Barbara Sandhoefer     : DKH picture change effects
   Avijit Sen             : IP-ROCIS
   Kantharuban Sivalingam : CASSCF convergence, NEVPT2, FIC-MRCI
   Bernardo de Souza      : ESD, SOC TD-DFT
   Georgi Stoychev        : AutoAux, RI-MP2 NMR, DLPNO-MP2 response
   Willem Van den Heuvel  : Paramagnetic NMR
   Boris Wezisla          : Elementary symmetry handling
   Frank Wennmohs         : Technical directorship


 We gratefully acknowledge several colleagues who have allowed us to
 interface, adapt or use parts of their codes:
   Stefan Grimme, W. Hujo, H. Kruse, P. Pracht,  : VdW corrections, initial TS optimization,
                  C. Bannwarth, S. Ehlert          DFT functionals, gCP, sTDA/sTD-DF
   Ed Valeev, F. Pavosevic, A. Kumar             : LibInt (2-el integral package), F12 methods
   Garnet Chan, S. Sharma, J. Yang, R. Olivares  : DMRG
   Ulf Ekstrom                                   : XCFun DFT Library
   Mihaly Kallay                                 : mrcc  (arbitrary order and MRCC methods)
   Jiri Pittner, Ondrej Demel                    : Mk-CCSD
   Frank Weinhold                                : gennbo (NPA and NBO analysis)
   Christopher J. Cramer and Donald G. Truhlar   : smd solvation model
   Lars Goerigk                                  : TD-DFT with DH, B97 family of functionals
   V. Asgeirsson, H. Jonsson                     : NEB implementation
   FAccTs GmbH                                   : IRC, NEB, NEB-TS, DLPNO-Multilevel, CI-OPT
                                                   MM, QMMM, 2- and 3-layer-ONIOM, Crystal-QMMM,
                                                   LR-CPCM, SF, NACMEs, symmetry and pop. for TD-DFT,
                                                   nearIR, NL-DFT gradient (VV10), updates on ESD,
                                                   ML-optimized integration grids
   S Lehtola, MJT Oliveira, MAL Marques          : LibXC Library
   Liviu Ungur et al                             : ANISO software


 Your calculation uses the libint2 library for the computation of 2-el integrals
 For citations please refer to: http://libint.valeyev.net

 Your ORCA version has been built with support for libXC version: 5.1.0
 For citations please refer to: https://tddft.org/programs/libxc/

 This ORCA versions uses:
   CBLAS   interface :  Fast vector & matrix operations
   LAPACKE interface :  Fast linear algebra routines
   SCALAPACK package :  Parallel linear algebra routines
   Shared memory     :  Shared parallel matrices
   BLAS/LAPACK       :  OpenBLAS 0.3.15  USE64BITINT DYNAMIC_ARCH NO_AFFINITY SkylakeX SINGLE_THREADED
        Core in use  :  SkylakeX
   Copyright (c) 2011-2014, The OpenBLAS Project


Your calculation utilizes the atom-pairwise dispersion correction
with the Becke-Johnson damping scheme (D3BJ)
Cite in your paper:
S.Grimme, S.Ehrlich, L.Goerigk, J Comput Chem, (2011), 32, 1456–1465 
S.Grimme, J.Antony, S.Ehrlich and H.Krieg, J.Chem.Phys., 132, (2010), 154104 
   

================================================================================

----- Orbital basis set information -----
Your calculation utilizes the basis: def2-TZVP
   F. Weigend and R. Ahlrichs, Phys. Chem. Chem. Phys. 7, 3297 (2005).

----- AuxJ basis set information -----
Your calculation utilizes the auxiliary basis: def2/J
   F. Weigend, Phys. Chem. Chem. Phys. 8, 1057 (2006).

================================================================================
                                        WARNINGS
                       Please study these warnings very carefully!
================================================================================

INFO   : Checking CIS options ...

WARNING: CIS/ROCIS methods need fully converged wavefunctions
  ===> : Setting SCFConvForced true
         You can overwrite this default with %scf ConvForced false 


INFO   : the flag for use of the SHARK integral package has been found!

================================================================================
                                       INPUT FILE
================================================================================
NAME = ox_es1_A_orca0011.inp
|  1> ! engrad PBE0 D3BJ def2-TZVP  
|  2> %pal nprocs 8 end
|  3> %maxcore 3000
|  4> 
|  5> %tddft
|  6>   nroots 1
|  7>   tda true
|  8>   Iroot 1
|  9>   end 
| 10> *xyz 0 1 
| 11> O   0.010822979479098743 0.7692029019951907 -0.03257990738029086
| 12> C   -0.6216923855337337 -0.4153245388840994 -0.10125712933288036
| 13> C   0.7382122557384714 -0.4801098132384194 0.0426216667398112
| 14> H   -1.303448966921635 -0.6740076320733449 0.9452255839490229
| 15> H   -1.2205350102914938 -0.7282857303527889 -0.9367012817920475
| 16> H   1.2400755544419522 -0.7009373216286856 -0.8317035079859452
| 17> H   1.2840719555480478 -0.7313150077167523 0.9658692673527388
| 18> *
| 19> 
| 20>                          ****END OF INPUT****
================================================================================

                     *******************************
                     * Energy+Gradient Calculation *
                     *******************************

---------------------------------
CARTESIAN COORDINATES (ANGSTROEM)
---------------------------------
  O      0.010823    0.769203   -0.032580
  C     -0.621692   -0.415325   -0.101257
  C      0.738212   -0.480110    0.042622
  H     -1.303449   -0.674008    0.945226
  H     -1.220535   -0.728286   -0.936701
  H      1.240076   -0.700937   -0.831704
  H      1.284072   -0.731315    0.965869

----------------------------
CARTESIAN COORDINATES (A.U.)
----------------------------
  NO LB      ZA    FRAG     MASS         X           Y           Z
   0 O     8.0000    0    15.999    0.020452    1.453583   -0.061567
   1 C     6.0000    0    12.011   -1.174828   -0.784850   -0.191348
   2 C     6.0000    0    12.011    1.395019   -0.907276    0.080543
   3 H     1.0000    0     1.008   -2.463162   -1.273690    1.786217
   4 H     1.0000    0     1.008   -2.306477   -1.376261   -1.770109
   5 H     1.0000    0     1.008    2.343403   -1.324580   -1.571692
   6 H     1.0000    0     1.008    2.426544   -1.381985    1.825228

--------------------------------
INTERNAL COORDINATES (ANGSTROEM)
--------------------------------
 O      0   0   0     0.000000000000     0.00000000     0.00000000
 C      1   0   0     1.344580791916     0.00000000     0.00000000
 C      2   1   0     1.369028441299    64.47136643     0.00000000
 H      2   1   3     1.275474440420   112.84307305   108.78735625
 H      2   1   3     1.074487844729   123.95113960   239.41535794
 H      3   2   1     1.032025227505   113.83714443   257.60401927
 H      3   2   1     1.101568424405   126.23520474   104.29571501

---------------------------
INTERNAL COORDINATES (A.U.)
---------------------------
 O      0   0   0     0.000000000000     0.00000000     0.00000000
 C      1   0   0     2.540889461652     0.00000000     0.00000000
 C      2   1   0     2.587088823605    64.47136643     0.00000000
 H      2   1   3     2.410297383211   112.84307305   108.78735625
 H      2   1   3     2.030487760765   123.95113960   239.41535794
 H      3   2   1     1.950245043282   113.83714443   257.60401927
 H      3   2   1     2.081662639901   126.23520474   104.29571501

---------------------
BASIS SET INFORMATION
---------------------
There are 3 groups of distinct atoms

 Group   1 Type O   : 11s6p2d1f contracted to 5s3p2d1f pattern {62111/411/11/1}
 Group   2 Type C   : 11s6p2d1f contracted to 5s3p2d1f pattern {62111/411/11/1}
 Group   3 Type H   : 5s1p contracted to 3s1p pattern {311/1}

Atom   0O    basis set group =>   1
Atom   1C    basis set group =>   2
Atom   2C    basis set group =>   2
Atom   3H    basis set group =>   3
Atom   4H    basis set group =>   3
Atom   5H    basis set group =>   3
Atom   6H    basis set group =>   3
---------------------------------
AUXILIARY/J BASIS SET INFORMATION
---------------------------------
There are 3 groups of distinct atoms

 Group   1 Type O   : 12s5p4d2f1g contracted to 6s4p3d1f1g pattern {711111/2111/211/2/1}
 Group   2 Type C   : 12s5p4d2f1g contracted to 6s4p3d1f1g pattern {711111/2111/211/2/1}
 Group   3 Type H   : 5s2p1d contracted to 3s1p1d pattern {311/2/1}

Atom   0O    basis set group =>   1
Atom   1C    basis set group =>   2
Atom   2C    basis set group =>   2
Atom   3H    basis set group =>   3
Atom   4H    basis set group =>   3
Atom   5H    basis set group =>   3
Atom   6H    basis set group =>   3

Checking for AutoStart:
The File: ox_es1_A_orca0011.gbw exists
Trying to determine its content:
     ... Fine, the file contains calculation information
     ... Fine, the calculation information was read
     ... Fine, the file contains a basis set
     ... Fine, the basis set was read
     ... Fine, the file contains a geometry
     ... Fine, the geometry was read
     ... Fine, the file contains a set of orbitals
     ... Fine, the orbitals can be read
     => possible old guess file was deleted
     => GBW file was renamed to GES file
     => GES file is set as startup file
     => Guess is set to MORead
     ... now leaving AutoStart



           ************************************************************
           *        Program running with 8 parallel MPI-processes     *
           *              working on a common directory               *
           ************************************************************
------------------------------------------------------------------------------
                           ORCA GTO INTEGRAL CALCULATION
                           -- RI-GTO INTEGRALS CHOSEN --
------------------------------------------------------------------------------
------------------------------------------------------------------------------
                   ___                                                        
                  /   \      - P O W E R E D   B Y -                         
                 /     \                                                     
                 |  |  |   _    _      __       _____    __    __             
                 |  |  |  | |  | |    /  \     |  _  \  |  |  /  |          
                  \  \/   | |  | |   /    \    | | | |  |  | /  /          
                 / \  \   | |__| |  /  /\  \   | |_| |  |  |/  /          
                |  |  |   |  __  | /  /__\  \  |    /   |      \           
                |  |  |   | |  | | |   __   |  |    \   |  |\   \          
                \     /   | |  | | |  |  |  |  | |\  \  |  | \   \       
                 \___/    |_|  |_| |__|  |__|  |_| \__\ |__|  \__/        
                                                                              
                      - O R C A' S   B I G   F R I E N D -                    
                                      &                                       
                       - I N T E G R A L  F E E D E R -                       
                                                                              
 v1 FN, 2020, v2 2021                                                         
------------------------------------------------------------------------------


Reading SHARK input file ox_es1_A_orca0011.SHARKINP.tmp ... ok
----------------------
SHARK INTEGRAL PACKAGE
----------------------

Number of atoms                             ...      7
Number of basis functions                   ...    117
Number of shells                            ...     49
Maximum angular momentum                    ...      3
Integral batch strategy                     ... SHARK/LIBINT Hybrid
RI-J (if used) integral strategy            ... SPLIT-RIJ (Revised 2003 algorithm where possible)
Printlevel                                  ...      1
Contraction scheme used                     ... SEGMENTED contraction
Coulomb Range Separation                    ... NOT USED
Exchange Range Separation                   ... NOT USED
Finite Nucleus Model                        ... NOT USED
Auxiliary Coulomb fitting basis             ... AVAILABLE
   # of basis functions in Aux-J            ...    191
   # of shells in Aux-J                     ...     65
   Maximum angular momentum in Aux-J        ...      4
Auxiliary J/K fitting basis                 ... NOT available
Auxiliary Correlation fitting basis         ... NOT available
Auxiliary 'external' fitting basis          ... NOT available
Integral threshold                          ...     2.500000e-11
Primitive cut-off                           ...     2.500000e-12
Primitive pair pre-selection threshold      ...     2.500000e-12

Calculating pre-screening integrals         ... done (  0.0 sec) Dimension = 49
Organizing shell pair data                  ... done (  0.0 sec)
Shell pair information
Total number of shell pairs                 ...      1225
Shell pairs after pre-screening             ...      1221
Total number of primitive shell pairs       ...      3648
Primitive shell pairs kept                  ...      3158
          la=0 lb=0:    374 shell pairs
          la=1 lb=0:    351 shell pairs
          la=1 lb=1:     91 shell pairs
          la=2 lb=0:    162 shell pairs
          la=2 lb=1:     78 shell pairs
          la=2 lb=2:     21 shell pairs
          la=3 lb=0:     81 shell pairs
          la=3 lb=1:     39 shell pairs
          la=3 lb=2:     18 shell pairs
          la=3 lb=3:      6 shell pairs

Calculating one electron integrals          ... done (  0.0 sec)
Calculating RI/J V-Matrix + Cholesky decomp.... done (  0.0 sec)
Calculating Nuclear repulsion               ... done (  0.0 sec) ENN=     76.832628663944 Eh

SHARK setup successfully completed in   0.1 seconds

Maximum memory used throughout the entire GTOINT-calculation: 14.9 MB


           ************************************************************
           *        Program running with 8 parallel MPI-processes     *
           *              working on a common directory               *
           ************************************************************
-------------------------------------------------------------------------------
                                 ORCA SCF
-------------------------------------------------------------------------------

------------
SCF SETTINGS
------------
Hamiltonian:
 Density Functional     Method          .... DFT(GTOs)
 Exchange Functional    Exchange        .... PBE
   PBE kappa parameter   XKappa         ....  0.804000
   PBE mue parameter    XMuePBE         ....  0.219520
 Correlation Functional Correlation     .... PBE
   PBE beta parameter  CBetaPBE         ....  0.066725
 LDA part of GGA corr.  LDAOpt          .... PW91-LDA
 Gradients option       PostSCFGGA      .... off
 Hybrid DFT is turned on
   Fraction HF Exchange ScalHFX         ....  0.250000
   Scaling of DF-GGA-X  ScalDFX         ....  0.750000
   Scaling of DF-GGA-C  ScalDFC         ....  1.000000
   Scaling of DF-LDA-C  ScalLDAC        ....  1.000000
   Perturbative correction              ....  0.000000
   Density functional embedding theory  .... OFF
   NL short-range parameter             ....  6.900000
 RI-approximation to the Coulomb term is turned on
   Number of AuxJ basis functions       .... 191
   RIJ-COSX (HFX calculated with COS-X)).... on


General Settings:
 Integral files         IntName         .... ox_es1_A_orca0011
 Hartree-Fock type      HFTyp           .... RHF
 Total Charge           Charge          ....    0
 Multiplicity           Mult            ....    1
 Number of Electrons    NEL             ....   24
 Basis Dimension        Dim             ....  117
 Nuclear Repulsion      ENuc            ....     76.8326286639 Eh

Convergence Acceleration:
 DIIS                   CNVDIIS         .... on
   Start iteration      DIISMaxIt       ....    12
   Startup error        DIISStart       ....  0.200000
   # of expansion vecs  DIISMaxEq       ....     5
   Bias factor          DIISBfac        ....   1.050
   Max. coefficient     DIISMaxC        ....  10.000
 Trust-Rad. Augm. Hess. CNVTRAH         .... auto
   Auto Start mean grad. ratio tolernc. ....  1.125000
   Auto Start start iteration           ....     1
   Auto Start num. interpolation iter.  ....    10
   Max. Number of Micro iterations      ....    16
   Max. Number of Macro iterations      .... Maxiter - #DIIS iter
   Number of Davidson start vectors     ....     2
   Converg. threshold I  (grad. norm)   ....   1.000e-05
   Converg. threshold II (energy diff.) ....   1.000e-08
   Grad. Scal. Fac. for Micro threshold ....   0.100
   Minimum threshold for Micro iter.    ....   0.010
   NR start threshold (gradient norm)   ....   0.001
   Initial trust radius                 ....   0.400
   Minimum AH scaling param. (alpha)    ....   1.000
   Maximum AH scaling param. (alpha)    .... 1000.000
   Orbital update algorithm             .... Taylor
   White noise on init. David. guess    .... on
   Maximum white noise                  ....   0.010
   Quad. conv. algorithm                .... NR
 SOSCF                  CNVSOSCF        .... on
   Start iteration      SOSCFMaxIt      ....   150
   Startup grad/error   SOSCFStart      ....  0.003300
 Level Shifting         CNVShift        .... on
   Level shift para.    LevelShift      ....    0.2500
   Turn off err/grad.   ShiftErr        ....    0.0010
 Zerner damping         CNVZerner       .... off
 Static damping         CNVDamp         .... on
   Fraction old density DampFac         ....    0.7000
   Max. Damping (<1)    DampMax         ....    0.9800
   Min. Damping (>=0)   DampMin         ....    0.0000
   Turn off err/grad.   DampErr         ....    0.1000
 Fernandez-Rico         CNVRico         .... off

SCF Procedure:
 Maximum # iterations   MaxIter         ....   125
 SCF integral mode      SCFMode         .... Direct
   Integral package                     .... SHARK and LIBINT hybrid scheme
 Reset frequency        DirectResetFreq ....    20
 Integral Threshold     Thresh          ....  2.500e-11 Eh
 Primitive CutOff       TCut            ....  2.500e-12 Eh

Convergence Tolerance:
 Convergence Check Mode ConvCheckMode   .... Total+1el-Energy
 Convergence forced     ConvForced      .... 1
 Energy Change          TolE            ....  1.000e-08 Eh
 1-El. energy change                    ....  1.000e-05 Eh
 Orbital Gradient       TolG            ....  1.000e-05
 Orbital Rotation angle TolX            ....  1.000e-05
 DIIS Error             TolErr          ....  5.000e-07


Diagonalization of the overlap matrix:
Smallest eigenvalue                        ... 2.046e-04
Time for diagonalization                   ...    0.001 sec
Threshold for overlap eigenvalues          ... 1.000e-08
Number of eigenvalues below threshold      ... 0
Time for construction of square roots      ...    0.001 sec
Total time needed                          ...    0.003 sec

---------------------
INITIAL GUESS: MOREAD
---------------------
Guess MOs are being read from file: ox_es1_A_orca0011.ges
Input Geometry matches current geometry (good)
Input basis set matches current basis set (good)
MOs were renormalized
MOs were reorthogonalized (Cholesky)
                      ------------------
                      INITIAL GUESS DONE (   0.0 sec)
                      ------------------
-------------------
DFT GRID GENERATION
-------------------

General Integration Accuracy     IntAcc      ... 4.388
Radial Grid Type                 RadialGrid  ... OptM3 with GC (2021)
Angular Grid (max. ang.)         AngularGrid ... 4 (Lebedev-302)
Angular grid pruning method      GridPruning ... 4 (adaptive)
Weight generation scheme         WeightScheme... Becke
Basis function cutoff            BFCut       ... 1.0000e-11
Integration weight cutoff        WCut        ... 1.0000e-14
Angular grids for H and He will be reduced by one unit
Partially contracted basis set               ... off
Rotationally invariant grid construction     ... off

Total number of grid points                  ...    31296
Total number of batches                      ...      493
Average number of points per batch           ...       63
Average number of grid points per atom       ...     4471
Time for grid setup =    0.120 sec

--------------------
COSX GRID GENERATION
--------------------

GRIDX 1
-------
General Integration Accuracy     IntAcc      ... 3.816
Radial Grid Type                 RadialGrid  ... OptM3 with GC (2021)
Angular Grid (max. ang.)         AngularGrid ... 1 (Lebedev-50)
Angular grid pruning method      GridPruning ... 4 (adaptive)
Weight generation scheme         WeightScheme... Becke
Basis function cutoff            BFCut       ... 1.0000e-11
Integration weight cutoff        WCut        ... 1.0000e-14
Angular grids for H and He will be reduced by one unit
Partially contracted basis set               ... on
Rotationally invariant grid construction     ... off

Total number of grid points                  ...     4039
Total number of batches                      ...       68
Average number of points per batch           ...       59
Average number of grid points per atom       ...      577
UseSFitting                                  ... on

GRIDX 2
-------
General Integration Accuracy     IntAcc      ... 4.020
Radial Grid Type                 RadialGrid  ... OptM3 with GC (2021)
Angular Grid (max. ang.)         AngularGrid ... 2 (Lebedev-110)
Angular grid pruning method      GridPruning ... 4 (adaptive)
Weight generation scheme         WeightScheme... Becke
Basis function cutoff            BFCut       ... 1.0000e-11
Integration weight cutoff        WCut        ... 1.0000e-14
Angular grids for H and He will be reduced by one unit
Partially contracted basis set               ... on
Rotationally invariant grid construction     ... off

Total number of grid points                  ...     8711
Total number of batches                      ...      140
Average number of points per batch           ...       62
Average number of grid points per atom       ...     1244
UseSFitting                                  ... on

GRIDX 3
-------
General Integration Accuracy     IntAcc      ... 4.338
Radial Grid Type                 RadialGrid  ... OptM3 with GC (2021)
Angular Grid (max. ang.)         AngularGrid ... 3 (Lebedev-194)
Angular grid pruning method      GridPruning ... 4 (adaptive)
Weight generation scheme         WeightScheme... Becke
Basis function cutoff            BFCut       ... 1.0000e-11
Integration weight cutoff        WCut        ... 1.0000e-14
Angular grids for H and He will be reduced by one unit
Partially contracted basis set               ... on
Rotationally invariant grid construction     ... off

Total number of grid points                  ...    19245
Total number of batches                      ...      304
Average number of points per batch           ...       63
Average number of grid points per atom       ...     2749
UseSFitting                                  ... on

Time for X-Grid setup             =    0.073 sec

--------------
SCF ITERATIONS
--------------
ITER       Energy         Delta-E        Max-DP      RMS-DP      [F,P]     Damp
               ***  Starting incremental Fock matrix formation  ***
                      *** Initiating the SOSCF procedure ***
                      *** Re-Reading the Fockian *** 
                      *** Removing any level shift *** 
ITER      Energy       Delta-E        Grad      Rot      Max-DP    RMS-DP
  0   -153.64473847 -153.6447384695  0.000000  0.000000  0.000001  0.000000
               *** Restarting incremental Fock matrix formation ***
                 **** Energy Check signals convergence ****
              ***Rediagonalizing the Fockian in SOSCF/NRSCF***

               *****************************************************
               *                     SUCCESS                       *
               *           SCF CONVERGED AFTER   1 CYCLES          *
               *****************************************************

Old exchange energy                            =     -5.004693407 Eh
New exchange energy                            =     -5.004681554 Eh
Exchange energy change after final integration =      0.000011853 Eh
Total energy after final integration           =   -153.644726617 Eh
Final COS-X integration done in                =     0.273 sec

----------------
TOTAL SCF ENERGY
----------------

Total Energy       :         -153.64472662 Eh           -4180.88556 eV

Components:
Nuclear Repulsion  :           76.83262866 Eh            2090.72212 eV
Electronic Energy  :         -230.47735528 Eh           -6271.60768 eV
One Electron Energy:         -360.13746805 Eh           -9799.83872 eV
Two Electron Energy:          129.66011276 Eh            3528.23104 eV
Max COSX asymmetry :            0.00000114 Eh               0.00003 eV

Virial components:
Potential Energy   :         -306.79174607 Eh           -8348.22783 eV
Kinetic Energy     :          153.14701945 Eh            4167.34226 eV
Virial Ratio       :            2.00324987


DFT components:
N(Alpha)           :       12.000002969872 electrons
N(Beta)            :       12.000002969872 electrons
N(Total)           :       24.000005939744 electrons
E(X)               :      -14.982240720444 Eh       
E(C)               :       -0.793219139244 Eh       
E(XC)              :      -15.775459859688 Eh       
DFET-embed. en.    :        0.000000000000 Eh       

---------------
SCF CONVERGENCE
---------------

  Last Energy change         ...   -4.5191e-12  Tolerance :   1.0000e-08
  Last MAX-Density change    ...    1.3323e-15  Tolerance :   1.0000e-07
  Last RMS-Density change    ...    3.0256e-17  Tolerance :   5.0000e-09
  Last Orbital Gradient      ...    1.5436e-07  Tolerance :   1.0000e-05
  Last Orbital Rotation      ...    3.1038e-07  Tolerance :   1.0000e-05

             **** THE GBW FILE WAS UPDATED (ox_es1_A_orca0011.gbw) ****
             **** DENSITY ox_es1_A_orca0011.scfp WAS UPDATED ****
             **** ENERGY FILE WAS UPDATED (ox_es1_A_orca0011.en.tmp) ****
             **** THE GBW FILE WAS UPDATED (ox_es1_A_orca0011.gbw) ****
             **** DENSITY ox_es1_A_orca0011.scfp WAS UPDATED ****
----------------
ORBITAL ENERGIES
----------------

  NO   OCC          E(Eh)            E(eV) 
   0   2.0000     -19.229714      -523.2671 
   1   2.0000     -10.280993      -279.7600 
   2   2.0000     -10.268864      -279.4300 
   3   2.0000      -1.140661       -31.0390 
   4   2.0000      -0.719018       -19.5655 
   5   2.0000      -0.645150       -17.5554 
   6   2.0000      -0.540361       -14.7040 
   7   2.0000      -0.516733       -14.0610 
   8   2.0000      -0.424593       -11.5538 
   9   2.0000      -0.378020       -10.2864 
  10   2.0000      -0.345345        -9.3973 
  11   2.0000      -0.288693        -7.8557 
  12   0.0000       0.053596         1.4584 
  13   0.0000       0.072217         1.9651 
  14   0.0000       0.087727         2.3872 
  15   0.0000       0.091892         2.5005 
  16   0.0000       0.119103         3.2409 
  17   0.0000       0.151878         4.1328 
  18   0.0000       0.189610         5.1595 
  19   0.0000       0.226211         6.1555 
  20   0.0000       0.266834         7.2609 
  21   0.0000       0.273274         7.4362 
  22   0.0000       0.293132         7.9765 
  23   0.0000       0.347993         9.4694 
  24   0.0000       0.367231         9.9929 
  25   0.0000       0.385512        10.4903 
  26   0.0000       0.410853        11.1799 
  27   0.0000       0.435968        11.8633 
  28   0.0000       0.450151        12.2492 
  29   0.0000       0.469507        12.7759 
  30   0.0000       0.514054        13.9881 
  31   0.0000       0.523779        14.2528 
  32   0.0000       0.536329        14.5943 
  33   0.0000       0.690547        18.7907 
  34   0.0000       0.708478        19.2787 
  35   0.0000       0.743160        20.2224 
  36   0.0000       0.827001        22.5038 
  37   0.0000       0.866583        23.5809 
  38   0.0000       0.900756        24.5108 
  39   0.0000       0.951563        25.8934 
  40   0.0000       1.024450        27.8767 
  41   0.0000       1.056383        28.7456 
  42   0.0000       1.094538        29.7839 
  43   0.0000       1.107727        30.1428 
  44   0.0000       1.185329        32.2544 
  45   0.0000       1.367907        37.2226 
  46   0.0000       1.452944        39.5366 
  47   0.0000       1.490083        40.5472 
  48   0.0000       1.517129        41.2832 
  49   0.0000       1.532550        41.7028 
  50   0.0000       1.557602        42.3845 
  51   0.0000       1.607487        43.7420 
  52   0.0000       1.659189        45.1488 
  53   0.0000       1.689865        45.9836 
  54   0.0000       1.750516        47.6339 
  55   0.0000       1.788755        48.6745 
  56   0.0000       1.821159        49.5562 
  57   0.0000       1.902562        51.7713 
  58   0.0000       1.952711        53.1360 
  59   0.0000       1.988560        54.1115 
  60   0.0000       2.106058        57.3087 
  61   0.0000       2.151361        58.5415 
  62   0.0000       2.170144        59.0526 
  63   0.0000       2.278225        61.9937 
  64   0.0000       2.299303        62.5672 
  65   0.0000       2.388213        64.9866 
  66   0.0000       2.428035        66.0702 
  67   0.0000       2.471923        67.2644 
  68   0.0000       2.556180        69.5572 
  69   0.0000       2.576823        70.1189 
  70   0.0000       2.660928        72.4075 
  71   0.0000       2.669603        72.6436 
  72   0.0000       2.699833        73.4662 
  73   0.0000       2.742115        74.6167 
  74   0.0000       2.775206        75.5172 
  75   0.0000       2.789867        75.9161 
  76   0.0000       2.869016        78.0699 
  77   0.0000       2.946295        80.1728 
  78   0.0000       3.001209        81.6671 
  79   0.0000       3.019297        82.1592 
  80   0.0000       3.064303        83.3839 
  81   0.0000       3.082590        83.8816 
  82   0.0000       3.138116        85.3925 
  83   0.0000       3.268288        88.9346 
  84   0.0000       3.334335        90.7319 
  85   0.0000       3.391193        92.2791 
  86   0.0000       3.400378        92.5290 
  87   0.0000       3.443031        93.6896 
  88   0.0000       3.571876        97.1957 
  89   0.0000       3.625283        98.6490 
  90   0.0000       3.662936        99.6735 
  91   0.0000       3.760136       102.3185 
  92   0.0000       3.906903       106.3122 
  93   0.0000       4.074481       110.8723 
  94   0.0000       4.156715       113.1100 
  95   0.0000       4.213946       114.6673 
  96   0.0000       4.263590       116.0182 
  97   0.0000       4.318598       117.5150 
  98   0.0000       4.473107       121.7194 
  99   0.0000       4.567493       124.2878 
 100   0.0000       4.738215       128.9334 
 101   0.0000       4.853734       132.0768 
 102   0.0000       5.311440       144.5316 
 103   0.0000       5.446232       148.1995 
 104   0.0000       5.710275       155.3845 
 105   0.0000       5.790126       157.5573 
 106   0.0000       5.882479       160.0704 
 107   0.0000       5.943653       161.7350 
 108   0.0000       6.119299       166.5146 
 109   0.0000       6.593216       179.4105 
 110   0.0000       6.618656       180.1028 
 111   0.0000       6.823597       185.6795 
 112   0.0000       6.971144       189.6945 
 113   0.0000       7.161209       194.8664 
 114   0.0000      22.323322       607.4485 
 115   0.0000      22.646621       616.2459 
 116   0.0000      43.881034      1194.0636 

                    ********************************
                    * MULLIKEN POPULATION ANALYSIS *
                    ********************************

-----------------------
MULLIKEN ATOMIC CHARGES
-----------------------
   0 O :   -0.307335
   1 C :   -0.037429
   2 C :   -0.079193
   3 H :    0.067753
   4 H :    0.119641
   5 H :    0.109145
   6 H :    0.127418
Sum of atomic charges:   -0.0000000

--------------------------------
MULLIKEN REDUCED ORBITAL CHARGES
--------------------------------
  0 O s       :     3.855951  s :     3.855951
      pz      :     1.805174  p :     4.402563
      px      :     1.336692
      py      :     1.260697
      dz2     :     0.005954  d :     0.046330
      dxz     :     0.002700
      dyz     :     0.008042
      dx2y2   :     0.013562
      dxy     :     0.016072
      f0      :     0.000306  f :     0.002491
      f+1     :     0.000191
      f-1     :     0.000496
      f+2     :     0.000129
      f-2     :     0.000222
      f+3     :     0.000438
      f-3     :     0.000709
  1 C s       :     3.184373  s :     3.184373
      pz      :     1.028530  p :     2.701183
      px      :     0.918448
      py      :     0.754205
      dz2     :     0.004571  d :     0.137925
      dxz     :     0.033199
      dyz     :     0.038399
      dx2y2   :     0.035460
      dxy     :     0.026296
      f0      :     0.001828  f :     0.013949
      f+1     :     0.001340
      f-1     :     0.000873
      f+2     :     0.001992
      f-2     :     0.002033
      f+3     :     0.001999
      f-3     :     0.003885
  2 C s       :     3.206034  s :     3.206034
      pz      :     1.046262  p :     2.749113
      px      :     0.939104
      py      :     0.763747
      dz2     :     0.006111  d :     0.112388
      dxz     :     0.026329
      dyz     :     0.028829
      dx2y2   :     0.029061
      dxy     :     0.022057
      f0      :     0.001465  f :     0.011659
      f+1     :     0.001303
      f-1     :     0.000644
      f+2     :     0.001394
      f-2     :     0.001671
      f+3     :     0.002090
      f-3     :     0.003092
  3 H s       :     0.918145  s :     0.918145
      pz      :     0.007474  p :     0.014102
      px      :     0.004568
      py      :     0.002060
  4 H s       :     0.859027  s :     0.859027
      pz      :     0.009654  p :     0.021331
      px      :     0.007648
      py      :     0.004029
  5 H s       :     0.867712  s :     0.867712
      pz      :     0.011201  p :     0.023143
      px      :     0.007090
      py      :     0.004853
  6 H s       :     0.852099  s :     0.852099
      pz      :     0.010544  p :     0.020483
      px      :     0.006261
      py      :     0.003677


                     *******************************
                     * LOEWDIN POPULATION ANALYSIS *
                     *******************************

----------------------
LOEWDIN ATOMIC CHARGES
----------------------
   0 O :    0.184389
   1 C :   -0.393049
   2 C :   -0.271304
   3 H :    0.126549
   4 H :    0.111858
   5 H :    0.113373
   6 H :    0.128184

-------------------------------
LOEWDIN REDUCED ORBITAL CHARGES
-------------------------------
  0 O s       :     3.353111  s :     3.353111
      pz      :     1.679243  p :     4.353756
      px      :     1.306107
      py      :     1.368406
      dz2     :     0.012080  d :     0.100865
      dxz     :     0.008251
      dyz     :     0.017786
      dx2y2   :     0.037090
      dxy     :     0.025659
      f0      :     0.000753  f :     0.007879
      f+1     :     0.000261
      f-1     :     0.001064
      f+2     :     0.000265
      f-2     :     0.001001
      f+3     :     0.001324
      f-3     :     0.003210
  1 C s       :     2.802628  s :     2.802628
      pz      :     1.011171  p :     2.896947
      px      :     1.049648
      py      :     0.836128
      dz2     :     0.051178  d :     0.596870
      dxz     :     0.166287
      dyz     :     0.114344
      dx2y2   :     0.135086
      dxy     :     0.129976
      f0      :     0.012110  f :     0.096603
      f+1     :     0.006892
      f-1     :     0.007035
      f+2     :     0.013210
      f-2     :     0.009427
      f+3     :     0.017023
      f-3     :     0.030907
  2 C s       :     2.794810  s :     2.794810
      pz      :     1.040509  p :     2.913860
      px      :     1.078622
      py      :     0.794729
      dz2     :     0.052425  d :     0.485839
      dxz     :     0.147397
      dyz     :     0.080721
      dx2y2   :     0.104772
      dxy     :     0.100525
      f0      :     0.010269  f :     0.076796
      f+1     :     0.006736
      f-1     :     0.005941
      f+2     :     0.009156
      f-2     :     0.006520
      f+3     :     0.015107
      f-3     :     0.023067
  3 H s       :     0.838383  s :     0.838383
      pz      :     0.020165  p :     0.035068
      px      :     0.009852
      py      :     0.005050
  4 H s       :     0.825206  s :     0.825206
      pz      :     0.030548  p :     0.062936
      px      :     0.020068
      py      :     0.012320
  5 H s       :     0.816876  s :     0.816876
      pz      :     0.034736  p :     0.069751
      px      :     0.020357
      py      :     0.014658
  6 H s       :     0.813385  s :     0.813385
      pz      :     0.031004  p :     0.058432
      px      :     0.016565
      py      :     0.010863


                      *****************************
                      * MAYER POPULATION ANALYSIS *
                      *****************************

  NA   - Mulliken gross atomic population
  ZA   - Total nuclear charge
  QA   - Mulliken gross atomic charge
  VA   - Mayer's total valence
  BVA  - Mayer's bonded valence
  FA   - Mayer's free valence

  ATOM       NA         ZA         QA         VA         BVA        FA
  0 O      8.3073     8.0000    -0.3073     2.0331     2.0331    -0.0000
  1 C      6.0374     6.0000    -0.0374     3.9965     3.9965     0.0000
  2 C      6.0792     6.0000    -0.0792     3.9942     3.9942    -0.0000
  3 H      0.9322     1.0000     0.0678     0.9645     0.9645    -0.0000
  4 H      0.8804     1.0000     0.1196     0.9487     0.9487    -0.0000
  5 H      0.8909     1.0000     0.1091     0.9617     0.9617    -0.0000
  6 H      0.8726     1.0000     0.1274     0.9605     0.9605    -0.0000

  Mayer bond orders larger than 0.100000
B(  0-O ,  1-C ) :   1.0190 B(  0-O ,  2-C ) :   0.9695 B(  1-C ,  2-C ) :   1.0941 
B(  1-C ,  3-H ) :   0.9283 B(  1-C ,  4-H ) :   0.9431 B(  2-C ,  5-H ) :   0.9606 
B(  2-C ,  6-H ) :   0.9452 

-------
TIMINGS
-------

Total SCF time: 0 days 0 hours 0 min 1 sec 

Total time                  ....       1.002 sec
Sum of individual times     ....       0.916 sec  ( 91.4%)

Fock matrix formation       ....       0.706 sec  ( 70.5%)
  Split-RI-J                ....       0.112 sec  ( 15.9% of F)
  Chain of spheres X        ....       0.529 sec  ( 74.9% of F)
  XC integration            ....       0.063 sec  (  8.9% of F)
    Basis function eval.    ....       0.017 sec  ( 27.7% of XC)
    Density eval.           ....       0.014 sec  ( 21.7% of XC)
    XC-Functional eval.     ....       0.004 sec  (  6.1% of XC)
    XC-Potential eval.      ....       0.020 sec  ( 31.1% of XC)
Diagonalization             ....       0.002 sec  (  0.2%)
Density matrix formation    ....       0.001 sec  (  0.1%)
Population analysis         ....       0.002 sec  (  0.2%)
Initial guess               ....       0.008 sec  (  0.8%)
Orbital Transformation      ....       0.000 sec  (  0.0%)
Orbital Orthonormalization  ....       0.001 sec  (  0.1%)
DIIS solution               ....       0.001 sec  (  0.1%)
SOSCF solution              ....       0.002 sec  (  0.2%)
Grid generation             ....       0.193 sec  ( 19.3%)

Maximum memory used throughout the entire SCF-calculation: 61.1 MB


           ************************************************************
           *        Program running with 8 parallel MPI-processes     *
           *              working on a common directory               *
           ************************************************************
------------------------------------------------------------------------------
                        ORCA TD-DFT/TDA CALCULATION
------------------------------------------------------------------------------

Input orbitals are from        ... ox_es1_A_orca0011.gbw
CI-vector output               ... ox_es1_A_orca0011.cis
Tamm-Dancoff approximation     ... operative
CIS-Integral strategy          ... AO-integrals
Integral handling              ... AO integral Direct
Max. core memory used          ... 3000 MB
Reference state                ... RHF
Generation of triplets         ... off
Follow IRoot                   ... off
Number of operators            ... 1
Orbital ranges used for CIS calculation:
 Operator 0:  Orbitals   3... 11  to  12...116
XAS localization array:
 Operator 0:  Orbitals  -1... -1

-------------------
XC-INTEGRATION GRID
-------------------

General Integration Accuracy     IntAcc      ... 3.467
Radial Grid Type                 RadialGrid  ... OptM3 with GC (2021)
Angular Grid (max. ang.)         AngularGrid ... 1 (Lebedev-50)
Angular grid pruning method      GridPruning ... 4 (adaptive)
Weight generation scheme         WeightScheme... Becke
Basis function cutoff            BFCut       ... 1.0000e-11
Integration weight cutoff        WCut        ... 1.0000e-14
Angular grids for H and He will be reduced by one unit
Partially contracted basis set               ... off
Rotationally invariant grid construction     ... off

Total number of grid points                  ...     4537
Total number of batches                      ...       75
Average number of points per batch           ...       60
Average number of grid points per atom       ...      648

---------------------
COSX-INTEGRATION GRID
---------------------

General Integration Accuracy     IntAcc      ... 3.067
Radial Grid Type                 RadialGrid  ... OptM3 with GC (2021)
Angular Grid (max. ang.)         AngularGrid ... 1 (Lebedev-50)
Angular grid pruning method      GridPruning ... 4 (adaptive)
Weight generation scheme         WeightScheme... Becke
Basis function cutoff            BFCut       ... 1.0000e-11
Integration weight cutoff        WCut        ... 1.0000e-14
Angular grids for H and He will be reduced by one unit
Partially contracted basis set               ... on
Rotationally invariant grid construction     ... off

Total number of grid points                  ...     2087
Total number of batches                      ...       37
Average number of points per batch           ...       56
Average number of grid points per atom       ...      298

---------------
TD-DFT XC SETUP
---------------

DFT calculation                         ... on
Name of the grid file                   ... ox_es1_A_orca0011.grid_cis.tmp
Exchange functional (TD-DFT)            ... PBE
   PBE kappa parameter  XKappa (TD-DFT) ...  0.804000
   PBE mue parameter   XMuePBE (TD-DFT) ...  0.219520
Correlation functional (TD-DFT)         ... PBE
   PBE beta parameter CBetaPBE (TD-DFT) ...  0.066725
 LDA part of GGA corr.  LDAOpt (TD-DFT) ... PW91-LDA
Hybrid DFT                              ... on
   Exchange mixing (TD-DFT)             ...  0.250
   GGA exch. scaling (TD-DFT)           ...  0.750
   GGA corr. scaling (TD-DFT)           ...  1.000

Building densities             ... done
Calculating rho(r) on the grid ... done
Building xc-kernel on the grid ... done
                    *** TD-DFT CALCULATION INITIALIZED ***

------------------------
DAVIDSON-DIAGONALIZATION
------------------------

Dimension of the eigenvalue problem            ...    945
Number of roots to be determined               ...      1
Maximum size of the expansion space            ...     10
Maximum number of iterations                   ...    100
Convergence tolerance for the residual         ...    2.500e-07
Convergence tolerance for the energies         ...    2.500e-07
Orthogonality tolerance                        ...    1.000e-14
Level Shift                                    ...    0.000e+00
Constructing the preconditioner                ... o.k.
Building the initial guess                     ... o.k.
Number of trial vectors determined             ...     10


                       ****Iteration    0****

   Memory handling for direct AO based CIS:
   Memory per vector needed      ...     1 MB
   Memory needed                 ...     1 MB
   Memory available              ...  3000 MB
   Number of vectors per batch   ...  3000
   Number of batches             ...     1
   Time for densities:            0.000
   Time for RI-J (Direct):        0.016
   Time for K (COSX):             0.055
   Time for XC-Integration:       0.016
   Time for Sigma-Completion:     0.000
   Size of expansion space: 3
   Lowest Energy          :     0.294317753925
   Maximum Energy change  :     0.294317753925 (vector 0)
   Maximum residual norm  :     0.003259909125

                       ****Iteration    1****
   Time for densities:            0.000
   Time for RI-J (Direct):        0.012
   Time for K (COSX):             0.049
   Time for XC-Integration:       0.007
   Time for Sigma-Completion:     0.000
   Size of expansion space: 4
   Lowest Energy          :     0.290866473365
   Maximum Energy change  :     0.003451280560 (vector 0)
   Maximum residual norm  :     0.000313188359

                       ****Iteration    2****
   Time for densities:            0.000
   Time for RI-J (Direct):        0.012
   Time for K (COSX):             0.049
   Time for XC-Integration:       0.007
   Time for Sigma-Completion:     0.000
   Size of expansion space: 5
   Lowest Energy          :     0.290427811763
   Maximum Energy change  :     0.000438661601 (vector 0)
   Maximum residual norm  :     0.000124393265

                       ****Iteration    3****
   Time for densities:            0.000
   Time for RI-J (Direct):        0.012
   Time for K (COSX):             0.049
   Time for XC-Integration:       0.007
   Time for Sigma-Completion:     0.000
   Size of expansion space: 6
   Lowest Energy          :     0.290244673835
   Maximum Energy change  :     0.000183137929 (vector 0)
   Maximum residual norm  :     0.000026032779

                       ****Iteration    4****
   Time for densities:            0.000
   Time for RI-J (Direct):        0.012
   Time for K (COSX):             0.049
   Time for XC-Integration:       0.007
   Time for Sigma-Completion:     0.000
   Size of expansion space: 7
   Lowest Energy          :     0.290205619895
   Maximum Energy change  :     0.000039053940 (vector 0)
   Maximum residual norm  :     0.000002915085

                       ****Iteration    5****
   Time for densities:            0.000
   Time for RI-J (Direct):        0.012
   Time for K (COSX):             0.049
   Time for XC-Integration:       0.007
   Time for Sigma-Completion:     0.000
   Size of expansion space: 8
   Lowest Energy          :     0.290201640610
   Maximum Energy change  :     0.000003979285 (vector 0)
   Maximum residual norm  :     0.000000366738

                       ****Iteration    6****
   Time for densities:            0.000
   Time for RI-J (Direct):        0.012
   Time for K (COSX):             0.049
   Time for XC-Integration:       0.007
   Time for Sigma-Completion:     0.000
   Size of expansion space: 9
   Lowest Energy          :     0.290201085202
   Maximum Energy change  :     0.000000555408 (vector 0)
   Maximum residual norm  :     0.000000045560

      *** CONVERGENCE OF RESIDUAL NORM REACHED ***

Storing the converged CI vectors               ... ox_es1_A_orca0011.cis1

                 *** DAVIDSON DONE ***

Total time for solving the CIS problem:     0.501sec

------------------------------------
TD-DFT/TDA EXCITED STATES (SINGLETS)
------------------------------------

the weight of the individual excitations are printed if larger than 1.0e-02

STATE  1:  E=   0.290201 au      7.897 eV    63691.8 cm**-1 <S**2> =   0.000000
    11a ->  12a  :     0.260748 (c=  0.51063528)
    11a ->  13a  :     0.701216 (c=  0.83738656)
    11a ->  15a  :     0.010580 (c= -0.10285762)
    11a ->  16a  :     0.012874 (c= -0.11346493)


-----------------------------
TD-DFT/TDA-EXCITATION SPECTRA
-----------------------------

Center of mass = (  0.0675, -0.0560, -0.0464)
Calculating the Dipole integrals                  ... done
Transforming integrals                            ... done
Calculating the Linear Momentum integrals         ... done
Transforming integrals                            ... done
Calculating angular momentum integrals            ... done
Transforming integrals                            ... done

-----------------------------------------------------------------------------
         ABSORPTION SPECTRUM VIA TRANSITION ELECTRIC DIPOLE MOMENTS
-----------------------------------------------------------------------------
State   Energy    Wavelength  fosc         T2        TX        TY        TZ  
        (cm-1)      (nm)                 (au**2)    (au)      (au)      (au) 
-----------------------------------------------------------------------------
   1   63691.8    157.0   0.027590439   0.14261  -0.10079  -0.05236   0.36015

-----------------------------------------------------------------------------
         ABSORPTION SPECTRUM VIA TRANSITION VELOCITY DIPOLE MOMENTS
-----------------------------------------------------------------------------
State   Energy    Wavelength   fosc        P2         PX        PY        PZ  
        (cm-1)      (nm)                 (au**2)     (au)      (au)      (au) 
-----------------------------------------------------------------------------
   1   63691.8    157.0   0.044652329   0.01944   0.02738   0.01213  -0.13616

-------------------------------------------------------------------
                             CD SPECTRUM
-------------------------------------------------------------------
State  Energy     Wavelength     R         MX        MY        MZ   
       (cm-1)       (nm)     (1e40*cgs)   (au)      (au)      (au)  
-------------------------------------------------------------------
   1   63691.8    157.0     -1.32401   0.19622  -0.10505   0.03184

-------------------------------------------------------------------
         CD SPECTRUM VIA TRANSITION VELOCITY DIPOLE MOMENTS        
-------------------------------------------------------------------
State  Energy     Wavelength     R         MX        MY        MZ   
       (cm-1)       (nm)     (1e40*cgs)   (au)      (au)      (au)  
-------------------------------------------------------------------
   1   63691.8    157.0     -0.38584   0.19622  -0.10505   0.03184

Total run time:        0.791 sec

           *** ORCA-CIS/TD-DFT FINISHED WITHOUT ERROR ***

Maximum memory used throughout the entire CIS-calculation: 49.4 MB

-----------------------
CIS/TD-DFT TOTAL ENERGY
-----------------------

    E(SCF)  =   -153.644726617 Eh
    DE(CIS) =      0.290201085 Eh (Root  1)
    ----------------------------- ---------
    E(tot)  =   -153.354525532 Eh



-------------------------------------------------------------------------------
                          DFT DISPERSION CORRECTION                            
                                                                               
                              DFTD3 V3.1  Rev 1                                
                          USING Becke-Johnson damping                          
-------------------------------------------------------------------------------
The PBE0 functional is recognized
Active option DFTDOPT                   ...         4   

molecular C6(AA) [au] = 352.453593 


            DFT-D V3
 parameters
 s6 scaling factor         :     1.0000 
 a1 scaling factor         :     0.4145 
 s8 scaling factor         :     1.2177 
 a2 scaling factor         :     4.8593 
 ad hoc parameters k1-k3   :    16.0000     1.3333    -4.0000 

 Edisp/kcal,au: -1.518153772453  -0.002419331776 
 E6   /kcal   :  -0.995600364 
 E8   /kcal   :  -0.522553409 
 % E8         :  34.420321447 

-------------------------   ----------------
Dispersion correction           -0.002419332
-------------------------   ----------------


-------------------------   --------------------
FINAL SINGLE POINT ENERGY      -153.356944863398
-------------------------   --------------------



           ************************************************************
           *        Program running with 8 parallel MPI-processes     *
           *              working on a common directory               *
           ************************************************************
------------------------------------------------------------------------------
                         ORCA SCF GRADIENT CALCULATION
------------------------------------------------------------------------------


------------------------
TD-DFT GRADIENT XC SETUP
------------------------

Building densities                     ... done
Calculating rho(r) on the grid         ... done
Building xc-kernel on the grid         ... done
Building xc 3rd derivative on the grid      ... done
                *** TD-DFT GRADIENT CALCULATION INITIALIZED ***

-------------------
TD-DFT/TDA GRADIENT
-------------------

Reference wavefunction             ... RHF
State of interest                  ... 1
Basis dimension                    ... 117
DFT-XC contribution needed         ... YES
RI-approximation                   ... ON
CIS-vectors being read from        ... ox_es1_A_orca0011.cis

 => Number of Vectors found: 1
 => Orbital Window: 3...11 -> 12...116

Reading the CIS file                     ... done
Norm of the CI vector                    ... 1.000000000
Making the CIS (pseudo)densities         ... done
Making operators G(D) and Q(T)           ... done
Transforming the Fock operators          ... done
Making the frozen-core relaxed density   ... done
Constructing the G(H) operator           ... done
Transforming the G(H) operator           ... done
Calculating the CIS Lagrangian           ... done
Solving the Z-vector equations           ... done
Finalizing the relaxed density           ... done
Storing the relaxed density              ... done
Constructing the G(Z) operator           ... done
Transforming the G(Z) operator           ... done
Making the W-matrix                      ... done
Finalizing the W-matrix                  ... done
Transforming the W-matrix                ... done
Nuclear repulsion gradient               ... done
One-Electron gradient                    ... done
Dispersion correction                    ... done
Prescreening matrices                    ... done
COSX-gradient                            ... done
Coulomb gradient (RI)                    ... done
Exchange-Correlation gradient            ... done

                 ---------------------------
                 EXCITED STATE GRADIENT DONE
                 ---------------------------

------------------
CARTESIAN GRADIENT
------------------

   1   O   :    0.092280339   -0.160253186    0.013947586
   2   C   :    0.075834621    0.021691187   -0.073374044
   3   C   :   -0.130766446    0.150853269   -0.042697632
   4   H   :   -0.024470643   -0.016487256    0.047820865
   5   H   :    0.009673760   -0.001890999    0.012881587
   6   H   :   -0.032321873    0.005777068    0.032789510
   7   H   :    0.009761925    0.000224404    0.008611739

Difference to translation invariance:
           :   -0.0000083158   -0.0000855136   -0.0000203897

Difference to rotation invariance:
           :   -0.0004641165   -0.0000977195    0.0003009683

Norm of the cartesian gradient     ...    0.3056458651
RMS gradient                       ...    0.0666973958
MAX gradient                       ...    0.1602531864

------------------------------------------------------------------------------
                  RELAXED CIS/TDA DENSITY POPULATION ANALYSIS
                                   IROOT 1
------------------------------------------------------------------------------
------------------------------------------------------------------------------
                           ORCA POPULATION ANALYSIS
------------------------------------------------------------------------------
Input electron density              ... ox_es1_A_orca0011.cisp
BaseName (.gbw .S,...)              ... ox_es1_A_orca0011

                    ********************************
                    * MULLIKEN POPULATION ANALYSIS *
                    ********************************

-----------------------
MULLIKEN ATOMIC CHARGES
-----------------------
   0 O :    0.194236
   1 C :   -0.072139
   2 C :   -0.730566
   3 H :    0.151766
   4 H :    0.140528
   5 H :    0.155493
   6 H :    0.160683
Sum of atomic charges:   -0.0000000

--------------------------------
MULLIKEN REDUCED ORBITAL CHARGES
--------------------------------
  0 O s       :     3.663071  s :     3.663071
      pz      :     1.178420  p :     4.098652
      px      :     1.479464
      py      :     1.440768
      dz2     :     0.003291  d :     0.042149
      dxz     :     0.003052
      dyz     :     0.008601
      dx2y2   :     0.012726
      dxy     :     0.014478
      f0      :     0.000170  f :     0.001892
      f+1     :     0.000015
      f-1     :     0.000208
      f+2     :     0.000139
      f-2     :     0.000229
      f+3     :     0.000403
      f-3     :     0.000727
  1 C s       :     3.134809  s :     3.134809
      pz      :     0.999106  p :     2.816294
      px      :     0.981659
      py      :     0.835528
      dz2     :     0.004384  d :     0.108192
      dxz     :     0.030792
      dyz     :     0.016599
      dx2y2   :     0.033020
      dxy     :     0.023398
      f0      :     0.001232  f :     0.012845
      f+1     :     0.001572
      f-1     :     0.000733
      f+2     :     0.001377
      f-2     :     0.001664
      f+3     :     0.002609
      f-3     :     0.003658
  2 C s       :     3.300117  s :     3.300117
      pz      :     1.098880  p :     3.330902
      px      :     0.893403
      py      :     1.338619
      dz2     :     0.005533  d :     0.088939
      dxz     :     0.017220
      dyz     :     0.006921
      dx2y2   :     0.037816
      dxy     :     0.021450
      f0      :     0.001077  f :     0.010608
      f+1     :     0.001194
      f-1     :     0.000808
      f+2     :     0.000958
      f-2     :     0.001180
      f+3     :     0.002747
      f-3     :     0.002644
  3 H s       :     0.832093  s :     0.832093
      pz      :     0.008191  p :     0.016141
      px      :     0.005361
      py      :     0.002589
  4 H s       :     0.835645  s :     0.835645
      pz      :     0.010339  p :     0.023828
      px      :     0.008469
      py      :     0.005020
  5 H s       :     0.816612  s :     0.816612
      pz      :     0.010459  p :     0.027894
      px      :     0.007055
      py      :     0.010379
  6 H s       :     0.812962  s :     0.812962
      pz      :     0.009852  p :     0.026355
      px      :     0.006303
      py      :     0.010199


                     *******************************
                     * LOEWDIN POPULATION ANALYSIS *
                     *******************************

----------------------
LOEWDIN ATOMIC CHARGES
----------------------
   0 O :    0.441863
   1 C :   -0.406128
   2 C :   -0.635849
   3 H :    0.206840
   4 H :    0.140653
   5 H :    0.120513
   6 H :    0.132108

-------------------------------
LOEWDIN REDUCED ORBITAL CHARGES
-------------------------------
  0 O s       :     3.412147  s :     3.412147
      pz      :     1.106037  p :     4.025030
      px      :     1.432136
      py      :     1.486857
      dz2     :     0.015293  d :     0.113152
      dxz     :     0.009161
      dyz     :     0.017356
      dx2y2   :     0.040364
      dxy     :     0.030978
      f0      :     0.000728  f :     0.007807
      f+1     :     0.000175
      f-1     :     0.000981
      f+2     :     0.000251
      f-2     :     0.001032
      f+3     :     0.001322
      f-3     :     0.003319
  1 C s       :     2.824148  s :     2.824148
      pz      :     0.953840  p :     2.959616
      px      :     1.082483
      py      :     0.923293
      dz2     :     0.054344  d :     0.524519
      dxz     :     0.147445
      dyz     :     0.054778
      dx2y2   :     0.139425
      dxy     :     0.128527
      f0      :     0.008799  f :     0.097845
      f+1     :     0.007848
      f-1     :     0.007637
      f+2     :     0.009777
      f-2     :     0.007639
      f+3     :     0.025585
      f-3     :     0.030560
  2 C s       :     2.815693  s :     2.815693
      pz      :     1.046958  p :     3.178605
      px      :     1.052567
      py      :     1.079080
      dz2     :     0.065368  d :     0.555371
      dxz     :     0.130118
      dyz     :     0.037374
      dx2y2   :     0.163505
      dxy     :     0.159006
      f0      :     0.008895  f :     0.086180
      f+1     :     0.007146
      f-1     :     0.009864
      f+2     :     0.006026
      f-2     :     0.004944
      f+3     :     0.026705
      f-3     :     0.022600
  3 H s       :     0.752603  s :     0.752603
      pz      :     0.022009  p :     0.040557
      px      :     0.012496
      py      :     0.006052
  4 H s       :     0.791091  s :     0.791091
      pz      :     0.032277  p :     0.068257
      px      :     0.022596
      py      :     0.013384
  5 H s       :     0.798369  s :     0.798369
      pz      :     0.033820  p :     0.081118
      px      :     0.020236
      py      :     0.027063
  6 H s       :     0.795337  s :     0.795337
      pz      :     0.030319  p :     0.072555
      px      :     0.017034
      py      :     0.025202


                      *****************************
                      * MAYER POPULATION ANALYSIS *
                      *****************************

  NA   - Mulliken gross atomic population
  ZA   - Total nuclear charge
  QA   - Mulliken gross atomic charge
  VA   - Mayer's total valence
  BVA  - Mayer's bonded valence
  FA   - Mayer's free valence

  ATOM       NA         ZA         QA         VA         BVA        FA
  0 O      7.8058     8.0000     0.1942     1.6593     1.1368     0.5225
  1 C      6.0721     6.0000    -0.0721     3.8392     3.6406     0.1986
  2 C      6.7306     6.0000    -0.7306     4.1747     3.3087     0.8660
  3 H      0.8482     1.0000     0.1518     1.0114     0.8539     0.1575
  4 H      0.8595     1.0000     0.1405     1.0346     0.9432     0.0915
  5 H      0.8445     1.0000     0.1555     1.0041     0.9707     0.0334
  6 H      0.8393     1.0000     0.1607     1.0169     0.9730     0.0438

  Mayer bond orders larger than 0.100000
B(  0-O ,  1-C ) :   0.9342 B(  0-O ,  2-C ) :   0.1609 B(  1-C ,  2-C ) :   1.1224 
B(  1-C ,  3-H ) :   0.7523 B(  1-C ,  4-H ) :   0.8595 B(  2-C ,  5-H ) :   0.9709 
B(  2-C ,  6-H ) :   0.9581 


-------
TIMINGS
-------

Total TD-DFT gradient time         ...        5.002 sec

Fock matrix formation       ....       0.847 sec  ( 16.9%)
  Coulomb formation         ....       0.685 sec  ( 80.9% of F)
  RI-J                      ....       0.299 sec  ( 35.3% of F)
  Chain of spheres X        ....       0.386 sec  ( 45.6% of F)
  XC integration            ....       0.162 sec  ( 19.1% of F)
Z-vector equation           ....       1.240 sec  ( 24.8%)
One electron gradient       ....       0.032 sec  (  0.6%)
Prescreening matrices       ....       0.161 sec  (  3.2%)
RI-J Coulomb gradient       ....       0.268 sec  (  5.4%)
COSX gradient               ....       0.351 sec  (  7.0%)
XC gradient                 ....       1.770 sec  ( 35.4%)

Maximum memory used throughout the entire SCFGRAD-calculation: 130.3 MB

                            ***************************************
                            *     ORCA property calculations      *
                            ***************************************

                                    ---------------------
                                    Active property flags
                                    ---------------------
   (+) Dipole Moment


------------------------------------------------------------------------------
                       ORCA ELECTRIC PROPERTIES CALCULATION
------------------------------------------------------------------------------

Dipole Moment Calculation                       ... on
Quadrupole Moment Calculation                   ... off
Polarizability Calculation                      ... off
GBWName                                         ... ox_es1_A_orca0011.gbw
Electron density                                ... ox_es1_A_orca0011.scfp
The origin for moment calculation is the CENTER OF MASS  = ( 0.067470, -0.056015 -0.046401)

-------------
DIPOLE MOMENT
-------------
                                X             Y             Z
Electronic contribution:      0.25823       1.81438      -0.30639
Nuclear contribution   :     -0.13420      -2.53625       0.22589
                        -----------------------------------------
Total Dipole Moment    :      0.12404      -0.72187      -0.08050
                        -----------------------------------------
Magnitude (a.u.)       :      0.73686
Magnitude (Debye)      :      1.87295



--------------------
Rotational spectrum 
--------------------
 
Rotational constants in cm-1:     0.878874     0.777917     0.496191 
Rotational constants in MHz : 26347.974234 23321.352229 14875.441963 

 Dipole components along the rotational axes: 
x,y,z [a.u.] :    -0.442637    -0.580494    -0.100308 
x,y,z [Debye]:    -1.125093    -1.475498    -0.254962 

 

                        *** CIS RELAXED DENSITY ***

------------------------------------------------------------------------------
                       ORCA ELECTRIC PROPERTIES CALCULATION
------------------------------------------------------------------------------

Dipole Moment Calculation                       ... on
Quadrupole Moment Calculation                   ... off
Polarizability Calculation                      ... off
GBWName                                         ... ox_es1_A_orca0011.gbw
Electron density                                ... ox_es1_A_orca0011.cisp
The origin for moment calculation is the CENTER OF MASS  = ( 0.067470, -0.056015 -0.046401)

-------------
DIPOLE MOMENT
-------------
                                X             Y             Z
Electronic contribution:     -0.60484       2.72532      -0.26976
Nuclear contribution   :     -0.13420      -2.53625       0.22589
                        -----------------------------------------
Total Dipole Moment    :     -0.73904       0.18907      -0.04387
                        -----------------------------------------
Magnitude (a.u.)       :      0.76410
Magnitude (Debye)      :      1.94220



--------------------
Rotational spectrum 
--------------------
 
Rotational constants in cm-1:     0.878874     0.777917     0.496191 
Rotational constants in MHz : 26347.974234 23321.352229 14875.441963 

 Dipole components along the rotational axes: 
x,y,z [a.u.] :     0.741491    -0.182794     0.025136 
x,y,z [Debye]:     1.884720    -0.464624     0.063891 

 

Timings for individual modules:

Sum of individual times         ...        7.769 sec (=   0.129 min)
GTO integral calculation        ...        0.314 sec (=   0.005 min)   4.0 %
SCF iterations                  ...        1.203 sec (=   0.020 min)  15.5 %
CIS module                      ...        1.027 sec (=   0.017 min)  13.2 %
SCF Gradient evaluation         ...        5.224 sec (=   0.087 min)  67.2 %
                             ****ORCA TERMINATED NORMALLY****
TOTAL RUN TIME: 0 days 0 hours 0 minutes 8 seconds 141 msec
