
                                 *****************
                                 * O   R   C   A *
                                 *****************

                                            #,                                       
                                            ###                                      
                                            ####                                     
                                            #####                                    
                                            ######                                   
                                           ########,                                 
                                     ,,################,,,,,                         
                               ,,#################################,,                 
                          ,,##########################################,,             
                       ,#########################################, ''#####,          
                    ,#############################################,,   '####,        
                  ,##################################################,,,,####,       
                ,###########''''           ''''###############################       
              ,#####''   ,,,,##########,,,,          '''####'''          '####       
            ,##' ,,,,###########################,,,                        '##       
           ' ,,###''''                  '''############,,,                           
         ,,##''                                '''############,,,,        ,,,,,,###''
      ,#''                                            '''#######################'''  
     '                                                          ''''####''''         
             ,#######,   #######,   ,#######,      ##                                
            ,#'     '#,  ##    ##  ,#'     '#,    #''#        ######   ,####,        
            ##       ##  ##   ,#'  ##            #'  '#       #        #'  '#        
            ##       ##  #######   ##           ,######,      #####,   #    #        
            '#,     ,#'  ##    ##  '#,     ,#' ,#      #,         ##   #,  ,#        
             '#######'   ##     ##  '#######'  #'      '#     #####' # '####'        



                  #######################################################
                  #                        -***-                        #
                  #          Department of theory and spectroscopy      #
                  #    Directorship and core code : Frank Neese         #
                  #        Max Planck Institute fuer Kohlenforschung    #
                  #                Kaiser Wilhelm Platz 1               #
                  #                 D-45470 Muelheim/Ruhr               #
                  #                      Germany                        #
                  #                                                     #
                  #                  All rights reserved                #
                  #                        -***-                        #
                  #######################################################


                         Program Version 5.0.2 -  RELEASE  -


 With contributions from (in alphabetic order):
   Daniel Aravena         : Magnetic Suceptibility
   Michael Atanasov       : Ab Initio Ligand Field Theory (pilot matlab implementation)
   Alexander A. Auer      : GIAO ZORA, VPT2 properties, NMR spectrum
   Ute Becker             : Parallelization
   Giovanni Bistoni       : ED, misc. LED, open-shell LED, HFLD
   Martin Brehm           : Molecular dynamics
   Dmytro Bykov           : SCF Hessian
   Vijay G. Chilkuri      : MRCI spin determinant printing, contributions to CSF-ICE
   Dipayan Datta          : RHF DLPNO-CCSD density
   Achintya Kumar Dutta   : EOM-CC, STEOM-CC
   Dmitry Ganyushin       : Spin-Orbit,Spin-Spin,Magnetic field MRCI
   Miquel Garcia          : C-PCM and meta-GGA Hessian, CC/C-PCM, Gaussian charge scheme
   Yang Guo               : DLPNO-NEVPT2, F12-NEVPT2, CIM, IAO-localization
   Andreas Hansen         : Spin unrestricted coupled pair/coupled cluster methods
   Benjamin Helmich-Paris : MC-RPA, TRAH-SCF, COSX integrals
   Lee Huntington         : MR-EOM, pCC
   Robert Izsak           : Overlap fitted RIJCOSX, COSX-SCS-MP3, EOM
   Marcus Kettner         : VPT2
   Christian Kollmar      : KDIIS, OOCD, Brueckner-CCSD(T), CCSD density, CASPT2, CASPT2-K
   Simone Kossmann        : Meta GGA functionals, TD-DFT gradient, OOMP2, MP2 Hessian
   Martin Krupicka        : Initial AUTO-CI
   Lucas Lang             : DCDCAS
   Marvin Lechner         : AUTO-CI (C++ implementation), FIC-MRCC
   Dagmar Lenk            : GEPOL surface, SMD
   Dimitrios Liakos       : Extrapolation schemes; Compound Job, initial MDCI parallelization
   Dimitrios Manganas     : Further ROCIS development; embedding schemes
   Dimitrios Pantazis     : SARC Basis sets
   Anastasios Papadopoulos: AUTO-CI, single reference methods and gradients
   Taras Petrenko         : DFT Hessian,TD-DFT gradient, ASA, ECA, R-Raman, ABS, FL, XAS/XES, NRVS
   Peter Pinski           : DLPNO-MP2, DLPNO-MP2 Gradient
   Christoph Reimann      : Effective Core Potentials
   Marius Retegan         : Local ZFS, SOC
   Christoph Riplinger    : Optimizer, TS searches, QM/MM, DLPNO-CCSD(T), (RO)-DLPNO pert. Triples
   Tobias Risthaus        : Range-separated hybrids, TD-DFT gradient, RPA, STAB
   Michael Roemelt        : Original ROCIS implementation
   Masaaki Saitow         : Open-shell DLPNO-CCSD energy and density
   Barbara Sandhoefer     : DKH picture change effects
   Avijit Sen             : IP-ROCIS
   Kantharuban Sivalingam : CASSCF convergence, NEVPT2, FIC-MRCI
   Bernardo de Souza      : ESD, SOC TD-DFT
   Georgi Stoychev        : AutoAux, RI-MP2 NMR, DLPNO-MP2 response
   Willem Van den Heuvel  : Paramagnetic NMR
   Boris Wezisla          : Elementary symmetry handling
   Frank Wennmohs         : Technical directorship


 We gratefully acknowledge several colleagues who have allowed us to
 interface, adapt or use parts of their codes:
   Stefan Grimme, W. Hujo, H. Kruse, P. Pracht,  : VdW corrections, initial TS optimization,
                  C. Bannwarth, S. Ehlert          DFT functionals, gCP, sTDA/sTD-DF
   Ed Valeev, F. Pavosevic, A. Kumar             : LibInt (2-el integral package), F12 methods
   Garnet Chan, S. Sharma, J. Yang, R. Olivares  : DMRG
   Ulf Ekstrom                                   : XCFun DFT Library
   Mihaly Kallay                                 : mrcc  (arbitrary order and MRCC methods)
   Jiri Pittner, Ondrej Demel                    : Mk-CCSD
   Frank Weinhold                                : gennbo (NPA and NBO analysis)
   Christopher J. Cramer and Donald G. Truhlar   : smd solvation model
   Lars Goerigk                                  : TD-DFT with DH, B97 family of functionals
   V. Asgeirsson, H. Jonsson                     : NEB implementation
   FAccTs GmbH                                   : IRC, NEB, NEB-TS, DLPNO-Multilevel, CI-OPT
                                                   MM, QMMM, 2- and 3-layer-ONIOM, Crystal-QMMM,
                                                   LR-CPCM, SF, NACMEs, symmetry and pop. for TD-DFT,
                                                   nearIR, NL-DFT gradient (VV10), updates on ESD,
                                                   ML-optimized integration grids
   S Lehtola, MJT Oliveira, MAL Marques          : LibXC Library
   Liviu Ungur et al                             : ANISO software


 Your calculation uses the libint2 library for the computation of 2-el integrals
 For citations please refer to: http://libint.valeyev.net

 Your ORCA version has been built with support for libXC version: 5.1.0
 For citations please refer to: https://tddft.org/programs/libxc/

 This ORCA versions uses:
   CBLAS   interface :  Fast vector & matrix operations
   LAPACKE interface :  Fast linear algebra routines
   SCALAPACK package :  Parallel linear algebra routines
   Shared memory     :  Shared parallel matrices
   BLAS/LAPACK       :  OpenBLAS 0.3.15  USE64BITINT DYNAMIC_ARCH NO_AFFINITY SkylakeX SINGLE_THREADED
        Core in use  :  SkylakeX
   Copyright (c) 2011-2014, The OpenBLAS Project


Your calculation utilizes the atom-pairwise dispersion correction
with the Becke-Johnson damping scheme (D3BJ)
Cite in your paper:
S.Grimme, S.Ehrlich, L.Goerigk, J Comput Chem, (2011), 32, 1456–1465 
S.Grimme, J.Antony, S.Ehrlich and H.Krieg, J.Chem.Phys., 132, (2010), 154104 
   

================================================================================

----- Orbital basis set information -----
Your calculation utilizes the basis: def2-TZVP
   F. Weigend and R. Ahlrichs, Phys. Chem. Chem. Phys. 7, 3297 (2005).

----- AuxJ basis set information -----
Your calculation utilizes the auxiliary basis: def2/J
   F. Weigend, Phys. Chem. Chem. Phys. 8, 1057 (2006).

================================================================================
                                        WARNINGS
                       Please study these warnings very carefully!
================================================================================

INFO   : Checking CIS options ...

WARNING: CIS/ROCIS methods need fully converged wavefunctions
  ===> : Setting SCFConvForced true
         You can overwrite this default with %scf ConvForced false 


INFO   : the flag for use of the SHARK integral package has been found!

================================================================================
                                       INPUT FILE
================================================================================
NAME = ox_es1_A_orca0037.inp
|  1> ! engrad PBE0 D3BJ def2-TZVP  
|  2> %pal nprocs 8 end
|  3> %maxcore 3000
|  4> 
|  5> %tddft
|  6>   nroots 1
|  7>   tda true
|  8>   Iroot 1
|  9>   end 
| 10> *xyz 0 1 
| 11> O   -0.012375881777575239 0.7632026385449977 0.0310337148775339
| 12> C   -0.7200045399533372 -0.5137877079355051 0.01900989255029816
| 13> C   0.7594188272641911 -0.419030967603448 0.054039036277731094
| 14> H   -1.2221268222725548 -0.6453118060385782 0.9164679344270676
| 15> H   -1.3468708166757994 -0.6467899990433708 -0.9095918356418444
| 16> H   1.2774017618597686 -0.7321082887910155 -0.9740290470204132
| 17> H   1.3164805126666452 -0.6702485676928327 0.9540512048686312
| 18> *
| 19> 
| 20>                          ****END OF INPUT****
================================================================================

                     *******************************
                     * Energy+Gradient Calculation *
                     *******************************

---------------------------------
CARTESIAN COORDINATES (ANGSTROEM)
---------------------------------
  O     -0.012376    0.763203    0.031034
  C     -0.720005   -0.513788    0.019010
  C      0.759419   -0.419031    0.054039
  H     -1.222127   -0.645312    0.916468
  H     -1.346871   -0.646790   -0.909592
  H      1.277402   -0.732108   -0.974029
  H      1.316481   -0.670249    0.954051

----------------------------
CARTESIAN COORDINATES (A.U.)
----------------------------
  NO LB      ZA    FRAG     MASS         X           Y           Z
   0 O     8.0000    0    15.999   -0.023387    1.442244    0.058645
   1 C     6.0000    0    12.011   -1.360611   -0.970918    0.035923
   2 C     6.0000    0    12.011    1.435094   -0.791854    0.102119
   3 H     1.0000    0     1.008   -2.309485   -1.219463    1.731873
   4 H     1.0000    0     1.008   -2.545217   -1.222256   -1.718879
   5 H     1.0000    0     1.008    2.413939   -1.383484   -1.840648
   6 H     1.0000    0     1.008    2.487788   -1.266586    1.802895

--------------------------------
INTERNAL COORDINATES (ANGSTROEM)
--------------------------------
 O      0   0   0     0.000000000000     0.00000000     0.00000000
 C      1   0   0     1.459995628480     0.00000000     0.00000000
 C      1   2   0     1.412045543608    62.14384962     0.00000000
 H      2   1   3     1.036752772706   109.78986458   111.33027872
 H      2   1   3     1.128251792790   112.28271296   241.08452852
 H      3   1   2     1.192999460801   116.29513384   103.18519068
 H      3   1   2     1.087864838824   119.12447540   248.70922817

---------------------------
INTERNAL COORDINATES (A.U.)
---------------------------
 O      0   0   0     0.000000000000     0.00000000     0.00000000
 C      1   0   0     2.758991894549     0.00000000     0.00000000
 C      1   2   0     2.668379366044    62.14384962     0.00000000
 H      2   1   3     1.959178808997   109.78986458   111.33027872
 H      2   1   3     2.132086898478   112.28271296   241.08452852
 H      3   1   2     2.254442258829   116.29513384   103.18519068
 H      3   1   2     2.055766616100   119.12447540   248.70922817

---------------------
BASIS SET INFORMATION
---------------------
There are 3 groups of distinct atoms

 Group   1 Type O   : 11s6p2d1f contracted to 5s3p2d1f pattern {62111/411/11/1}
 Group   2 Type C   : 11s6p2d1f contracted to 5s3p2d1f pattern {62111/411/11/1}
 Group   3 Type H   : 5s1p contracted to 3s1p pattern {311/1}

Atom   0O    basis set group =>   1
Atom   1C    basis set group =>   2
Atom   2C    basis set group =>   2
Atom   3H    basis set group =>   3
Atom   4H    basis set group =>   3
Atom   5H    basis set group =>   3
Atom   6H    basis set group =>   3
---------------------------------
AUXILIARY/J BASIS SET INFORMATION
---------------------------------
There are 3 groups of distinct atoms

 Group   1 Type O   : 12s5p4d2f1g contracted to 6s4p3d1f1g pattern {711111/2111/211/2/1}
 Group   2 Type C   : 12s5p4d2f1g contracted to 6s4p3d1f1g pattern {711111/2111/211/2/1}
 Group   3 Type H   : 5s2p1d contracted to 3s1p1d pattern {311/2/1}

Atom   0O    basis set group =>   1
Atom   1C    basis set group =>   2
Atom   2C    basis set group =>   2
Atom   3H    basis set group =>   3
Atom   4H    basis set group =>   3
Atom   5H    basis set group =>   3
Atom   6H    basis set group =>   3

Checking for AutoStart:
The File: ox_es1_A_orca0037.gbw exists
Trying to determine its content:
     ... Fine, the file contains calculation information
     ... Fine, the calculation information was read
     ... Fine, the file contains a basis set
     ... Fine, the basis set was read
     ... Fine, the file contains a geometry
     ... Fine, the geometry was read
     ... Fine, the file contains a set of orbitals
     ... Fine, the orbitals can be read
     => possible old guess file was deleted
     => GBW file was renamed to GES file
     => GES file is set as startup file
     => Guess is set to MORead
     ... now leaving AutoStart



           ************************************************************
           *        Program running with 8 parallel MPI-processes     *
           *              working on a common directory               *
           ************************************************************
------------------------------------------------------------------------------
                           ORCA GTO INTEGRAL CALCULATION
                           -- RI-GTO INTEGRALS CHOSEN --
------------------------------------------------------------------------------
------------------------------------------------------------------------------
                   ___                                                        
                  /   \      - P O W E R E D   B Y -                         
                 /     \                                                     
                 |  |  |   _    _      __       _____    __    __             
                 |  |  |  | |  | |    /  \     |  _  \  |  |  /  |          
                  \  \/   | |  | |   /    \    | | | |  |  | /  /          
                 / \  \   | |__| |  /  /\  \   | |_| |  |  |/  /          
                |  |  |   |  __  | /  /__\  \  |    /   |      \           
                |  |  |   | |  | | |   __   |  |    \   |  |\   \          
                \     /   | |  | | |  |  |  |  | |\  \  |  | \   \       
                 \___/    |_|  |_| |__|  |__|  |_| \__\ |__|  \__/        
                                                                              
                      - O R C A' S   B I G   F R I E N D -                    
                                      &                                       
                       - I N T E G R A L  F E E D E R -                       
                                                                              
 v1 FN, 2020, v2 2021                                                         
------------------------------------------------------------------------------


Reading SHARK input file ox_es1_A_orca0037.SHARKINP.tmp ... ok
----------------------
SHARK INTEGRAL PACKAGE
----------------------

Number of atoms                             ...      7
Number of basis functions                   ...    117
Number of shells                            ...     49
Maximum angular momentum                    ...      3
Integral batch strategy                     ... SHARK/LIBINT Hybrid
RI-J (if used) integral strategy            ... SPLIT-RIJ (Revised 2003 algorithm where possible)
Printlevel                                  ...      1
Contraction scheme used                     ... SEGMENTED contraction
Coulomb Range Separation                    ... NOT USED
Exchange Range Separation                   ... NOT USED
Finite Nucleus Model                        ... NOT USED
Auxiliary Coulomb fitting basis             ... AVAILABLE
   # of basis functions in Aux-J            ...    191
   # of shells in Aux-J                     ...     65
   Maximum angular momentum in Aux-J        ...      4
Auxiliary J/K fitting basis                 ... NOT available
Auxiliary Correlation fitting basis         ... NOT available
Auxiliary 'external' fitting basis          ... NOT available
Integral threshold                          ...     2.500000e-11
Primitive cut-off                           ...     2.500000e-12
Primitive pair pre-selection threshold      ...     2.500000e-12

Calculating pre-screening integrals         ... done (  0.0 sec) Dimension = 49
Organizing shell pair data                  ... done (  0.0 sec)
Shell pair information
Total number of shell pairs                 ...      1225
Shell pairs after pre-screening             ...      1220
Total number of primitive shell pairs       ...      3648
Primitive shell pairs kept                  ...      3143
          la=0 lb=0:    373 shell pairs
          la=1 lb=0:    351 shell pairs
          la=1 lb=1:     91 shell pairs
          la=2 lb=0:    162 shell pairs
          la=2 lb=1:     78 shell pairs
          la=2 lb=2:     21 shell pairs
          la=3 lb=0:     81 shell pairs
          la=3 lb=1:     39 shell pairs
          la=3 lb=2:     18 shell pairs
          la=3 lb=3:      6 shell pairs

Calculating one electron integrals          ... done (  0.0 sec)
Calculating RI/J V-Matrix + Cholesky decomp.... done (  0.0 sec)
Calculating Nuclear repulsion               ... done (  0.0 sec) ENN=     74.539538820806 Eh

SHARK setup successfully completed in   0.1 seconds

Maximum memory used throughout the entire GTOINT-calculation: 14.9 MB


           ************************************************************
           *        Program running with 8 parallel MPI-processes     *
           *              working on a common directory               *
           ************************************************************
-------------------------------------------------------------------------------
                                 ORCA SCF
-------------------------------------------------------------------------------

------------
SCF SETTINGS
------------
Hamiltonian:
 Density Functional     Method          .... DFT(GTOs)
 Exchange Functional    Exchange        .... PBE
   PBE kappa parameter   XKappa         ....  0.804000
   PBE mue parameter    XMuePBE         ....  0.219520
 Correlation Functional Correlation     .... PBE
   PBE beta parameter  CBetaPBE         ....  0.066725
 LDA part of GGA corr.  LDAOpt          .... PW91-LDA
 Gradients option       PostSCFGGA      .... off
 Hybrid DFT is turned on
   Fraction HF Exchange ScalHFX         ....  0.250000
   Scaling of DF-GGA-X  ScalDFX         ....  0.750000
   Scaling of DF-GGA-C  ScalDFC         ....  1.000000
   Scaling of DF-LDA-C  ScalLDAC        ....  1.000000
   Perturbative correction              ....  0.000000
   Density functional embedding theory  .... OFF
   NL short-range parameter             ....  6.900000
 RI-approximation to the Coulomb term is turned on
   Number of AuxJ basis functions       .... 191
   RIJ-COSX (HFX calculated with COS-X)).... on


General Settings:
 Integral files         IntName         .... ox_es1_A_orca0037
 Hartree-Fock type      HFTyp           .... RHF
 Total Charge           Charge          ....    0
 Multiplicity           Mult            ....    1
 Number of Electrons    NEL             ....   24
 Basis Dimension        Dim             ....  117
 Nuclear Repulsion      ENuc            ....     74.5395388208 Eh

Convergence Acceleration:
 DIIS                   CNVDIIS         .... on
   Start iteration      DIISMaxIt       ....    12
   Startup error        DIISStart       ....  0.200000
   # of expansion vecs  DIISMaxEq       ....     5
   Bias factor          DIISBfac        ....   1.050
   Max. coefficient     DIISMaxC        ....  10.000
 Trust-Rad. Augm. Hess. CNVTRAH         .... auto
   Auto Start mean grad. ratio tolernc. ....  1.125000
   Auto Start start iteration           ....     1
   Auto Start num. interpolation iter.  ....    10
   Max. Number of Micro iterations      ....    16
   Max. Number of Macro iterations      .... Maxiter - #DIIS iter
   Number of Davidson start vectors     ....     2
   Converg. threshold I  (grad. norm)   ....   1.000e-05
   Converg. threshold II (energy diff.) ....   1.000e-08
   Grad. Scal. Fac. for Micro threshold ....   0.100
   Minimum threshold for Micro iter.    ....   0.010
   NR start threshold (gradient norm)   ....   0.001
   Initial trust radius                 ....   0.400
   Minimum AH scaling param. (alpha)    ....   1.000
   Maximum AH scaling param. (alpha)    .... 1000.000
   Orbital update algorithm             .... Taylor
   White noise on init. David. guess    .... on
   Maximum white noise                  ....   0.010
   Quad. conv. algorithm                .... NR
 SOSCF                  CNVSOSCF        .... on
   Start iteration      SOSCFMaxIt      ....   150
   Startup grad/error   SOSCFStart      ....  0.003300
 Level Shifting         CNVShift        .... on
   Level shift para.    LevelShift      ....    0.2500
   Turn off err/grad.   ShiftErr        ....    0.0010
 Zerner damping         CNVZerner       .... off
 Static damping         CNVDamp         .... on
   Fraction old density DampFac         ....    0.7000
   Max. Damping (<1)    DampMax         ....    0.9800
   Min. Damping (>=0)   DampMin         ....    0.0000
   Turn off err/grad.   DampErr         ....    0.1000
 Fernandez-Rico         CNVRico         .... off

SCF Procedure:
 Maximum # iterations   MaxIter         ....   125
 SCF integral mode      SCFMode         .... Direct
   Integral package                     .... SHARK and LIBINT hybrid scheme
 Reset frequency        DirectResetFreq ....    20
 Integral Threshold     Thresh          ....  2.500e-11 Eh
 Primitive CutOff       TCut            ....  2.500e-12 Eh

Convergence Tolerance:
 Convergence Check Mode ConvCheckMode   .... Total+1el-Energy
 Convergence forced     ConvForced      .... 1
 Energy Change          TolE            ....  1.000e-08 Eh
 1-El. energy change                    ....  1.000e-05 Eh
 Orbital Gradient       TolG            ....  1.000e-05
 Orbital Rotation angle TolX            ....  1.000e-05
 DIIS Error             TolErr          ....  5.000e-07


Diagonalization of the overlap matrix:
Smallest eigenvalue                        ... 4.315e-04
Time for diagonalization                   ...    0.001 sec
Threshold for overlap eigenvalues          ... 1.000e-08
Number of eigenvalues below threshold      ... 0
Time for construction of square roots      ...    0.001 sec
Total time needed                          ...    0.003 sec

---------------------
INITIAL GUESS: MOREAD
---------------------
Guess MOs are being read from file: ox_es1_A_orca0037.ges
Input Geometry matches current geometry (good)
Input basis set matches current basis set (good)
MOs were renormalized
MOs were reorthogonalized (Cholesky)
                      ------------------
                      INITIAL GUESS DONE (   0.0 sec)
                      ------------------
-------------------
DFT GRID GENERATION
-------------------

General Integration Accuracy     IntAcc      ... 4.388
Radial Grid Type                 RadialGrid  ... OptM3 with GC (2021)
Angular Grid (max. ang.)         AngularGrid ... 4 (Lebedev-302)
Angular grid pruning method      GridPruning ... 4 (adaptive)
Weight generation scheme         WeightScheme... Becke
Basis function cutoff            BFCut       ... 1.0000e-11
Integration weight cutoff        WCut        ... 1.0000e-14
Angular grids for H and He will be reduced by one unit
Partially contracted basis set               ... off
Rotationally invariant grid construction     ... off

Total number of grid points                  ...    31330
Total number of batches                      ...      492
Average number of points per batch           ...       63
Average number of grid points per atom       ...     4476
Time for grid setup =    0.122 sec

--------------------
COSX GRID GENERATION
--------------------

GRIDX 1
-------
General Integration Accuracy     IntAcc      ... 3.816
Radial Grid Type                 RadialGrid  ... OptM3 with GC (2021)
Angular Grid (max. ang.)         AngularGrid ... 1 (Lebedev-50)
Angular grid pruning method      GridPruning ... 4 (adaptive)
Weight generation scheme         WeightScheme... Becke
Basis function cutoff            BFCut       ... 1.0000e-11
Integration weight cutoff        WCut        ... 1.0000e-14
Angular grids for H and He will be reduced by one unit
Partially contracted basis set               ... on
Rotationally invariant grid construction     ... off

Total number of grid points                  ...     4036
Total number of batches                      ...       68
Average number of points per batch           ...       59
Average number of grid points per atom       ...      577
UseSFitting                                  ... on

GRIDX 2
-------
General Integration Accuracy     IntAcc      ... 4.020
Radial Grid Type                 RadialGrid  ... OptM3 with GC (2021)
Angular Grid (max. ang.)         AngularGrid ... 2 (Lebedev-110)
Angular grid pruning method      GridPruning ... 4 (adaptive)
Weight generation scheme         WeightScheme... Becke
Basis function cutoff            BFCut       ... 1.0000e-11
Integration weight cutoff        WCut        ... 1.0000e-14
Angular grids for H and He will be reduced by one unit
Partially contracted basis set               ... on
Rotationally invariant grid construction     ... off

Total number of grid points                  ...     8713
Total number of batches                      ...      140
Average number of points per batch           ...       62
Average number of grid points per atom       ...     1245
UseSFitting                                  ... on

GRIDX 3
-------
General Integration Accuracy     IntAcc      ... 4.338
Radial Grid Type                 RadialGrid  ... OptM3 with GC (2021)
Angular Grid (max. ang.)         AngularGrid ... 3 (Lebedev-194)
Angular grid pruning method      GridPruning ... 4 (adaptive)
Weight generation scheme         WeightScheme... Becke
Basis function cutoff            BFCut       ... 1.0000e-11
Integration weight cutoff        WCut        ... 1.0000e-14
Angular grids for H and He will be reduced by one unit
Partially contracted basis set               ... on
Rotationally invariant grid construction     ... off

Total number of grid points                  ...    19258
Total number of batches                      ...      305
Average number of points per batch           ...       63
Average number of grid points per atom       ...     2751
UseSFitting                                  ... on

Time for X-Grid setup             =    0.075 sec

--------------
SCF ITERATIONS
--------------
ITER       Energy         Delta-E        Max-DP      RMS-DP      [F,P]     Damp
               ***  Starting incremental Fock matrix formation  ***
                      *** Initiating the SOSCF procedure ***
                      *** Re-Reading the Fockian *** 
                      *** Removing any level shift *** 
ITER      Energy       Delta-E        Grad      Rot      Max-DP    RMS-DP
  0   -153.66174863 -153.6617486268  0.000000  0.000000  0.000001  0.000000
               *** Restarting incremental Fock matrix formation ***
                 **** Energy Check signals convergence ****
              ***Rediagonalizing the Fockian in SOSCF/NRSCF***

               *****************************************************
               *                     SUCCESS                       *
               *           SCF CONVERGED AFTER   1 CYCLES          *
               *****************************************************

Old exchange energy                            =     -4.984534633 Eh
New exchange energy                            =     -4.984527824 Eh
Exchange energy change after final integration =      0.000006809 Eh
Total energy after final integration           =   -153.661741817 Eh
Final COS-X integration done in                =     0.313 sec

----------------
TOTAL SCF ENERGY
----------------

Total Energy       :         -153.66174182 Eh           -4181.34857 eV

Components:
Nuclear Repulsion  :           74.53953882 Eh            2028.32397 eV
Electronic Energy  :         -228.20128064 Eh           -6209.67254 eV
One Electron Energy:         -355.80301582 Eh           -9681.89228 eV
Two Electron Energy:          127.60173518 Eh            3472.21974 eV
Max COSX asymmetry :            0.00000358 Eh               0.00010 eV

Virial components:
Potential Energy   :         -306.46655638 Eh           -8339.37896 eV
Kinetic Energy     :          152.80481456 Eh            4158.03039 eV
Virial Ratio       :            2.00560799


DFT components:
N(Alpha)           :       12.000002311980 electrons
N(Beta)            :       12.000002311980 electrons
N(Total)           :       24.000004623961 electrons
E(X)               :      -14.928278002559 Eh       
E(C)               :       -0.788356238414 Eh       
E(XC)              :      -15.716634240973 Eh       
DFET-embed. en.    :        0.000000000000 Eh       

---------------
SCF CONVERGENCE
---------------

  Last Energy change         ...   -6.4801e-12  Tolerance :   1.0000e-08
  Last MAX-Density change    ...    4.4409e-16  Tolerance :   1.0000e-07
  Last RMS-Density change    ...    1.6811e-17  Tolerance :   5.0000e-09
  Last Orbital Gradient      ...    2.1979e-07  Tolerance :   1.0000e-05
  Last Orbital Rotation      ...    5.0882e-07  Tolerance :   1.0000e-05

             **** THE GBW FILE WAS UPDATED (ox_es1_A_orca0037.gbw) ****
             **** DENSITY ox_es1_A_orca0037.scfp WAS UPDATED ****
             **** ENERGY FILE WAS UPDATED (ox_es1_A_orca0037.en.tmp) ****
             **** THE GBW FILE WAS UPDATED (ox_es1_A_orca0037.gbw) ****
             **** DENSITY ox_es1_A_orca0037.scfp WAS UPDATED ****
----------------
ORBITAL ENERGIES
----------------

  NO   OCC          E(Eh)            E(eV) 
   0   2.0000     -19.224156      -523.1159 
   1   2.0000     -10.290172      -280.0098 
   2   2.0000     -10.275584      -279.6129 
   3   2.0000      -1.101282       -29.9674 
   4   2.0000      -0.697402       -18.9773 
   5   2.0000      -0.651949       -17.7404 
   6   2.0000      -0.526376       -14.3234 
   7   2.0000      -0.495696       -13.4886 
   8   2.0000      -0.413633       -11.2555 
   9   2.0000      -0.393359       -10.7038 
  10   2.0000      -0.329582        -8.9684 
  11   2.0000      -0.289983        -7.8908 
  12   0.0000       0.057486         1.5643 
  13   0.0000       0.068338         1.8596 
  14   0.0000       0.082163         2.2358 
  15   0.0000       0.097056         2.6410 
  16   0.0000       0.102379         2.7859 
  17   0.0000       0.148352         4.0369 
  18   0.0000       0.191970         5.2238 
  19   0.0000       0.209945         5.7129 
  20   0.0000       0.266425         7.2498 
  21   0.0000       0.274707         7.4752 
  22   0.0000       0.286798         7.8042 
  23   0.0000       0.327786         8.9195 
  24   0.0000       0.373838        10.1727 
  25   0.0000       0.392901        10.6914 
  26   0.0000       0.402193        10.9442 
  27   0.0000       0.425407        11.5759 
  28   0.0000       0.446057        12.1378 
  29   0.0000       0.460229        12.5235 
  30   0.0000       0.477419        12.9912 
  31   0.0000       0.522643        14.2218 
  32   0.0000       0.536446        14.5974 
  33   0.0000       0.704434        19.1686 
  34   0.0000       0.709084        19.2952 
  35   0.0000       0.718986        19.5646 
  36   0.0000       0.818550        22.2739 
  37   0.0000       0.841466        22.8974 
  38   0.0000       0.893145        24.3037 
  39   0.0000       0.948001        25.7964 
  40   0.0000       1.014407        27.6034 
  41   0.0000       1.030995        28.0548 
  42   0.0000       1.062775        28.9196 
  43   0.0000       1.080287        29.3961 
  44   0.0000       1.158333        31.5198 
  45   0.0000       1.360601        37.0238 
  46   0.0000       1.468168        39.9509 
  47   0.0000       1.496750        40.7286 
  48   0.0000       1.510002        41.0893 
  49   0.0000       1.522130        41.4193 
  50   0.0000       1.562543        42.5190 
  51   0.0000       1.630579        44.3703 
  52   0.0000       1.646322        44.7987 
  53   0.0000       1.686921        45.9035 
  54   0.0000       1.758370        47.8477 
  55   0.0000       1.813893        49.3585 
  56   0.0000       1.835852        49.9561 
  57   0.0000       1.902686        51.7747 
  58   0.0000       1.914796        52.1042 
  59   0.0000       1.978659        53.8420 
  60   0.0000       2.125437        57.8361 
  61   0.0000       2.143356        58.3237 
  62   0.0000       2.157611        58.7116 
  63   0.0000       2.232615        60.7525 
  64   0.0000       2.272653        61.8420 
  65   0.0000       2.397766        65.2465 
  66   0.0000       2.412259        65.6409 
  67   0.0000       2.442991        66.4772 
  68   0.0000       2.544345        69.2352 
  69   0.0000       2.568128        69.8823 
  70   0.0000       2.580339        70.2146 
  71   0.0000       2.671311        72.6901 
  72   0.0000       2.688538        73.1588 
  73   0.0000       2.719759        74.0084 
  74   0.0000       2.731671        74.3326 
  75   0.0000       2.787863        75.8616 
  76   0.0000       2.852820        77.6292 
  77   0.0000       2.949832        80.2690 
  78   0.0000       3.009122        81.8824 
  79   0.0000       3.024113        82.2903 
  80   0.0000       3.028202        82.4016 
  81   0.0000       3.082153        83.8696 
  82   0.0000       3.129522        85.1586 
  83   0.0000       3.229593        87.8817 
  84   0.0000       3.296843        89.7117 
  85   0.0000       3.317100        90.2629 
  86   0.0000       3.334627        90.7398 
  87   0.0000       3.397181        92.4420 
  88   0.0000       3.532667        96.1288 
  89   0.0000       3.576269        97.3152 
  90   0.0000       3.623081        98.5890 
  91   0.0000       3.696792       100.5948 
  92   0.0000       3.874419       105.4283 
  93   0.0000       3.963798       107.8604 
  94   0.0000       4.068442       110.7079 
  95   0.0000       4.153074       113.0109 
  96   0.0000       4.208783       114.5268 
  97   0.0000       4.251801       115.6974 
  98   0.0000       4.344186       118.2113 
  99   0.0000       4.598235       125.1243 
 100   0.0000       4.666021       126.9689 
 101   0.0000       4.828705       131.3957 
 102   0.0000       5.295611       144.1009 
 103   0.0000       5.442352       148.0939 
 104   0.0000       5.679763       154.5542 
 105   0.0000       5.746110       156.3596 
 106   0.0000       5.772511       157.0780 
 107   0.0000       5.881777       160.0513 
 108   0.0000       6.040536       164.3713 
 109   0.0000       6.601406       179.6334 
 110   0.0000       6.627508       180.3437 
 111   0.0000       6.787430       184.6953 
 112   0.0000       6.963903       189.4974 
 113   0.0000       7.176678       195.2873 
 114   0.0000      22.225362       604.7828 
 115   0.0000      22.335514       607.7802 
 116   0.0000      43.861376      1193.5287 

                    ********************************
                    * MULLIKEN POPULATION ANALYSIS *
                    ********************************

-----------------------
MULLIKEN ATOMIC CHARGES
-----------------------
   0 O :   -0.311546
   1 C :   -0.103263
   2 C :   -0.057230
   3 H :    0.121632
   4 H :    0.131433
   5 H :    0.101080
   6 H :    0.117895
Sum of atomic charges:    0.0000000

--------------------------------
MULLIKEN REDUCED ORBITAL CHARGES
--------------------------------
  0 O s       :     3.857475  s :     3.857475
      pz      :     1.838282  p :     4.409419
      px      :     1.313217
      py      :     1.257920
      dz2     :     0.005768  d :     0.042503
      dxz     :     0.002645
      dyz     :     0.006533
      dx2y2   :     0.012208
      dxy     :     0.015349
      f0      :     0.000251  f :     0.002150
      f+1     :     0.000200
      f-1     :     0.000465
      f+2     :     0.000079
      f-2     :     0.000200
      f+3     :     0.000370
      f-3     :     0.000586
  1 C s       :     3.240264  s :     3.240264
      pz      :     1.060693  p :     2.745363
      px      :     0.907995
      py      :     0.776674
      dz2     :     0.006756  d :     0.106633
      dxz     :     0.025191
      dyz     :     0.027748
      dx2y2   :     0.028565
      dxy     :     0.018373
      f0      :     0.001450  f :     0.011003
      f+1     :     0.001404
      f-1     :     0.000511
      f+2     :     0.001381
      f-2     :     0.001406
      f+3     :     0.002109
      f-3     :     0.002743
  2 C s       :     3.234699  s :     3.234699
      pz      :     1.018862  p :     2.695258
      px      :     0.897375
      py      :     0.779022
      dz2     :     0.006252  d :     0.115479
      dxz     :     0.027038
      dyz     :     0.030925
      dx2y2   :     0.029125
      dxy     :     0.022139
      f0      :     0.001551  f :     0.011793
      f+1     :     0.001398
      f-1     :     0.000693
      f+2     :     0.001096
      f-2     :     0.001852
      f+3     :     0.002171
      f-3     :     0.003032
  3 H s       :     0.855330  s :     0.855330
      pz      :     0.011507  p :     0.023038
      px      :     0.006810
      py      :     0.004720
  4 H s       :     0.848769  s :     0.848769
      pz      :     0.009966  p :     0.019798
      px      :     0.006537
      py      :     0.003295
  5 H s       :     0.881205  s :     0.881205
      pz      :     0.009807  p :     0.017715
      px      :     0.004754
      py      :     0.003154
  6 H s       :     0.860698  s :     0.860698
      pz      :     0.010630  p :     0.021407
      px      :     0.006848
      py      :     0.003929


                     *******************************
                     * LOEWDIN POPULATION ANALYSIS *
                     *******************************

----------------------
LOEWDIN ATOMIC CHARGES
----------------------
   0 O :    0.113432
   1 C :   -0.271359
   2 C :   -0.321496
   3 H :    0.103316
   4 H :    0.127231
   5 H :    0.133943
   6 H :    0.114934

-------------------------------
LOEWDIN REDUCED ORBITAL CHARGES
-------------------------------
  0 O s       :     3.392995  s :     3.392995
      pz      :     1.725107  p :     4.395055
      px      :     1.303107
      py      :     1.366841
      dz2     :     0.011643  d :     0.092023
      dxz     :     0.007903
      dyz     :     0.014433
      dx2y2   :     0.032205
      dxy     :     0.025840
      f0      :     0.000611  f :     0.006496
      f+1     :     0.000262
      f-1     :     0.000890
      f+2     :     0.000156
      f-2     :     0.000923
      f+3     :     0.001197
      f-3     :     0.002457
  1 C s       :     2.839656  s :     2.839656
      pz      :     1.062331  p :     2.920216
      px      :     1.030037
      py      :     0.827847
      dz2     :     0.052338  d :     0.444516
      dxz     :     0.130002
      dyz     :     0.071492
      dx2y2   :     0.103106
      dxy     :     0.087577
      f0      :     0.008940  f :     0.066972
      f+1     :     0.005630
      f-1     :     0.005460
      f+2     :     0.008654
      f-2     :     0.005448
      f+3     :     0.014124
      f-3     :     0.018715
  2 C s       :     2.843210  s :     2.843210
      pz      :     1.041644  p :     2.914086
      px      :     1.027346
      py      :     0.845096
      dz2     :     0.053726  d :     0.490326
      dxz     :     0.128845
      dyz     :     0.093385
      dx2y2   :     0.108185
      dxy     :     0.106185
      f0      :     0.010162  f :     0.073873
      f+1     :     0.005619
      f-1     :     0.005640
      f+2     :     0.006890
      f-2     :     0.008370
      f+3     :     0.016307
      f-3     :     0.020885
  3 H s       :     0.825786  s :     0.825786
      pz      :     0.036518  p :     0.070898
      px      :     0.019770
      py      :     0.014611
  4 H s       :     0.816599  s :     0.816599
      pz      :     0.029331  p :     0.056170
      px      :     0.017244
      py      :     0.009595
  5 H s       :     0.819206  s :     0.819206
      pz      :     0.027058  p :     0.046851
      px      :     0.011343
      py      :     0.008449
  6 H s       :     0.822622  s :     0.822622
      pz      :     0.032410  p :     0.062444
      px      :     0.018148
      py      :     0.011886


                      *****************************
                      * MAYER POPULATION ANALYSIS *
                      *****************************

  NA   - Mulliken gross atomic population
  ZA   - Total nuclear charge
  QA   - Mulliken gross atomic charge
  VA   - Mayer's total valence
  BVA  - Mayer's bonded valence
  FA   - Mayer's free valence

  ATOM       NA         ZA         QA         VA         BVA        FA
  0 O      8.3115     8.0000    -0.3115     2.0003     2.0003     0.0000
  1 C      6.1033     6.0000    -0.1033     3.9588     3.9588    -0.0000
  2 C      6.0572     6.0000    -0.0572     3.9812     3.9812    -0.0000
  3 H      0.8784     1.0000     0.1216     0.9651     0.9651     0.0000
  4 H      0.8686     1.0000     0.1314     0.9636     0.9636     0.0000
  5 H      0.8989     1.0000     0.1011     0.9603     0.9603    -0.0000
  6 H      0.8821     1.0000     0.1179     0.9544     0.9544    -0.0000

  Mayer bond orders larger than 0.100000
B(  0-O ,  1-C ) :   0.9524 B(  0-O ,  2-C ) :   1.0214 B(  1-C ,  2-C ) :   1.0700 
B(  1-C ,  3-H ) :   0.9649 B(  1-C ,  4-H ) :   0.9503 B(  2-C ,  5-H ) :   0.9365 
B(  2-C ,  6-H ) :   0.9409 

-------
TIMINGS
-------

Total SCF time: 0 days 0 hours 0 min 1 sec 

Total time                  ....       1.102 sec
Sum of individual times     ....       1.009 sec  ( 91.6%)

Fock matrix formation       ....       0.781 sec  ( 70.9%)
  Split-RI-J                ....       0.130 sec  ( 16.6% of F)
  Chain of spheres X        ....       0.582 sec  ( 74.5% of F)
  XC integration            ....       0.067 sec  (  8.6% of F)
    Basis function eval.    ....       0.019 sec  ( 28.3% of XC)
    Density eval.           ....       0.014 sec  ( 21.3% of XC)
    XC-Functional eval.     ....       0.004 sec  (  5.9% of XC)
    XC-Potential eval.      ....       0.020 sec  ( 30.3% of XC)
Diagonalization             ....       0.002 sec  (  0.2%)
Density matrix formation    ....       0.001 sec  (  0.0%)
Population analysis         ....       0.003 sec  (  0.3%)
Initial guess               ....       0.021 sec  (  1.9%)
Orbital Transformation      ....       0.000 sec  (  0.0%)
Orbital Orthonormalization  ....       0.001 sec  (  0.1%)
DIIS solution               ....       0.001 sec  (  0.1%)
SOSCF solution              ....       0.002 sec  (  0.2%)
Grid generation             ....       0.197 sec  ( 17.9%)

Maximum memory used throughout the entire SCF-calculation: 61.1 MB


           ************************************************************
           *        Program running with 8 parallel MPI-processes     *
           *              working on a common directory               *
           ************************************************************
------------------------------------------------------------------------------
                        ORCA TD-DFT/TDA CALCULATION
------------------------------------------------------------------------------

Input orbitals are from        ... ox_es1_A_orca0037.gbw
CI-vector output               ... ox_es1_A_orca0037.cis
Tamm-Dancoff approximation     ... operative
CIS-Integral strategy          ... AO-integrals
Integral handling              ... AO integral Direct
Max. core memory used          ... 3000 MB
Reference state                ... RHF
Generation of triplets         ... off
Follow IRoot                   ... off
Number of operators            ... 1
Orbital ranges used for CIS calculation:
 Operator 0:  Orbitals   3... 11  to  12...116
XAS localization array:
 Operator 0:  Orbitals  -1... -1

-------------------
XC-INTEGRATION GRID
-------------------

General Integration Accuracy     IntAcc      ... 3.467
Radial Grid Type                 RadialGrid  ... OptM3 with GC (2021)
Angular Grid (max. ang.)         AngularGrid ... 1 (Lebedev-50)
Angular grid pruning method      GridPruning ... 4 (adaptive)
Weight generation scheme         WeightScheme... Becke
Basis function cutoff            BFCut       ... 1.0000e-11
Integration weight cutoff        WCut        ... 1.0000e-14
Angular grids for H and He will be reduced by one unit
Partially contracted basis set               ... off
Rotationally invariant grid construction     ... off

Total number of grid points                  ...     4540
Total number of batches                      ...       75
Average number of points per batch           ...       60
Average number of grid points per atom       ...      649

---------------------
COSX-INTEGRATION GRID
---------------------

General Integration Accuracy     IntAcc      ... 3.067
Radial Grid Type                 RadialGrid  ... OptM3 with GC (2021)
Angular Grid (max. ang.)         AngularGrid ... 1 (Lebedev-50)
Angular grid pruning method      GridPruning ... 4 (adaptive)
Weight generation scheme         WeightScheme... Becke
Basis function cutoff            BFCut       ... 1.0000e-11
Integration weight cutoff        WCut        ... 1.0000e-14
Angular grids for H and He will be reduced by one unit
Partially contracted basis set               ... on
Rotationally invariant grid construction     ... off

Total number of grid points                  ...     2088
Total number of batches                      ...       38
Average number of points per batch           ...       54
Average number of grid points per atom       ...      298

---------------
TD-DFT XC SETUP
---------------

DFT calculation                         ... on
Name of the grid file                   ... ox_es1_A_orca0037.grid_cis.tmp
Exchange functional (TD-DFT)            ... PBE
   PBE kappa parameter  XKappa (TD-DFT) ...  0.804000
   PBE mue parameter   XMuePBE (TD-DFT) ...  0.219520
Correlation functional (TD-DFT)         ... PBE
   PBE beta parameter CBetaPBE (TD-DFT) ...  0.066725
 LDA part of GGA corr.  LDAOpt (TD-DFT) ... PW91-LDA
Hybrid DFT                              ... on
   Exchange mixing (TD-DFT)             ...  0.250
   GGA exch. scaling (TD-DFT)           ...  0.750
   GGA corr. scaling (TD-DFT)           ...  1.000

Building densities             ... done
Calculating rho(r) on the grid ... done
Building xc-kernel on the grid ... done
                    *** TD-DFT CALCULATION INITIALIZED ***

------------------------
DAVIDSON-DIAGONALIZATION
------------------------

Dimension of the eigenvalue problem            ...    945
Number of roots to be determined               ...      1
Maximum size of the expansion space            ...     10
Maximum number of iterations                   ...    100
Convergence tolerance for the residual         ...    2.500e-07
Convergence tolerance for the energies         ...    2.500e-07
Orthogonality tolerance                        ...    1.000e-14
Level Shift                                    ...    0.000e+00
Constructing the preconditioner                ... o.k.
Building the initial guess                     ... o.k.
Number of trial vectors determined             ...     10


                       ****Iteration    0****

   Memory handling for direct AO based CIS:
   Memory per vector needed      ...     1 MB
   Memory needed                 ...     1 MB
   Memory available              ...  3000 MB
   Number of vectors per batch   ...  3000
   Number of batches             ...     1
   Time for densities:            0.000
   Time for RI-J (Direct):        0.018
   Time for K (COSX):             0.064
   Time for XC-Integration:       0.019
   Time for Sigma-Completion:     0.000
   Size of expansion space: 3
   Lowest Energy          :     0.294741102394
   Maximum Energy change  :     0.294741102394 (vector 0)
   Maximum residual norm  :     0.003444547340

                       ****Iteration    1****
   Time for densities:            0.000
   Time for RI-J (Direct):        0.014
   Time for K (COSX):             0.059
   Time for XC-Integration:       0.008
   Time for Sigma-Completion:     0.000
   Size of expansion space: 4
   Lowest Energy          :     0.291270452564
   Maximum Energy change  :     0.003470649830 (vector 0)
   Maximum residual norm  :     0.000685638700

                       ****Iteration    2****
   Time for densities:            0.000
   Time for RI-J (Direct):        0.014
   Time for K (COSX):             0.059
   Time for XC-Integration:       0.008
   Time for Sigma-Completion:     0.000
   Size of expansion space: 5
   Lowest Energy          :     0.289986639079
   Maximum Energy change  :     0.001283813486 (vector 0)
   Maximum residual norm  :     0.000354193045

                       ****Iteration    3****
   Time for densities:            0.000
   Time for RI-J (Direct):        0.014
   Time for K (COSX):             0.059
   Time for XC-Integration:       0.008
   Time for Sigma-Completion:     0.000
   Size of expansion space: 6
   Lowest Energy          :     0.289457260027
   Maximum Energy change  :     0.000529379052 (vector 0)
   Maximum residual norm  :     0.000082317322

                       ****Iteration    4****
   Time for densities:            0.000
   Time for RI-J (Direct):        0.014
   Time for K (COSX):             0.059
   Time for XC-Integration:       0.008
   Time for Sigma-Completion:     0.000
   Size of expansion space: 7
   Lowest Energy          :     0.289280576381
   Maximum Energy change  :     0.000176683646 (vector 0)
   Maximum residual norm  :     0.000019862339

                       ****Iteration    5****
   Time for densities:            0.000
   Time for RI-J (Direct):        0.014
   Time for K (COSX):             0.060
   Time for XC-Integration:       0.008
   Time for Sigma-Completion:     0.000
   Size of expansion space: 8
   Lowest Energy          :     0.289257930948
   Maximum Energy change  :     0.000022645433 (vector 0)
   Maximum residual norm  :     0.000001604698

                       ****Iteration    6****
   Time for densities:            0.000
   Time for RI-J (Direct):        0.014
   Time for K (COSX):             0.060
   Time for XC-Integration:       0.008
   Time for Sigma-Completion:     0.000
   Size of expansion space: 9
   Lowest Energy          :     0.289255704704
   Maximum Energy change  :     0.000002226244 (vector 0)
   Maximum residual norm  :     0.000000269847

                       ****Iteration    7****
   Time for densities:            0.000
   Time for RI-J (Direct):        0.015
   Time for K (COSX):             0.059
   Time for XC-Integration:       0.008
   Time for Sigma-Completion:     0.000
   Size of expansion space: 10
   Lowest Energy          :     0.289255408824
   Maximum Energy change  :     0.000000295880 (vector 0)
   Maximum residual norm  :     0.000000030759

      *** CONVERGENCE OF RESIDUAL NORM REACHED ***

Storing the converged CI vectors               ... ox_es1_A_orca0037.cis1

                 *** DAVIDSON DONE ***

Total time for solving the CIS problem:     0.683sec

------------------------------------
TD-DFT/TDA EXCITED STATES (SINGLETS)
------------------------------------

the weight of the individual excitations are printed if larger than 1.0e-02

STATE  1:  E=   0.289255 au      7.871 eV    63484.2 cm**-1 <S**2> =   0.000000
    11a ->  13a  :     0.891601 (c= -0.94424607)
    11a ->  14a  :     0.020513 (c= -0.14322252)
    11a ->  16a  :     0.073728 (c=  0.27152843)


-----------------------------
TD-DFT/TDA-EXCITATION SPECTRA
-----------------------------

Center of mass = (  0.0129, -0.0733,  0.0584)
Calculating the Dipole integrals                  ... done
Transforming integrals                            ... done
Calculating the Linear Momentum integrals         ... done
Transforming integrals                            ... done
Calculating angular momentum integrals            ... done
Transforming integrals                            ... done

-----------------------------------------------------------------------------
         ABSORPTION SPECTRUM VIA TRANSITION ELECTRIC DIPOLE MOMENTS
-----------------------------------------------------------------------------
State   Energy    Wavelength  fosc         T2        TX        TY        TZ  
        (cm-1)      (nm)                 (au**2)    (au)      (au)      (au) 
-----------------------------------------------------------------------------
   1   63484.2    157.5   0.000482233   0.00250  -0.04107  -0.02128   0.01900

-----------------------------------------------------------------------------
         ABSORPTION SPECTRUM VIA TRANSITION VELOCITY DIPOLE MOMENTS
-----------------------------------------------------------------------------
State   Energy    Wavelength   fosc        P2         PX        PY        PZ  
        (cm-1)      (nm)                 (au**2)     (au)      (au)      (au) 
-----------------------------------------------------------------------------
   1   63484.2    157.5   0.006598618   0.00286   0.01023  -0.00192  -0.05248

-------------------------------------------------------------------
                             CD SPECTRUM
-------------------------------------------------------------------
State  Energy     Wavelength     R         MX        MY        MZ   
       (cm-1)       (nm)     (1e40*cgs)   (au)      (au)      (au)  
-------------------------------------------------------------------
   1   63484.2    157.5     -6.71979   0.25435   0.16642  -0.01396

-------------------------------------------------------------------
         CD SPECTRUM VIA TRANSITION VELOCITY DIPOLE MOMENTS        
-------------------------------------------------------------------
State  Energy     Wavelength     R         MX        MY        MZ   
       (cm-1)       (nm)     (1e40*cgs)   (au)      (au)      (au)  
-------------------------------------------------------------------
   1   63484.2    157.5      4.91736   0.25435   0.16642  -0.01396

Total run time:        1.077 sec

           *** ORCA-CIS/TD-DFT FINISHED WITHOUT ERROR ***

Maximum memory used throughout the entire CIS-calculation: 49.4 MB

-----------------------
CIS/TD-DFT TOTAL ENERGY
-----------------------

    E(SCF)  =   -153.661741817 Eh
    DE(CIS) =      0.289255409 Eh (Root  1)
    ----------------------------- ---------
    E(tot)  =   -153.372486409 Eh



-------------------------------------------------------------------------------
                          DFT DISPERSION CORRECTION                            
                                                                               
                              DFTD3 V3.1  Rev 1                                
                          USING Becke-Johnson damping                          
-------------------------------------------------------------------------------
The PBE0 functional is recognized
Active option DFTDOPT                   ...         4   

molecular C6(AA) [au] = 351.258986 


            DFT-D V3
 parameters
 s6 scaling factor         :     1.0000 
 a1 scaling factor         :     0.4145 
 s8 scaling factor         :     1.2177 
 a2 scaling factor         :     4.8593 
 ad hoc parameters k1-k3   :    16.0000     1.3333    -4.0000 

 Edisp/kcal,au: -1.504924478684  -0.002398249557 
 E6   /kcal   :  -0.986229275 
 E8   /kcal   :  -0.518695204 
 % E8         :  34.466527132 

-------------------------   ----------------
Dispersion correction           -0.002398250
-------------------------   ----------------


-------------------------   --------------------
FINAL SINGLE POINT ENERGY      -153.374884658133
-------------------------   --------------------



           ************************************************************
           *        Program running with 8 parallel MPI-processes     *
           *              working on a common directory               *
           ************************************************************
------------------------------------------------------------------------------
                         ORCA SCF GRADIENT CALCULATION
------------------------------------------------------------------------------


------------------------
TD-DFT GRADIENT XC SETUP
------------------------

Building densities                     ... done
Calculating rho(r) on the grid         ... done
Building xc-kernel on the grid         ... done
Building xc 3rd derivative on the grid      ... done
                *** TD-DFT GRADIENT CALCULATION INITIALIZED ***

-------------------
TD-DFT/TDA GRADIENT
-------------------

Reference wavefunction             ... RHF
State of interest                  ... 1
Basis dimension                    ... 117
DFT-XC contribution needed         ... YES
RI-approximation                   ... ON
CIS-vectors being read from        ... ox_es1_A_orca0037.cis

 => Number of Vectors found: 1
 => Orbital Window: 3...11 -> 12...116

Reading the CIS file                     ... done
Norm of the CI vector                    ... 1.000000000
Making the CIS (pseudo)densities         ... done
Making operators G(D) and Q(T)           ... done
Transforming the Fock operators          ... done
Making the frozen-core relaxed density   ... done
Constructing the G(H) operator           ... done
Transforming the G(H) operator           ... done
Calculating the CIS Lagrangian           ... done
Solving the Z-vector equations           ... done
Finalizing the relaxed density           ... done
Storing the relaxed density              ... done
Constructing the G(Z) operator           ... done
Transforming the G(Z) operator           ... done
Making the W-matrix                      ... done
Finalizing the W-matrix                  ... done
Transforming the W-matrix                ... done
Nuclear repulsion gradient               ... done
One-Electron gradient                    ... done
Dispersion correction                    ... done
Prescreening matrices                    ... done
COSX-gradient                            ... done
Coulomb gradient (RI)                    ... done
Exchange-Correlation gradient            ... done

                 ---------------------------
                 EXCITED STATE GRADIENT DONE
                 ---------------------------

------------------
CARTESIAN GRADIENT
------------------

   1   O   :   -0.064006505   -0.095627677    0.006811000
   2   C   :    0.054339398    0.125332546    0.035870287
   3   C   :   -0.013790867    0.028421193    0.047652325
   4   H   :    0.024638676   -0.003308206   -0.034502487
   5   H   :   -0.013349723   -0.017674252   -0.013193602
   6   H   :    0.015010480   -0.026060974   -0.043670369
   7   H   :   -0.002808348   -0.011081768    0.001027521

Difference to translation invariance:
           :    0.0000331119    0.0000008619   -0.0000053255

Difference to rotation invariance:
           :    0.0001416648   -0.0001073795   -0.0002683544

Norm of the cartesian gradient     ...    0.2047454519
RMS gradient                       ...    0.0446791206
MAX gradient                       ...    0.1253325462

------------------------------------------------------------------------------
                  RELAXED CIS/TDA DENSITY POPULATION ANALYSIS
                                   IROOT 1
------------------------------------------------------------------------------
------------------------------------------------------------------------------
                           ORCA POPULATION ANALYSIS
------------------------------------------------------------------------------
Input electron density              ... ox_es1_A_orca0037.cisp
BaseName (.gbw .S,...)              ... ox_es1_A_orca0037

                    ********************************
                    * MULLIKEN POPULATION ANALYSIS *
                    ********************************

-----------------------
MULLIKEN ATOMIC CHARGES
-----------------------
   0 O :    0.162674
   1 C :   -0.591207
   2 C :   -0.180797
   3 H :    0.145250
   4 H :    0.121186
   5 H :    0.175058
   6 H :    0.167836
Sum of atomic charges:   -0.0000000

--------------------------------
MULLIKEN REDUCED ORBITAL CHARGES
--------------------------------
  0 O s       :     3.746843  s :     3.746843
      pz      :     1.116298  p :     4.048270
      px      :     1.501410
      py      :     1.430563
      dz2     :     0.004495  d :     0.040605
      dxz     :     0.003190
      dyz     :     0.007018
      dx2y2   :     0.012028
      dxy     :     0.013874
      f0      :     0.000113  f :     0.001608
      f+1     :    -0.000001
      f-1     :     0.000201
      f+2     :     0.000090
      f-2     :     0.000228
      f+3     :     0.000348
      f-3     :     0.000630
  1 C s       :     3.224435  s :     3.224435
      pz      :     1.078338  p :     3.268191
      px      :     0.864983
      py      :     1.324870
      dz2     :     0.013886  d :     0.088664
      dxz     :     0.015547
      dyz     :     0.005818
      dx2y2   :     0.032822
      dxy     :     0.020592
      f0      :     0.000979  f :     0.009917
      f+1     :     0.001393
      f-1     :     0.000740
      f+2     :     0.000993
      f-2     :     0.000898
      f+3     :     0.002520
      f-3     :     0.002394
  2 C s       :     3.232276  s :     3.232276
      pz      :     1.032816  p :     2.855510
      px      :     1.105617
      py      :     0.717077
      dz2     :     0.003034  d :     0.082357
      dxz     :     0.021501
      dyz     :     0.009537
      dx2y2   :     0.027542
      dxy     :     0.020743
      f0      :     0.000986  f :     0.010655
      f+1     :     0.001488
      f-1     :     0.000605
      f+2     :     0.000738
      f-2     :     0.001351
      f+3     :     0.002685
      f-3     :     0.002802
  3 H s       :     0.826533  s :     0.826533
      pz      :     0.011792  p :     0.028217
      px      :     0.007095
      py      :     0.009330
  4 H s       :     0.852893  s :     0.852893
      pz      :     0.010631  p :     0.025921
      px      :     0.007514
      py      :     0.007776
  5 H s       :     0.805797  s :     0.805797
      pz      :     0.010024  p :     0.019145
      px      :     0.005999
      py      :     0.003122
  6 H s       :     0.808602  s :     0.808602
      pz      :     0.010671  p :     0.023562
      px      :     0.009094
      py      :     0.003796


                     *******************************
                     * LOEWDIN POPULATION ANALYSIS *
                     *******************************

----------------------
LOEWDIN ATOMIC CHARGES
----------------------
   0 O :    0.415170
   1 C :   -0.634882
   2 C :   -0.331914
   3 H :    0.109692
   4 H :    0.122846
   5 H :    0.177608
   6 H :    0.141480

-------------------------------
LOEWDIN REDUCED ORBITAL CHARGES
-------------------------------
  0 O s       :     3.438276  s :     3.438276
      pz      :     1.060144  p :     4.038354
      px      :     1.483685
      py      :     1.494525
      dz2     :     0.011195  d :     0.101952
      dxz     :     0.009242
      dyz     :     0.014688
      dx2y2   :     0.037520
      dxy     :     0.029308
      f0      :     0.000631  f :     0.006249
      f+1     :     0.000128
      f-1     :     0.000685
      f+2     :     0.000157
      f-2     :     0.001013
      f+3     :     0.001041
      f-3     :     0.002593
  1 C s       :     2.838633  s :     2.838633
      pz      :     1.049308  p :     3.178449
      px      :     1.008706
      py      :     1.120435
      dz2     :     0.080071  d :     0.544861
      dxz     :     0.107489
      dyz     :     0.027713
      dx2y2   :     0.196136
      dxy     :     0.133451
      f0      :     0.006800  f :     0.072939
      f+1     :     0.005805
      f-1     :     0.008097
      f+2     :     0.005400
      f-2     :     0.003618
      f+3     :     0.024646
      f-3     :     0.018573
  2 C s       :     2.844412  s :     2.844412
      pz      :     1.023380  p :     2.972778
      px      :     1.115542
      py      :     0.833856
      dz2     :     0.070320  d :     0.443659
      dxz     :     0.113773
      dyz     :     0.040041
      dx2y2   :     0.116018
      dxy     :     0.103507
      f0      :     0.007455  f :     0.071065
      f+1     :     0.006404
      f-1     :     0.005922
      f+2     :     0.005036
      f-2     :     0.006172
      f+3     :     0.018876
      f-3     :     0.021200
  3 H s       :     0.805764  s :     0.805764
      pz      :     0.038461  p :     0.084545
      px      :     0.020068
      py      :     0.026016
  4 H s       :     0.804536  s :     0.804536
      pz      :     0.032749  p :     0.072618
      px      :     0.019891
      py      :     0.019977
  5 H s       :     0.772227  s :     0.772227
      pz      :     0.027398  p :     0.050165
      px      :     0.014290
      py      :     0.008476
  6 H s       :     0.790649  s :     0.790649
      pz      :     0.032651  p :     0.067871
      px      :     0.023384
      py      :     0.011836


                      *****************************
                      * MAYER POPULATION ANALYSIS *
                      *****************************

  NA   - Mulliken gross atomic population
  ZA   - Total nuclear charge
  QA   - Mulliken gross atomic charge
  VA   - Mayer's total valence
  BVA  - Mayer's bonded valence
  FA   - Mayer's free valence

  ATOM       NA         ZA         QA         VA         BVA        FA
  0 O      7.8373     8.0000     0.1627     1.8825     1.2242     0.6583
  1 C      6.5912     6.0000    -0.5912     3.9095     3.1019     0.8076
  2 C      6.1808     6.0000    -0.1808     3.7131     3.5229     0.1902
  3 H      0.8547     1.0000     0.1453     1.0170     0.9591     0.0580
  4 H      0.8788     1.0000     0.1212     1.0449     0.9500     0.0950
  5 H      0.8249     1.0000     0.1751     0.9602     0.9201     0.0400
  6 H      0.8322     1.0000     0.1678     0.9742     0.9429     0.0313

  Mayer bond orders larger than 0.100000
B(  0-O ,  1-C ) :   0.4081 B(  0-O ,  2-C ) :   0.8362 B(  1-C ,  2-C ) :   0.8219 
B(  1-C ,  3-H ) :   0.9432 B(  1-C ,  4-H ) :   0.9134 B(  2-C ,  5-H ) :   0.8977 
B(  2-C ,  6-H ) :   0.9182 


-------
TIMINGS
-------

Total TD-DFT gradient time         ...        5.895 sec

Fock matrix formation       ....       0.966 sec  ( 16.4%)
  Coulomb formation         ....       0.773 sec  ( 80.0% of F)
  RI-J                      ....       0.325 sec  ( 33.7% of F)
  Chain of spheres X        ....       0.448 sec  ( 46.3% of F)
  XC integration            ....       0.193 sec  ( 20.0% of F)
Z-vector equation           ....       1.581 sec  ( 26.8%)
One electron gradient       ....       0.038 sec  (  0.6%)
Prescreening matrices       ....       0.184 sec  (  3.1%)
RI-J Coulomb gradient       ....       0.292 sec  (  4.9%)
COSX gradient               ....       0.414 sec  (  7.0%)
XC gradient                 ....       2.007 sec  ( 34.0%)

Maximum memory used throughout the entire SCFGRAD-calculation: 130.3 MB

                            ***************************************
                            *     ORCA property calculations      *
                            ***************************************

                                    ---------------------
                                    Active property flags
                                    ---------------------
   (+) Dipole Moment


------------------------------------------------------------------------------
                       ORCA ELECTRIC PROPERTIES CALCULATION
------------------------------------------------------------------------------

Dipole Moment Calculation                       ... on
Quadrupole Moment Calculation                   ... off
Polarizability Calculation                      ... off
GBWName                                         ... ox_es1_A_orca0037.gbw
Electron density                                ... ox_es1_A_orca0037.scfp
The origin for moment calculation is the CENTER OF MASS  = ( 0.012890, -0.073337  0.058369)

-------------
DIPOLE MOMENT
-------------
                                X             Y             Z
Electronic contribution:     -0.02925       1.65084       0.16944
Nuclear contribution   :     -0.00254      -2.37038      -0.12820
                        -----------------------------------------
Total Dipole Moment    :     -0.03179      -0.71954       0.04124
                        -----------------------------------------
Magnitude (a.u.)       :      0.72142
Magnitude (Debye)      :      1.83371



--------------------
Rotational spectrum 
--------------------
 
Rotational constants in cm-1:     0.847420     0.718080     0.464924 
Rotational constants in MHz : 25405.001352 21527.482873 13938.062296 

 Dipole components along the rotational axes: 
x,y,z [a.u.] :    -0.096166     0.713376     0.047954 
x,y,z [Debye]:    -0.244436     1.813258     0.121890 

 

                        *** CIS RELAXED DENSITY ***

------------------------------------------------------------------------------
                       ORCA ELECTRIC PROPERTIES CALCULATION
------------------------------------------------------------------------------

Dipole Moment Calculation                       ... on
Quadrupole Moment Calculation                   ... off
Polarizability Calculation                      ... off
GBWName                                         ... ox_es1_A_orca0037.gbw
Electron density                                ... ox_es1_A_orca0037.cisp
The origin for moment calculation is the CENTER OF MASS  = ( 0.012890, -0.073337  0.058369)

-------------
DIPOLE MOMENT
-------------
                                X             Y             Z
Electronic contribution:      0.79136       2.28115       0.18960
Nuclear contribution   :     -0.00254      -2.37038      -0.12820
                        -----------------------------------------
Total Dipole Moment    :      0.78882      -0.08923       0.06140
                        -----------------------------------------
Magnitude (a.u.)       :      0.79622
Magnitude (Debye)      :      2.02384



--------------------
Rotational spectrum 
--------------------
 
Rotational constants in cm-1:     0.847420     0.718080     0.464924 
Rotational constants in MHz : 25405.001352 21527.482873 13938.062296 

 Dipole components along the rotational axes: 
x,y,z [a.u.] :     0.778758     0.160600     0.041424 
x,y,z [Debye]:     1.979445     0.408213     0.105290 

 

Timings for individual modules:

Sum of individual times         ...        9.017 sec (=   0.150 min)
GTO integral calculation        ...        0.304 sec (=   0.005 min)   3.4 %
SCF iterations                  ...        1.301 sec (=   0.022 min)  14.4 %
CIS module                      ...        1.302 sec (=   0.022 min)  14.4 %
SCF Gradient evaluation         ...        6.109 sec (=   0.102 min)  67.8 %
                             ****ORCA TERMINATED NORMALLY****
TOTAL RUN TIME: 0 days 0 hours 0 minutes 9 seconds 428 msec
