
                                 *****************
                                 * O   R   C   A *
                                 *****************

                                            #,                                       
                                            ###                                      
                                            ####                                     
                                            #####                                    
                                            ######                                   
                                           ########,                                 
                                     ,,################,,,,,                         
                               ,,#################################,,                 
                          ,,##########################################,,             
                       ,#########################################, ''#####,          
                    ,#############################################,,   '####,        
                  ,##################################################,,,,####,       
                ,###########''''           ''''###############################       
              ,#####''   ,,,,##########,,,,          '''####'''          '####       
            ,##' ,,,,###########################,,,                        '##       
           ' ,,###''''                  '''############,,,                           
         ,,##''                                '''############,,,,        ,,,,,,###''
      ,#''                                            '''#######################'''  
     '                                                          ''''####''''         
             ,#######,   #######,   ,#######,      ##                                
            ,#'     '#,  ##    ##  ,#'     '#,    #''#        ######   ,####,        
            ##       ##  ##   ,#'  ##            #'  '#       #        #'  '#        
            ##       ##  #######   ##           ,######,      #####,   #    #        
            '#,     ,#'  ##    ##  '#,     ,#' ,#      #,         ##   #,  ,#        
             '#######'   ##     ##  '#######'  #'      '#     #####' # '####'        



                  #######################################################
                  #                        -***-                        #
                  #          Department of theory and spectroscopy      #
                  #    Directorship and core code : Frank Neese         #
                  #        Max Planck Institute fuer Kohlenforschung    #
                  #                Kaiser Wilhelm Platz 1               #
                  #                 D-45470 Muelheim/Ruhr               #
                  #                      Germany                        #
                  #                                                     #
                  #                  All rights reserved                #
                  #                        -***-                        #
                  #######################################################


                         Program Version 5.0.2 -  RELEASE  -


 With contributions from (in alphabetic order):
   Daniel Aravena         : Magnetic Suceptibility
   Michael Atanasov       : Ab Initio Ligand Field Theory (pilot matlab implementation)
   Alexander A. Auer      : GIAO ZORA, VPT2 properties, NMR spectrum
   Ute Becker             : Parallelization
   Giovanni Bistoni       : ED, misc. LED, open-shell LED, HFLD
   Martin Brehm           : Molecular dynamics
   Dmytro Bykov           : SCF Hessian
   Vijay G. Chilkuri      : MRCI spin determinant printing, contributions to CSF-ICE
   Dipayan Datta          : RHF DLPNO-CCSD density
   Achintya Kumar Dutta   : EOM-CC, STEOM-CC
   Dmitry Ganyushin       : Spin-Orbit,Spin-Spin,Magnetic field MRCI
   Miquel Garcia          : C-PCM and meta-GGA Hessian, CC/C-PCM, Gaussian charge scheme
   Yang Guo               : DLPNO-NEVPT2, F12-NEVPT2, CIM, IAO-localization
   Andreas Hansen         : Spin unrestricted coupled pair/coupled cluster methods
   Benjamin Helmich-Paris : MC-RPA, TRAH-SCF, COSX integrals
   Lee Huntington         : MR-EOM, pCC
   Robert Izsak           : Overlap fitted RIJCOSX, COSX-SCS-MP3, EOM
   Marcus Kettner         : VPT2
   Christian Kollmar      : KDIIS, OOCD, Brueckner-CCSD(T), CCSD density, CASPT2, CASPT2-K
   Simone Kossmann        : Meta GGA functionals, TD-DFT gradient, OOMP2, MP2 Hessian
   Martin Krupicka        : Initial AUTO-CI
   Lucas Lang             : DCDCAS
   Marvin Lechner         : AUTO-CI (C++ implementation), FIC-MRCC
   Dagmar Lenk            : GEPOL surface, SMD
   Dimitrios Liakos       : Extrapolation schemes; Compound Job, initial MDCI parallelization
   Dimitrios Manganas     : Further ROCIS development; embedding schemes
   Dimitrios Pantazis     : SARC Basis sets
   Anastasios Papadopoulos: AUTO-CI, single reference methods and gradients
   Taras Petrenko         : DFT Hessian,TD-DFT gradient, ASA, ECA, R-Raman, ABS, FL, XAS/XES, NRVS
   Peter Pinski           : DLPNO-MP2, DLPNO-MP2 Gradient
   Christoph Reimann      : Effective Core Potentials
   Marius Retegan         : Local ZFS, SOC
   Christoph Riplinger    : Optimizer, TS searches, QM/MM, DLPNO-CCSD(T), (RO)-DLPNO pert. Triples
   Tobias Risthaus        : Range-separated hybrids, TD-DFT gradient, RPA, STAB
   Michael Roemelt        : Original ROCIS implementation
   Masaaki Saitow         : Open-shell DLPNO-CCSD energy and density
   Barbara Sandhoefer     : DKH picture change effects
   Avijit Sen             : IP-ROCIS
   Kantharuban Sivalingam : CASSCF convergence, NEVPT2, FIC-MRCI
   Bernardo de Souza      : ESD, SOC TD-DFT
   Georgi Stoychev        : AutoAux, RI-MP2 NMR, DLPNO-MP2 response
   Willem Van den Heuvel  : Paramagnetic NMR
   Boris Wezisla          : Elementary symmetry handling
   Frank Wennmohs         : Technical directorship


 We gratefully acknowledge several colleagues who have allowed us to
 interface, adapt or use parts of their codes:
   Stefan Grimme, W. Hujo, H. Kruse, P. Pracht,  : VdW corrections, initial TS optimization,
                  C. Bannwarth, S. Ehlert          DFT functionals, gCP, sTDA/sTD-DF
   Ed Valeev, F. Pavosevic, A. Kumar             : LibInt (2-el integral package), F12 methods
   Garnet Chan, S. Sharma, J. Yang, R. Olivares  : DMRG
   Ulf Ekstrom                                   : XCFun DFT Library
   Mihaly Kallay                                 : mrcc  (arbitrary order and MRCC methods)
   Jiri Pittner, Ondrej Demel                    : Mk-CCSD
   Frank Weinhold                                : gennbo (NPA and NBO analysis)
   Christopher J. Cramer and Donald G. Truhlar   : smd solvation model
   Lars Goerigk                                  : TD-DFT with DH, B97 family of functionals
   V. Asgeirsson, H. Jonsson                     : NEB implementation
   FAccTs GmbH                                   : IRC, NEB, NEB-TS, DLPNO-Multilevel, CI-OPT
                                                   MM, QMMM, 2- and 3-layer-ONIOM, Crystal-QMMM,
                                                   LR-CPCM, SF, NACMEs, symmetry and pop. for TD-DFT,
                                                   nearIR, NL-DFT gradient (VV10), updates on ESD,
                                                   ML-optimized integration grids
   S Lehtola, MJT Oliveira, MAL Marques          : LibXC Library
   Liviu Ungur et al                             : ANISO software


 Your calculation uses the libint2 library for the computation of 2-el integrals
 For citations please refer to: http://libint.valeyev.net

 Your ORCA version has been built with support for libXC version: 5.1.0
 For citations please refer to: https://tddft.org/programs/libxc/

 This ORCA versions uses:
   CBLAS   interface :  Fast vector & matrix operations
   LAPACKE interface :  Fast linear algebra routines
   SCALAPACK package :  Parallel linear algebra routines
   Shared memory     :  Shared parallel matrices
   BLAS/LAPACK       :  OpenBLAS 0.3.15  USE64BITINT DYNAMIC_ARCH NO_AFFINITY SkylakeX SINGLE_THREADED
        Core in use  :  SkylakeX
   Copyright (c) 2011-2014, The OpenBLAS Project


Your calculation utilizes the atom-pairwise dispersion correction
with the Becke-Johnson damping scheme (D3BJ)
Cite in your paper:
S.Grimme, S.Ehrlich, L.Goerigk, J Comput Chem, (2011), 32, 1456–1465 
S.Grimme, J.Antony, S.Ehrlich and H.Krieg, J.Chem.Phys., 132, (2010), 154104 
   

================================================================================

----- Orbital basis set information -----
Your calculation utilizes the basis: def2-TZVP
   F. Weigend and R. Ahlrichs, Phys. Chem. Chem. Phys. 7, 3297 (2005).

----- AuxJ basis set information -----
Your calculation utilizes the auxiliary basis: def2/J
   F. Weigend, Phys. Chem. Chem. Phys. 8, 1057 (2006).

================================================================================
                                        WARNINGS
                       Please study these warnings very carefully!
================================================================================

INFO   : Checking CIS options ...

WARNING: CIS/ROCIS methods need fully converged wavefunctions
  ===> : Setting SCFConvForced true
         You can overwrite this default with %scf ConvForced false 


INFO   : the flag for use of the SHARK integral package has been found!

================================================================================
                                       INPUT FILE
================================================================================
NAME = ox_es1_B_orca0001.inp
|  1> ! engrad PBE0 D3BJ def2-TZVP  
|  2> %pal nprocs 8 end
|  3> %maxcore 3000
|  4> 
|  5> %tddft
|  6>   nroots 1
|  7>   tda true
|  8>   Iroot 1
|  9>   end 
| 10> *xyz 0 1 
| 11> O   -0.2774012919784112 0.8932175308296351 0.027672066115398918
| 12> C   -0.6629820122909932 -0.470485754235295 0.03377770425611904
| 13> C   0.6380381786704901 -0.45617591700894994 0.05294845937855752
| 14> H   -1.2837149414099995 -0.6513989273193014 0.9723551486446361
| 15> H   -1.2115258572186167 -0.6250850454157582 -0.9260807987423837
| 16> H   1.2700584676884108 -0.6844106002804148 -0.877892484350193
| 17> H   1.3833708957731516 -0.6644608306081382 0.8916538734767522
| 18> *
| 19> 
| 20>                          ****END OF INPUT****
================================================================================

                     *******************************
                     * Energy+Gradient Calculation *
                     *******************************

---------------------------------
CARTESIAN COORDINATES (ANGSTROEM)
---------------------------------
  O     -0.277401    0.893218    0.027672
  C     -0.662982   -0.470486    0.033778
  C      0.638038   -0.456176    0.052948
  H     -1.283715   -0.651399    0.972355
  H     -1.211526   -0.625085   -0.926081
  H      1.270058   -0.684411   -0.877892
  H      1.383371   -0.664461    0.891654

----------------------------
CARTESIAN COORDINATES (A.U.)
----------------------------
  NO LB      ZA    FRAG     MASS         X           Y           Z
   0 O     8.0000    0    15.999   -0.524212    1.687937    0.052293
   1 C     6.0000    0    12.011   -1.252854   -0.889089    0.063831
   2 C     6.0000    0    12.011    1.205717   -0.862048    0.100058
   3 H     1.0000    0     1.008   -2.425870   -1.230966    1.837485
   4 H     1.0000    0     1.008   -2.289452   -1.181240   -1.750039
   5 H     1.0000    0     1.008    2.400063   -1.293349   -1.658976
   6 H     1.0000    0     1.008    2.614192   -1.255649    1.684982

--------------------------------
INTERNAL COORDINATES (ANGSTROEM)
--------------------------------
 O      0   0   0     0.000000000000     0.00000000     0.00000000
 C      1   0   0     1.417179036110     0.00000000     0.00000000
 C      2   1   0     1.301240111041    73.58761102     0.00000000
 H      2   1   3     1.139722143596   107.72658432   119.37010543
 H      2   1   3     1.116301767633   105.26350340   242.23380484
 H      3   2   1     1.148044240829   122.43174172   256.46011743
 H      3   2   1     1.141196843693   131.43920681   105.16295452

---------------------------
INTERNAL COORDINATES (A.U.)
---------------------------
 O      0   0   0     0.000000000000     0.00000000     0.00000000
 C      1   0   0     2.678080260983     0.00000000     0.00000000
 C      2   1   0     2.458987444341    73.58761102     0.00000000
 H      2   1   3     2.153762720162   107.72658432   119.37010543
 H      2   1   3     2.109504623638   105.26350340   242.23380484
 H      3   2   1     2.169489204792   122.43174172   256.46011743
 H      3   2   1     2.156549499475   131.43920681   105.16295452

---------------------
BASIS SET INFORMATION
---------------------
There are 3 groups of distinct atoms

 Group   1 Type O   : 11s6p2d1f contracted to 5s3p2d1f pattern {62111/411/11/1}
 Group   2 Type C   : 11s6p2d1f contracted to 5s3p2d1f pattern {62111/411/11/1}
 Group   3 Type H   : 5s1p contracted to 3s1p pattern {311/1}

Atom   0O    basis set group =>   1
Atom   1C    basis set group =>   2
Atom   2C    basis set group =>   2
Atom   3H    basis set group =>   3
Atom   4H    basis set group =>   3
Atom   5H    basis set group =>   3
Atom   6H    basis set group =>   3
---------------------------------
AUXILIARY/J BASIS SET INFORMATION
---------------------------------
There are 3 groups of distinct atoms

 Group   1 Type O   : 12s5p4d2f1g contracted to 6s4p3d1f1g pattern {711111/2111/211/2/1}
 Group   2 Type C   : 12s5p4d2f1g contracted to 6s4p3d1f1g pattern {711111/2111/211/2/1}
 Group   3 Type H   : 5s2p1d contracted to 3s1p1d pattern {311/2/1}

Atom   0O    basis set group =>   1
Atom   1C    basis set group =>   2
Atom   2C    basis set group =>   2
Atom   3H    basis set group =>   3
Atom   4H    basis set group =>   3
Atom   5H    basis set group =>   3
Atom   6H    basis set group =>   3

Checking for AutoStart:
The File: ox_es1_B_orca0001.gbw exists
Trying to determine its content:
     ... Fine, the file contains calculation information
     ... Fine, the calculation information was read
     ... Fine, the file contains a basis set
     ... Fine, the basis set was read
     ... Fine, the file contains a geometry
     ... Fine, the geometry was read
     ... Fine, the file contains a set of orbitals
     ... Fine, the orbitals can be read
     => possible old guess file was deleted
     => GBW file was renamed to GES file
     => GES file is set as startup file
     => Guess is set to MORead
     ... now leaving AutoStart



           ************************************************************
           *        Program running with 8 parallel MPI-processes     *
           *              working on a common directory               *
           ************************************************************
------------------------------------------------------------------------------
                           ORCA GTO INTEGRAL CALCULATION
                           -- RI-GTO INTEGRALS CHOSEN --
------------------------------------------------------------------------------
------------------------------------------------------------------------------
                   ___                                                        
                  /   \      - P O W E R E D   B Y -                         
                 /     \                                                     
                 |  |  |   _    _      __       _____    __    __             
                 |  |  |  | |  | |    /  \     |  _  \  |  |  /  |          
                  \  \/   | |  | |   /    \    | | | |  |  | /  /          
                 / \  \   | |__| |  /  /\  \   | |_| |  |  |/  /          
                |  |  |   |  __  | /  /__\  \  |    /   |      \           
                |  |  |   | |  | | |   __   |  |    \   |  |\   \          
                \     /   | |  | | |  |  |  |  | |\  \  |  | \   \       
                 \___/    |_|  |_| |__|  |__|  |_| \__\ |__|  \__/        
                                                                              
                      - O R C A' S   B I G   F R I E N D -                    
                                      &                                       
                       - I N T E G R A L  F E E D E R -                       
                                                                              
 v1 FN, 2020, v2 2021                                                         
------------------------------------------------------------------------------


Reading SHARK input file ox_es1_B_orca0001.SHARKINP.tmp ... ok
----------------------
SHARK INTEGRAL PACKAGE
----------------------

Number of atoms                             ...      7
Number of basis functions                   ...    117
Number of shells                            ...     49
Maximum angular momentum                    ...      3
Integral batch strategy                     ... SHARK/LIBINT Hybrid
RI-J (if used) integral strategy            ... SPLIT-RIJ (Revised 2003 algorithm where possible)
Printlevel                                  ...      1
Contraction scheme used                     ... SEGMENTED contraction
Coulomb Range Separation                    ... NOT USED
Exchange Range Separation                   ... NOT USED
Finite Nucleus Model                        ... NOT USED
Auxiliary Coulomb fitting basis             ... AVAILABLE
   # of basis functions in Aux-J            ...    191
   # of shells in Aux-J                     ...     65
   Maximum angular momentum in Aux-J        ...      4
Auxiliary J/K fitting basis                 ... NOT available
Auxiliary Correlation fitting basis         ... NOT available
Auxiliary 'external' fitting basis          ... NOT available
Integral threshold                          ...     2.500000e-11
Primitive cut-off                           ...     2.500000e-12
Primitive pair pre-selection threshold      ...     2.500000e-12

Calculating pre-screening integrals         ... done (  0.0 sec) Dimension = 49
Organizing shell pair data                  ... done (  0.0 sec)
Shell pair information
Total number of shell pairs                 ...      1225
Shell pairs after pre-screening             ...      1220
Total number of primitive shell pairs       ...      3648
Primitive shell pairs kept                  ...      3140
          la=0 lb=0:    373 shell pairs
          la=1 lb=0:    351 shell pairs
          la=1 lb=1:     91 shell pairs
          la=2 lb=0:    162 shell pairs
          la=2 lb=1:     78 shell pairs
          la=2 lb=2:     21 shell pairs
          la=3 lb=0:     81 shell pairs
          la=3 lb=1:     39 shell pairs
          la=3 lb=2:     18 shell pairs
          la=3 lb=3:      6 shell pairs

Calculating one electron integrals          ... done (  0.0 sec)
Calculating RI/J V-Matrix + Cholesky decomp.... done (  0.0 sec)
Calculating Nuclear repulsion               ... done (  0.0 sec) ENN=     74.188730486944 Eh

SHARK setup successfully completed in   0.1 seconds

Maximum memory used throughout the entire GTOINT-calculation: 14.9 MB


           ************************************************************
           *        Program running with 8 parallel MPI-processes     *
           *              working on a common directory               *
           ************************************************************
-------------------------------------------------------------------------------
                                 ORCA SCF
-------------------------------------------------------------------------------

------------
SCF SETTINGS
------------
Hamiltonian:
 Density Functional     Method          .... DFT(GTOs)
 Exchange Functional    Exchange        .... PBE
   PBE kappa parameter   XKappa         ....  0.804000
   PBE mue parameter    XMuePBE         ....  0.219520
 Correlation Functional Correlation     .... PBE
   PBE beta parameter  CBetaPBE         ....  0.066725
 LDA part of GGA corr.  LDAOpt          .... PW91-LDA
 Gradients option       PostSCFGGA      .... off
 Hybrid DFT is turned on
   Fraction HF Exchange ScalHFX         ....  0.250000
   Scaling of DF-GGA-X  ScalDFX         ....  0.750000
   Scaling of DF-GGA-C  ScalDFC         ....  1.000000
   Scaling of DF-LDA-C  ScalLDAC        ....  1.000000
   Perturbative correction              ....  0.000000
   Density functional embedding theory  .... OFF
   NL short-range parameter             ....  6.900000
 RI-approximation to the Coulomb term is turned on
   Number of AuxJ basis functions       .... 191
   RIJ-COSX (HFX calculated with COS-X)).... on


General Settings:
 Integral files         IntName         .... ox_es1_B_orca0001
 Hartree-Fock type      HFTyp           .... RHF
 Total Charge           Charge          ....    0
 Multiplicity           Mult            ....    1
 Number of Electrons    NEL             ....   24
 Basis Dimension        Dim             ....  117
 Nuclear Repulsion      ENuc            ....     74.1887304869 Eh

Convergence Acceleration:
 DIIS                   CNVDIIS         .... on
   Start iteration      DIISMaxIt       ....    12
   Startup error        DIISStart       ....  0.200000
   # of expansion vecs  DIISMaxEq       ....     5
   Bias factor          DIISBfac        ....   1.050
   Max. coefficient     DIISMaxC        ....  10.000
 Trust-Rad. Augm. Hess. CNVTRAH         .... auto
   Auto Start mean grad. ratio tolernc. ....  1.125000
   Auto Start start iteration           ....     1
   Auto Start num. interpolation iter.  ....    10
   Max. Number of Micro iterations      ....    16
   Max. Number of Macro iterations      .... Maxiter - #DIIS iter
   Number of Davidson start vectors     ....     2
   Converg. threshold I  (grad. norm)   ....   1.000e-05
   Converg. threshold II (energy diff.) ....   1.000e-08
   Grad. Scal. Fac. for Micro threshold ....   0.100
   Minimum threshold for Micro iter.    ....   0.010
   NR start threshold (gradient norm)   ....   0.001
   Initial trust radius                 ....   0.400
   Minimum AH scaling param. (alpha)    ....   1.000
   Maximum AH scaling param. (alpha)    .... 1000.000
   Orbital update algorithm             .... Taylor
   White noise on init. David. guess    .... on
   Maximum white noise                  ....   0.010
   Quad. conv. algorithm                .... NR
 SOSCF                  CNVSOSCF        .... on
   Start iteration      SOSCFMaxIt      ....   150
   Startup grad/error   SOSCFStart      ....  0.003300
 Level Shifting         CNVShift        .... on
   Level shift para.    LevelShift      ....    0.2500
   Turn off err/grad.   ShiftErr        ....    0.0010
 Zerner damping         CNVZerner       .... off
 Static damping         CNVDamp         .... on
   Fraction old density DampFac         ....    0.7000
   Max. Damping (<1)    DampMax         ....    0.9800
   Min. Damping (>=0)   DampMin         ....    0.0000
   Turn off err/grad.   DampErr         ....    0.1000
 Fernandez-Rico         CNVRico         .... off

SCF Procedure:
 Maximum # iterations   MaxIter         ....   125
 SCF integral mode      SCFMode         .... Direct
   Integral package                     .... SHARK and LIBINT hybrid scheme
 Reset frequency        DirectResetFreq ....    20
 Integral Threshold     Thresh          ....  2.500e-11 Eh
 Primitive CutOff       TCut            ....  2.500e-12 Eh

Convergence Tolerance:
 Convergence Check Mode ConvCheckMode   .... Total+1el-Energy
 Convergence forced     ConvForced      .... 1
 Energy Change          TolE            ....  1.000e-08 Eh
 1-El. energy change                    ....  1.000e-05 Eh
 Orbital Gradient       TolG            ....  1.000e-05
 Orbital Rotation angle TolX            ....  1.000e-05
 DIIS Error             TolErr          ....  5.000e-07


Diagonalization of the overlap matrix:
Smallest eigenvalue                        ... 1.397e-04
Time for diagonalization                   ...    0.001 sec
Threshold for overlap eigenvalues          ... 1.000e-08
Number of eigenvalues below threshold      ... 0
Time for construction of square roots      ...    0.001 sec
Total time needed                          ...    0.003 sec

---------------------
INITIAL GUESS: MOREAD
---------------------
Guess MOs are being read from file: ox_es1_B_orca0001.ges
Input Geometry matches current geometry (good)
Input basis set matches current basis set (good)
MOs were renormalized
MOs were reorthogonalized (Cholesky)
                      ------------------
                      INITIAL GUESS DONE (   0.0 sec)
                      ------------------
-------------------
DFT GRID GENERATION
-------------------

General Integration Accuracy     IntAcc      ... 4.388
Radial Grid Type                 RadialGrid  ... OptM3 with GC (2021)
Angular Grid (max. ang.)         AngularGrid ... 4 (Lebedev-302)
Angular grid pruning method      GridPruning ... 4 (adaptive)
Weight generation scheme         WeightScheme... Becke
Basis function cutoff            BFCut       ... 1.0000e-11
Integration weight cutoff        WCut        ... 1.0000e-14
Angular grids for H and He will be reduced by one unit
Partially contracted basis set               ... off
Rotationally invariant grid construction     ... off

Total number of grid points                  ...    31298
Total number of batches                      ...      493
Average number of points per batch           ...       63
Average number of grid points per atom       ...     4471
Time for grid setup =    0.116 sec

--------------------
COSX GRID GENERATION
--------------------

GRIDX 1
-------
General Integration Accuracy     IntAcc      ... 3.816
Radial Grid Type                 RadialGrid  ... OptM3 with GC (2021)
Angular Grid (max. ang.)         AngularGrid ... 1 (Lebedev-50)
Angular grid pruning method      GridPruning ... 4 (adaptive)
Weight generation scheme         WeightScheme... Becke
Basis function cutoff            BFCut       ... 1.0000e-11
Integration weight cutoff        WCut        ... 1.0000e-14
Angular grids for H and He will be reduced by one unit
Partially contracted basis set               ... on
Rotationally invariant grid construction     ... off

Total number of grid points                  ...     4037
Total number of batches                      ...       68
Average number of points per batch           ...       59
Average number of grid points per atom       ...      577
UseSFitting                                  ... on

GRIDX 2
-------
General Integration Accuracy     IntAcc      ... 4.020
Radial Grid Type                 RadialGrid  ... OptM3 with GC (2021)
Angular Grid (max. ang.)         AngularGrid ... 2 (Lebedev-110)
Angular grid pruning method      GridPruning ... 4 (adaptive)
Weight generation scheme         WeightScheme... Becke
Basis function cutoff            BFCut       ... 1.0000e-11
Integration weight cutoff        WCut        ... 1.0000e-14
Angular grids for H and He will be reduced by one unit
Partially contracted basis set               ... on
Rotationally invariant grid construction     ... off

Total number of grid points                  ...     8722
Total number of batches                      ...      139
Average number of points per batch           ...       62
Average number of grid points per atom       ...     1246
UseSFitting                                  ... on

GRIDX 3
-------
General Integration Accuracy     IntAcc      ... 4.338
Radial Grid Type                 RadialGrid  ... OptM3 with GC (2021)
Angular Grid (max. ang.)         AngularGrid ... 3 (Lebedev-194)
Angular grid pruning method      GridPruning ... 4 (adaptive)
Weight generation scheme         WeightScheme... Becke
Basis function cutoff            BFCut       ... 1.0000e-11
Integration weight cutoff        WCut        ... 1.0000e-14
Angular grids for H and He will be reduced by one unit
Partially contracted basis set               ... on
Rotationally invariant grid construction     ... off

Total number of grid points                  ...    19244
Total number of batches                      ...      305
Average number of points per batch           ...       63
Average number of grid points per atom       ...     2749
UseSFitting                                  ... on

Time for X-Grid setup             =    0.073 sec

--------------
SCF ITERATIONS
--------------
ITER       Energy         Delta-E        Max-DP      RMS-DP      [F,P]     Damp
               ***  Starting incremental Fock matrix formation  ***
                      *** Initiating the SOSCF procedure ***
                      *** Re-Reading the Fockian *** 
                      *** Removing any level shift *** 
ITER      Energy       Delta-E        Grad      Rot      Max-DP    RMS-DP
  0   -153.61975947 -153.6197594679  0.000001  0.000001  0.000001  0.000000
               *** Restarting incremental Fock matrix formation ***
                  ***Gradient check signals convergence***
              ***Rediagonalizing the Fockian in SOSCF/NRSCF***

               *****************************************************
               *                     SUCCESS                       *
               *           SCF CONVERGED AFTER   1 CYCLES          *
               *****************************************************

Old exchange energy                            =     -4.982712051 Eh
New exchange energy                            =     -4.982734141 Eh
Exchange energy change after final integration =     -0.000022090 Eh
Total energy after final integration           =   -153.619781558 Eh
Final COS-X integration done in                =     0.247 sec

----------------
TOTAL SCF ENERGY
----------------

Total Energy       :         -153.61978156 Eh           -4180.20677 eV

Components:
Nuclear Repulsion  :           74.18873049 Eh            2018.77799 eV
Electronic Energy  :         -227.80851204 Eh           -6198.98476 eV
One Electron Energy:         -355.09702428 Eh           -9662.68127 eV
Two Electron Energy:          127.28851223 Eh            3463.69651 eV
Max COSX asymmetry :            0.00000270 Eh               0.00007 eV

Virial components:
Potential Energy   :         -306.57118841 Eh           -8342.22615 eV
Kinetic Energy     :          152.95140685 Eh            4162.01937 eV
Virial Ratio       :            2.00436985


DFT components:
N(Alpha)           :       11.999999839996 electrons
N(Beta)            :       11.999999839996 electrons
N(Total)           :       23.999999679992 electrons
E(X)               :      -14.930799124609 Eh       
E(C)               :       -0.786203278236 Eh       
E(XC)              :      -15.717002402845 Eh       
DFET-embed. en.    :        0.000000000000 Eh       

---------------
SCF CONVERGENCE
---------------

  Last Energy change         ...    1.9412e-11  Tolerance :   1.0000e-08
  Last MAX-Density change    ...    1.7764e-15  Tolerance :   1.0000e-07
  Last RMS-Density change    ...    2.6605e-17  Tolerance :   5.0000e-09
  Last Orbital Gradient      ...    2.7901e-07  Tolerance :   1.0000e-05
  Last Orbital Rotation      ...    5.1198e-07  Tolerance :   1.0000e-05

             **** THE GBW FILE WAS UPDATED (ox_es1_B_orca0001.gbw) ****
             **** DENSITY ox_es1_B_orca0001.scfp WAS UPDATED ****
             **** ENERGY FILE WAS UPDATED (ox_es1_B_orca0001.en.tmp) ****
             **** THE GBW FILE WAS UPDATED (ox_es1_B_orca0001.gbw) ****
             **** DENSITY ox_es1_B_orca0001.scfp WAS UPDATED ****
----------------
ORBITAL ENERGIES
----------------

  NO   OCC          E(Eh)            E(eV) 
   0   2.0000     -19.216641      -522.9114 
   1   2.0000     -10.290532      -280.0196 
   2   2.0000     -10.270859      -279.4843 
   3   2.0000      -1.071075       -29.1454 
   4   2.0000      -0.745826       -20.2950 
   5   2.0000      -0.627404       -17.0725 
   6   2.0000      -0.523142       -14.2354 
   7   2.0000      -0.511755       -13.9256 
   8   2.0000      -0.398849       -10.8532 
   9   2.0000      -0.369047       -10.0423 
  10   2.0000      -0.344102        -9.3635 
  11   2.0000      -0.279986        -7.6188 
  12   0.0000       0.007145         0.1944 
  13   0.0000       0.058596         1.5945 
  14   0.0000       0.070588         1.9208 
  15   0.0000       0.081300         2.2123 
  16   0.0000       0.114144         3.1060 
  17   0.0000       0.152852         4.1593 
  18   0.0000       0.180589         4.9141 
  19   0.0000       0.224907         6.1200 
  20   0.0000       0.251728         6.8499 
  21   0.0000       0.266838         7.2610 
  22   0.0000       0.282085         7.6759 
  23   0.0000       0.311351         8.4723 
  24   0.0000       0.377463        10.2713 
  25   0.0000       0.392530        10.6813 
  26   0.0000       0.419238        11.4080 
  27   0.0000       0.424996        11.5647 
  28   0.0000       0.440928        11.9982 
  29   0.0000       0.492386        13.3985 
  30   0.0000       0.497120        13.5273 
  31   0.0000       0.533929        14.5289 
  32   0.0000       0.574317        15.6279 
  33   0.0000       0.677265        18.4293 
  34   0.0000       0.684486        18.6258 
  35   0.0000       0.770145        20.9567 
  36   0.0000       0.815474        22.1902 
  37   0.0000       0.831215        22.6185 
  38   0.0000       0.850390        23.1403 
  39   0.0000       0.976786        26.5797 
  40   0.0000       0.983262        26.7559 
  41   0.0000       1.057529        28.7768 
  42   0.0000       1.098387        29.8886 
  43   0.0000       1.125358        30.6225 
  44   0.0000       1.233531        33.5661 
  45   0.0000       1.377126        37.4735 
  46   0.0000       1.463851        39.8334 
  47   0.0000       1.476299        40.1721 
  48   0.0000       1.500430        40.8288 
  49   0.0000       1.534005        41.7424 
  50   0.0000       1.562515        42.5182 
  51   0.0000       1.646493        44.8034 
  52   0.0000       1.651394        44.9367 
  53   0.0000       1.665158        45.3113 
  54   0.0000       1.725346        46.9491 
  55   0.0000       1.756995        47.8103 
  56   0.0000       1.848713        50.3060 
  57   0.0000       1.866071        50.7784 
  58   0.0000       1.922015        52.3007 
  59   0.0000       2.006345        54.5954 
  60   0.0000       2.033613        55.3374 
  61   0.0000       2.137761        58.1714 
  62   0.0000       2.160189        58.7817 
  63   0.0000       2.270974        61.7963 
  64   0.0000       2.295016        62.4506 
  65   0.0000       2.310410        62.8695 
  66   0.0000       2.402952        65.3876 
  67   0.0000       2.446566        66.5744 
  68   0.0000       2.491152        67.7877 
  69   0.0000       2.544893        69.2501 
  70   0.0000       2.579322        70.1869 
  71   0.0000       2.670135        72.6581 
  72   0.0000       2.725864        74.1745 
  73   0.0000       2.731385        74.3248 
  74   0.0000       2.760489        75.1167 
  75   0.0000       2.800068        76.1937 
  76   0.0000       2.828415        76.9651 
  77   0.0000       2.914643        79.3115 
  78   0.0000       2.988896        81.3320 
  79   0.0000       3.044753        82.8520 
  80   0.0000       3.059537        83.2542 
  81   0.0000       3.085761        83.9678 
  82   0.0000       3.097026        84.2744 
  83   0.0000       3.192262        86.8659 
  84   0.0000       3.296183        89.6937 
  85   0.0000       3.327553        90.5473 
  86   0.0000       3.368124        91.6513 
  87   0.0000       3.396454        92.4222 
  88   0.0000       3.528794        96.0234 
  89   0.0000       3.586299        97.5882 
  90   0.0000       3.627405        98.7067 
  91   0.0000       3.721708       101.2728 
  92   0.0000       3.948851       107.4537 
  93   0.0000       4.061326       110.5143 
  94   0.0000       4.086796       111.2074 
  95   0.0000       4.264319       116.0380 
  96   0.0000       4.335670       117.9796 
  97   0.0000       4.386757       119.3697 
  98   0.0000       4.475027       121.7717 
  99   0.0000       4.504882       122.5841 
 100   0.0000       4.714885       128.2985 
 101   0.0000       4.898271       133.2887 
 102   0.0000       5.269797       143.3985 
 103   0.0000       5.309660       144.4832 
 104   0.0000       5.480502       149.1320 
 105   0.0000       5.620363       152.9378 
 106   0.0000       5.762989       156.8189 
 107   0.0000       5.767332       156.9371 
 108   0.0000       5.985345       162.8695 
 109   0.0000       6.507273       177.0719 
 110   0.0000       6.512347       177.2100 
 111   0.0000       6.789531       184.7525 
 112   0.0000       6.965658       189.5452 
 113   0.0000       7.110336       193.4821 
 114   0.0000      22.106603       601.5512 
 115   0.0000      22.651236       616.3715 
 116   0.0000      43.778302      1191.2682 

                    ********************************
                    * MULLIKEN POPULATION ANALYSIS *
                    ********************************

-----------------------
MULLIKEN ATOMIC CHARGES
-----------------------
   0 O :   -0.345563
   1 C :   -0.030314
   2 C :   -0.117748
   3 H :    0.109989
   4 H :    0.112154
   5 H :    0.128039
   6 H :    0.143444
Sum of atomic charges:    0.0000000

--------------------------------
MULLIKEN REDUCED ORBITAL CHARGES
--------------------------------
  0 O s       :     3.894019  s :     3.894019
      pz      :     1.875384  p :     4.415680
      px      :     1.381328
      py      :     1.158969
      dz2     :     0.005013  d :     0.034032
      dxz     :     0.001469
      dyz     :     0.005911
      dx2y2   :     0.010102
      dxy     :     0.011537
      f0      :     0.000198  f :     0.001831
      f+1     :     0.000117
      f-1     :     0.000437
      f+2     :     0.000137
      f-2     :     0.000104
      f+3     :     0.000445
      f-3     :     0.000393
  1 C s       :     3.160227  s :     3.160227
      pz      :     1.044236  p :     2.713506
      px      :     0.953927
      py      :     0.715343
      dz2     :     0.007152  d :     0.144754
      dxz     :     0.027764
      dyz     :     0.040465
      dx2y2   :     0.035051
      dxy     :     0.034322
      f0      :     0.001833  f :     0.011827
      f+1     :     0.001099
      f-1     :     0.000724
      f+2     :     0.002788
      f-2     :     0.000705
      f+3     :     0.001291
      f-3     :     0.003386
  2 C s       :     3.228584  s :     3.228584
      pz      :     1.054008  p :     2.782204
      px      :     0.962630
      py      :     0.765566
      dz2     :     0.005180  d :     0.097585
      dxz     :     0.029886
      dyz     :     0.018401
      dx2y2   :     0.022787
      dxy     :     0.021331
      f0      :     0.001035  f :     0.009376
      f+1     :     0.000912
      f-1     :     0.000426
      f+2     :     0.001707
      f-2     :     0.001042
      f+3     :     0.001632
      f-3     :     0.002621
  3 H s       :     0.870820  s :     0.870820
      pz      :     0.009847  p :     0.019191
      px      :     0.006187
      py      :     0.003157
  4 H s       :     0.867639  s :     0.867639
      pz      :     0.010843  p :     0.020207
      px      :     0.005816
      py      :     0.003549
  5 H s       :     0.852468  s :     0.852468
      pz      :     0.009720  p :     0.019493
      px      :     0.006558
      py      :     0.003215
  6 H s       :     0.836695  s :     0.836695
      pz      :     0.008628  p :     0.019860
      px      :     0.008078
      py      :     0.003155


                     *******************************
                     * LOEWDIN POPULATION ANALYSIS *
                     *******************************

----------------------
LOEWDIN ATOMIC CHARGES
----------------------
   0 O :    0.044458
   1 C :   -0.398354
   2 C :   -0.199120
   3 H :    0.135060
   4 H :    0.134576
   5 H :    0.142269
   6 H :    0.141111

-------------------------------
LOEWDIN REDUCED ORBITAL CHARGES
-------------------------------
  0 O s       :     3.479114  s :     3.479114
      pz      :     1.781112  p :     4.402328
      px      :     1.349301
      py      :     1.271916
      dz2     :     0.010538  d :     0.069298
      dxz     :     0.003630
      dyz     :     0.013197
      dx2y2   :     0.022669
      dxy     :     0.019263
      f0      :     0.000451  f :     0.004801
      f+1     :     0.000150
      f-1     :     0.000879
      f+2     :     0.000423
      f-2     :     0.000372
      f+3     :     0.001147
      f-3     :     0.001380
  1 C s       :     2.801268  s :     2.801268
      pz      :     1.011232  p :     2.894254
      px      :     1.097138
      py      :     0.785883
      dz2     :     0.060214  d :     0.611417
      dxz     :     0.162159
      dyz     :     0.105069
      dx2y2   :     0.143029
      dxy     :     0.140946
      f0      :     0.012670  f :     0.091416
      f+1     :     0.006663
      f-1     :     0.007348
      f+2     :     0.018060
      f-2     :     0.002718
      f+3     :     0.015240
      f-3     :     0.028718
  2 C s       :     2.829998  s :     2.829998
      pz      :     1.036854  p :     2.880275
      px      :     1.106629
      py      :     0.736792
      dz2     :     0.036573  d :     0.431218
      dxz     :     0.170012
      dyz     :     0.045078
      dx2y2   :     0.085976
      dxy     :     0.093580
      f0      :     0.006181  f :     0.057629
      f+1     :     0.005431
      f-1     :     0.003777
      f+2     :     0.009150
      f-2     :     0.003587
      f+3     :     0.012044
      f-3     :     0.017460
  3 H s       :     0.813670  s :     0.813670
      pz      :     0.027627  p :     0.051270
      px      :     0.015126
      py      :     0.008517
  4 H s       :     0.810869  s :     0.810869
      pz      :     0.030321  p :     0.054555
      px      :     0.014637
      py      :     0.009597
  5 H s       :     0.805031  s :     0.805031
      pz      :     0.028185  p :     0.052699
      px      :     0.015522
      py      :     0.008992
  6 H s       :     0.804077  s :     0.804077
      pz      :     0.026132  p :     0.054812
      px      :     0.019733
      py      :     0.008947


                      *****************************
                      * MAYER POPULATION ANALYSIS *
                      *****************************

  NA   - Mulliken gross atomic population
  ZA   - Total nuclear charge
  QA   - Mulliken gross atomic charge
  VA   - Mayer's total valence
  BVA  - Mayer's bonded valence
  FA   - Mayer's free valence

  ATOM       NA         ZA         QA         VA         BVA        FA
  0 O      8.3456     8.0000    -0.3456     1.9326     1.9326     0.0000
  1 C      6.0303     6.0000    -0.0303     4.0469     4.0469    -0.0000
  2 C      6.1177     6.0000    -0.1177     3.9997     3.9997    -0.0000
  3 H      0.8900     1.0000     0.1100     0.9611     0.9611     0.0000
  4 H      0.8878     1.0000     0.1122     0.9617     0.9617     0.0000
  5 H      0.8720     1.0000     0.1280     0.9549     0.9549     0.0000
  6 H      0.8566     1.0000     0.1434     0.9534     0.9534     0.0000

  Mayer bond orders larger than 0.100000
B(  0-O ,  1-C ) :   0.9693 B(  0-O ,  2-C ) :   0.9421 B(  1-C ,  2-C ) :   1.1664 
B(  1-C ,  3-H ) :   0.9380 B(  1-C ,  4-H ) :   0.9444 B(  2-C ,  5-H ) :   0.9310 
B(  2-C ,  6-H ) :   0.9349 

-------
TIMINGS
-------

Total SCF time: 0 days 0 hours 0 min 0 sec 

Total time                  ....       0.995 sec
Sum of individual times     ....       0.891 sec  ( 89.5%)

Fock matrix formation       ....       0.686 sec  ( 69.0%)
  Split-RI-J                ....       0.116 sec  ( 17.0% of F)
  Chain of spheres X        ....       0.499 sec  ( 72.8% of F)
  XC integration            ....       0.061 sec  (  8.9% of F)
    Basis function eval.    ....       0.017 sec  ( 28.1% of XC)
    Density eval.           ....       0.013 sec  ( 21.2% of XC)
    XC-Functional eval.     ....       0.004 sec  (  5.8% of XC)
    XC-Potential eval.      ....       0.021 sec  ( 33.9% of XC)
Diagonalization             ....       0.002 sec  (  0.2%)
Density matrix formation    ....       0.000 sec  (  0.0%)
Population analysis         ....       0.004 sec  (  0.4%)
Initial guess               ....       0.005 sec  (  0.5%)
Orbital Transformation      ....       0.000 sec  (  0.0%)
Orbital Orthonormalization  ....       0.001 sec  (  0.1%)
DIIS solution               ....       0.001 sec  (  0.1%)
SOSCF solution              ....       0.002 sec  (  0.2%)
Grid generation             ....       0.189 sec  ( 19.0%)

Maximum memory used throughout the entire SCF-calculation: 61.1 MB


           ************************************************************
           *        Program running with 8 parallel MPI-processes     *
           *              working on a common directory               *
           ************************************************************
------------------------------------------------------------------------------
                        ORCA TD-DFT/TDA CALCULATION
------------------------------------------------------------------------------

Input orbitals are from        ... ox_es1_B_orca0001.gbw
CI-vector output               ... ox_es1_B_orca0001.cis
Tamm-Dancoff approximation     ... operative
CIS-Integral strategy          ... AO-integrals
Integral handling              ... AO integral Direct
Max. core memory used          ... 3000 MB
Reference state                ... RHF
Generation of triplets         ... off
Follow IRoot                   ... off
Number of operators            ... 1
Orbital ranges used for CIS calculation:
 Operator 0:  Orbitals   3... 11  to  12...116
XAS localization array:
 Operator 0:  Orbitals  -1... -1

-------------------
XC-INTEGRATION GRID
-------------------

General Integration Accuracy     IntAcc      ... 3.467
Radial Grid Type                 RadialGrid  ... OptM3 with GC (2021)
Angular Grid (max. ang.)         AngularGrid ... 1 (Lebedev-50)
Angular grid pruning method      GridPruning ... 4 (adaptive)
Weight generation scheme         WeightScheme... Becke
Basis function cutoff            BFCut       ... 1.0000e-11
Integration weight cutoff        WCut        ... 1.0000e-14
Angular grids for H and He will be reduced by one unit
Partially contracted basis set               ... off
Rotationally invariant grid construction     ... off

Total number of grid points                  ...     4540
Total number of batches                      ...       74
Average number of points per batch           ...       61
Average number of grid points per atom       ...      649

---------------------
COSX-INTEGRATION GRID
---------------------

General Integration Accuracy     IntAcc      ... 3.067
Radial Grid Type                 RadialGrid  ... OptM3 with GC (2021)
Angular Grid (max. ang.)         AngularGrid ... 1 (Lebedev-50)
Angular grid pruning method      GridPruning ... 4 (adaptive)
Weight generation scheme         WeightScheme... Becke
Basis function cutoff            BFCut       ... 1.0000e-11
Integration weight cutoff        WCut        ... 1.0000e-14
Angular grids for H and He will be reduced by one unit
Partially contracted basis set               ... on
Rotationally invariant grid construction     ... off

Total number of grid points                  ...     2085
Total number of batches                      ...       37
Average number of points per batch           ...       56
Average number of grid points per atom       ...      298

---------------
TD-DFT XC SETUP
---------------

DFT calculation                         ... on
Name of the grid file                   ... ox_es1_B_orca0001.grid_cis.tmp
Exchange functional (TD-DFT)            ... PBE
   PBE kappa parameter  XKappa (TD-DFT) ...  0.804000
   PBE mue parameter   XMuePBE (TD-DFT) ...  0.219520
Correlation functional (TD-DFT)         ... PBE
   PBE beta parameter CBetaPBE (TD-DFT) ...  0.066725
 LDA part of GGA corr.  LDAOpt (TD-DFT) ... PW91-LDA
Hybrid DFT                              ... on
   Exchange mixing (TD-DFT)             ...  0.250
   GGA exch. scaling (TD-DFT)           ...  0.750
   GGA corr. scaling (TD-DFT)           ...  1.000

Building densities             ... done
Calculating rho(r) on the grid ... done
Building xc-kernel on the grid ... done
                    *** TD-DFT CALCULATION INITIALIZED ***

------------------------
DAVIDSON-DIAGONALIZATION
------------------------

Dimension of the eigenvalue problem            ...    945
Number of roots to be determined               ...      1
Maximum size of the expansion space            ...     10
Maximum number of iterations                   ...    100
Convergence tolerance for the residual         ...    2.500e-07
Convergence tolerance for the energies         ...    2.500e-07
Orthogonality tolerance                        ...    1.000e-14
Level Shift                                    ...    0.000e+00
Constructing the preconditioner                ... o.k.
Building the initial guess                     ... o.k.
Number of trial vectors determined             ...     10


                       ****Iteration    0****

   Memory handling for direct AO based CIS:
   Memory per vector needed      ...     1 MB
   Memory needed                 ...     1 MB
   Memory available              ...  3000 MB
   Number of vectors per batch   ...  3000
   Number of batches             ...     1
   Time for densities:            0.000
   Time for RI-J (Direct):        0.802
   Time for K (COSX):             0.071
   Time for XC-Integration:       0.016
   Time for Sigma-Completion:     0.000
   Size of expansion space: 3
   Lowest Energy          :     0.208039470151
   Maximum Energy change  :     0.208039470151 (vector 0)
   Maximum residual norm  :     0.004207507732

                       ****Iteration    1****
   Time for densities:            0.000
   Time for RI-J (Direct):        0.710
   Time for K (COSX):             0.056
   Time for XC-Integration:       0.007
   Time for Sigma-Completion:     0.000
   Size of expansion space: 4
   Lowest Energy          :     0.204360482873
   Maximum Energy change  :     0.003678987278 (vector 0)
   Maximum residual norm  :     0.000222114344

                       ****Iteration    2****
   Time for densities:            0.000
   Time for RI-J (Direct):        0.012
   Time for K (COSX):             0.048
   Time for XC-Integration:       0.007
   Time for Sigma-Completion:     0.000
   Size of expansion space: 5
   Lowest Energy          :     0.204186086693
   Maximum Energy change  :     0.000174396180 (vector 0)
   Maximum residual norm  :     0.000041280892

                       ****Iteration    3****
   Time for densities:            0.000
   Time for RI-J (Direct):        0.012
   Time for K (COSX):             0.048
   Time for XC-Integration:       0.007
   Time for Sigma-Completion:     0.000
   Size of expansion space: 6
   Lowest Energy          :     0.204152593110
   Maximum Energy change  :     0.000033493583 (vector 0)
   Maximum residual norm  :     0.000002598848

                       ****Iteration    4****
   Time for densities:            0.000
   Time for RI-J (Direct):        0.012
   Time for K (COSX):             0.048
   Time for XC-Integration:       0.007
   Time for Sigma-Completion:     0.000
   Size of expansion space: 7
   Lowest Energy          :     0.204147720510
   Maximum Energy change  :     0.000004872599 (vector 0)
   Maximum residual norm  :     0.000000315143

                       ****Iteration    5****
   Time for densities:            0.000
   Time for RI-J (Direct):        0.012
   Time for K (COSX):             0.048
   Time for XC-Integration:       0.007
   Time for Sigma-Completion:     0.000
   Size of expansion space: 8
   Lowest Energy          :     0.204147427052
   Maximum Energy change  :     0.000000293459 (vector 0)
   Maximum residual norm  :     0.000000015072

      *** CONVERGENCE OF RESIDUAL NORM REACHED ***

Storing the converged CI vectors               ... ox_es1_B_orca0001.cis1

                 *** DAVIDSON DONE ***

Total time for solving the CIS problem:     1.949sec

------------------------------------
TD-DFT/TDA EXCITED STATES (SINGLETS)
------------------------------------

the weight of the individual excitations are printed if larger than 1.0e-02

STATE  1:  E=   0.204147 au      5.555 eV    44805.2 cm**-1 <S**2> =   0.000000
    11a ->  12a  :     0.981755 (c= -0.99083536)


-----------------------------
TD-DFT/TDA-EXCITATION SPECTRA
-----------------------------

Center of mass = ( -0.1964,  0.0221,  0.0663)
Calculating the Dipole integrals                  ... done
Transforming integrals                            ... done
Calculating the Linear Momentum integrals         ... done
Transforming integrals                            ... done
Calculating angular momentum integrals            ... done
Transforming integrals                            ... done

-----------------------------------------------------------------------------
         ABSORPTION SPECTRUM VIA TRANSITION ELECTRIC DIPOLE MOMENTS
-----------------------------------------------------------------------------
State   Energy    Wavelength  fosc         T2        TX        TY        TZ  
        (cm-1)      (nm)                 (au**2)    (au)      (au)      (au) 
-----------------------------------------------------------------------------
   1   44805.2    223.2   0.001708403   0.01255  -0.00535   0.00388  -0.11184

-----------------------------------------------------------------------------
         ABSORPTION SPECTRUM VIA TRANSITION VELOCITY DIPOLE MOMENTS
-----------------------------------------------------------------------------
State   Energy    Wavelength   fosc        P2         PX        PY        PZ  
        (cm-1)      (nm)                 (au**2)     (au)      (au)      (au) 
-----------------------------------------------------------------------------
   1   44805.2    223.2   0.015652991   0.00479  -0.00046   0.00087   0.06923

-------------------------------------------------------------------
                             CD SPECTRUM
-------------------------------------------------------------------
State  Energy     Wavelength     R         MX        MY        MZ   
       (cm-1)       (nm)     (1e40*cgs)   (au)      (au)      (au)  
-------------------------------------------------------------------
   1   44805.2    223.2      0.62896  -0.08611   0.18209  -0.00150

-------------------------------------------------------------------
         CD SPECTRUM VIA TRANSITION VELOCITY DIPOLE MOMENTS        
-------------------------------------------------------------------
State  Energy     Wavelength     R         MX        MY        MZ   
       (cm-1)       (nm)     (1e40*cgs)   (au)      (au)      (au)  
-------------------------------------------------------------------
   1   44805.2    223.2      0.21963  -0.08611   0.18209  -0.00150

Total run time:        2.452 sec

           *** ORCA-CIS/TD-DFT FINISHED WITHOUT ERROR ***

Maximum memory used throughout the entire CIS-calculation: 49.4 MB

-----------------------
CIS/TD-DFT TOTAL ENERGY
-----------------------

    E(SCF)  =   -153.619781558 Eh
    DE(CIS) =      0.204147427 Eh (Root  1)
    ----------------------------- ---------
    E(tot)  =   -153.415634130 Eh



-------------------------------------------------------------------------------
                          DFT DISPERSION CORRECTION                            
                                                                               
                              DFTD3 V3.1  Rev 1                                
                          USING Becke-Johnson damping                          
-------------------------------------------------------------------------------
The PBE0 functional is recognized
Active option DFTDOPT                   ...         4   

molecular C6(AA) [au] = 352.298347 


            DFT-D V3
 parameters
 s6 scaling factor         :     1.0000 
 a1 scaling factor         :     0.4145 
 s8 scaling factor         :     1.2177 
 a2 scaling factor         :     4.8593 
 ad hoc parameters k1-k3   :    16.0000     1.3333    -4.0000 

 Edisp/kcal,au: -1.510088836493  -0.002406479484 
 E6   /kcal   :  -0.989596359 
 E8   /kcal   :  -0.520492477 
 % E8         :  34.467672685 

-------------------------   ----------------
Dispersion correction           -0.002406479
-------------------------   ----------------


-------------------------   --------------------
FINAL SINGLE POINT ENERGY      -153.418040609979
-------------------------   --------------------



           ************************************************************
           *        Program running with 8 parallel MPI-processes     *
           *              working on a common directory               *
           ************************************************************
------------------------------------------------------------------------------
                         ORCA SCF GRADIENT CALCULATION
------------------------------------------------------------------------------


------------------------
TD-DFT GRADIENT XC SETUP
------------------------

Building densities                     ... done
Calculating rho(r) on the grid         ... done
Building xc-kernel on the grid         ... done
Building xc 3rd derivative on the grid      ... done
                *** TD-DFT GRADIENT CALCULATION INITIALIZED ***

-------------------
TD-DFT/TDA GRADIENT
-------------------

Reference wavefunction             ... RHF
State of interest                  ... 1
Basis dimension                    ... 117
DFT-XC contribution needed         ... YES
RI-approximation                   ... ON
CIS-vectors being read from        ... ox_es1_B_orca0001.cis

 => Number of Vectors found: 1
 => Orbital Window: 3...11 -> 12...116

Reading the CIS file                     ... done
Norm of the CI vector                    ... 1.000000000
Making the CIS (pseudo)densities         ... done
Making operators G(D) and Q(T)           ... done
Transforming the Fock operators          ... done
Making the frozen-core relaxed density   ... done
Constructing the G(H) operator           ... done
Transforming the G(H) operator           ... done
Calculating the CIS Lagrangian           ... done
Solving the Z-vector equations           ... done
Finalizing the relaxed density           ... done
Storing the relaxed density              ... done
Constructing the G(Z) operator           ... done
Transforming the G(Z) operator           ... done
Making the W-matrix                      ... done
Finalizing the W-matrix                  ... done
Transforming the W-matrix                ... done
Nuclear repulsion gradient               ... done
One-Electron gradient                    ... done
Dispersion correction                    ... done
Prescreening matrices                    ... done
COSX-gradient                            ... done
Coulomb gradient (RI)                    ... done
Exchange-Correlation gradient            ... done

                 ---------------------------
                 EXCITED STATE GRADIENT DONE
                 ---------------------------

------------------
CARTESIAN GRADIENT
------------------

   1   O   :    0.096755071   -0.112960940    0.000917799
   2   C   :    0.122046486   -0.027383642   -0.012675588
   3   C   :   -0.273549930    0.154152885    0.011215913
   4   H   :   -0.006974457   -0.000272301    0.022832799
   5   H   :    0.001326462    0.005470752   -0.013380078
   6   H   :    0.025900652   -0.011054153   -0.021235992
   7   H   :    0.034425729   -0.007835697    0.012307485

Difference to translation invariance:
           :   -0.0000699863    0.0001169058   -0.0000176621

Difference to rotation invariance:
           :    0.0000301137    0.0000074892   -0.0004035580

Norm of the cartesian gradient     ...    0.3742588537
RMS gradient                       ...    0.0816699775
MAX gradient                       ...    0.2735499299

------------------------------------------------------------------------------
                  RELAXED CIS/TDA DENSITY POPULATION ANALYSIS
                                   IROOT 1
------------------------------------------------------------------------------
------------------------------------------------------------------------------
                           ORCA POPULATION ANALYSIS
------------------------------------------------------------------------------
Input electron density              ... ox_es1_B_orca0001.cisp
BaseName (.gbw .S,...)              ... ox_es1_B_orca0001

                    ********************************
                    * MULLIKEN POPULATION ANALYSIS *
                    ********************************

-----------------------
MULLIKEN ATOMIC CHARGES
-----------------------
   0 O :   -0.007718
   1 C :   -0.054678
   2 C :   -0.540440
   3 H :    0.156032
   4 H :    0.156090
   5 H :    0.138593
   6 H :    0.152122
Sum of atomic charges:    0.0000000

--------------------------------
MULLIKEN REDUCED ORBITAL CHARGES
--------------------------------
  0 O s       :     3.818306  s :     3.818306
      pz      :     1.077774  p :     4.157745
      px      :     1.698268
      py      :     1.381703
      dz2     :     0.003245  d :     0.030508
      dxz     :     0.001594
      dyz     :     0.006057
      dx2y2   :     0.008973
      dxy     :     0.010640
      f0      :     0.000047  f :     0.001159
      f+1     :    -0.000074
      f-1     :     0.000119
      f+2     :     0.000151
      f-2     :     0.000091
      f+3     :     0.000464
      f-3     :     0.000361
  1 C s       :     3.165950  s :     3.165950
      pz      :     1.017227  p :     2.755321
      px      :     0.997630
      py      :     0.740464
      dz2     :     0.011741  d :     0.122722
      dxz     :     0.030060
      dyz     :     0.017203
      dx2y2   :     0.029628
      dxy     :     0.034089
      f0      :     0.001095  f :     0.010685
      f+1     :     0.001222
      f-1     :     0.000606
      f+2     :     0.001545
      f-2     :     0.000480
      f+3     :     0.002306
      f-3     :     0.003433
  2 C s       :     3.294524  s :     3.294524
      pz      :     1.071983  p :     3.154719
      px      :     0.909049
      py      :     1.173688
      dz2     :     0.002419  d :     0.082299
      dxz     :     0.018956
      dyz     :     0.003323
      dx2y2   :     0.030573
      dxy     :     0.027028
      f0      :     0.000740  f :     0.008898
      f+1     :     0.000793
      f-1     :     0.000686
      f+2     :     0.001396
      f-2     :     0.000599
      f+3     :     0.002419
      f-3     :     0.002265
  3 H s       :     0.824187  s :     0.824187
      pz      :     0.010352  p :     0.019780
      px      :     0.006382
      py      :     0.003047
  4 H s       :     0.823165  s :     0.823165
      pz      :     0.011381  p :     0.020745
      px      :     0.006004
      py      :     0.003360
  5 H s       :     0.838729  s :     0.838729
      pz      :     0.008686  p :     0.022678
      px      :     0.006508
      py      :     0.007485
  6 H s       :     0.824443  s :     0.824443
      pz      :     0.007749  p :     0.023435
      px      :     0.007864
      py      :     0.007822


                     *******************************
                     * LOEWDIN POPULATION ANALYSIS *
                     *******************************

----------------------
LOEWDIN ATOMIC CHARGES
----------------------
   0 O :    0.273518
   1 C :   -0.389823
   2 C :   -0.490190
   3 H :    0.168113
   4 H :    0.166921
   5 H :    0.136686
   6 H :    0.134775

-------------------------------
LOEWDIN REDUCED ORBITAL CHARGES
-------------------------------
  0 O s       :     3.524186  s :     3.524186
      pz      :     1.034636  p :     4.113559
      px      :     1.632048
      py      :     1.446874
      dz2     :     0.013094  d :     0.083963
      dxz     :     0.003980
      dyz     :     0.012917
      dx2y2   :     0.022344
      dxy     :     0.031627
      f0      :     0.000464  f :     0.004775
      f+1     :     0.000101
      f-1     :     0.000701
      f+2     :     0.000391
      f-2     :     0.000361
      f+3     :     0.001461
      f-3     :     0.001296
  1 C s       :     2.806392  s :     2.806392
      pz      :     0.974131  p :     2.926336
      px      :     1.138572
      py      :     0.813633
      dz2     :     0.063465  d :     0.562716
      dxz     :     0.159464
      dyz     :     0.047748
      dx2y2   :     0.162020
      dxy     :     0.130019
      f0      :     0.008903  f :     0.094380
      f+1     :     0.006626
      f-1     :     0.007558
      f+2     :     0.012081
      f-2     :     0.001901
      f+3     :     0.026747
      f-3     :     0.030564
  2 C s       :     2.850074  s :     2.850074
      pz      :     1.036499  p :     3.106040
      px      :     1.083173
      py      :     0.986367
      dz2     :     0.052367  d :     0.469929
      dxz     :     0.153250
      dyz     :     0.017579
      dx2y2   :     0.104116
      dxy     :     0.142617
      f0      :     0.005741  f :     0.064148
      f+1     :     0.006292
      f-1     :     0.006660
      f+2     :     0.007329
      f-2     :     0.002347
      f+3     :     0.019186
      f-3     :     0.016593
  3 H s       :     0.779275  s :     0.779275
      pz      :     0.028760  p :     0.052613
      px      :     0.015653
      py      :     0.008199
  4 H s       :     0.777209  s :     0.777209
      pz      :     0.031508  p :     0.055869
      px      :     0.015202
      py      :     0.009160
  5 H s       :     0.802509  s :     0.802509
      pz      :     0.025799  p :     0.060804
      px      :     0.015431
      py      :     0.019573
  6 H s       :     0.801613  s :     0.801613
      pz      :     0.024046  p :     0.063612
      px      :     0.019407
      py      :     0.020158


                      *****************************
                      * MAYER POPULATION ANALYSIS *
                      *****************************

  NA   - Mulliken gross atomic population
  ZA   - Total nuclear charge
  QA   - Mulliken gross atomic charge
  VA   - Mayer's total valence
  BVA  - Mayer's bonded valence
  FA   - Mayer's free valence

  ATOM       NA         ZA         QA         VA         BVA        FA
  0 O      8.0077     8.0000    -0.0077     1.8558     1.0197     0.8361
  1 C      6.0547     6.0000    -0.0547     4.0414     3.9287     0.1128
  2 C      6.5404     6.0000    -0.5404     3.9945     3.1838     0.8106
  3 H      0.8440     1.0000     0.1560     0.9580     0.9128     0.0452
  4 H      0.8439     1.0000     0.1561     0.9581     0.9113     0.0468
  5 H      0.8614     1.0000     0.1386     0.9764     0.9615     0.0150
  6 H      0.8479     1.0000     0.1521     0.9787     0.9625     0.0162

  Mayer bond orders larger than 0.100000
B(  0-O ,  1-C ) :   0.9553 B(  1-C ,  2-C ) :   1.2040 B(  1-C ,  3-H ) :   0.8800 
B(  1-C ,  4-H ) :   0.8847 B(  2-C ,  5-H ) :   0.9476 B(  2-C ,  6-H ) :   0.9478 



-------
TIMINGS
-------

Total TD-DFT gradient time         ...        5.144 sec

Fock matrix formation       ....       0.833 sec  ( 16.2%)
  Coulomb formation         ....       0.683 sec  ( 81.9% of F)
  RI-J                      ....       0.303 sec  ( 36.4% of F)
  Chain of spheres X        ....       0.379 sec  ( 45.5% of F)
  XC integration            ....       0.151 sec  ( 18.1% of F)
Z-vector equation           ....       1.432 sec  ( 27.8%)
One electron gradient       ....       0.033 sec  (  0.6%)
Prescreening matrices       ....       0.155 sec  (  3.0%)
RI-J Coulomb gradient       ....       0.263 sec  (  5.1%)
COSX gradient               ....       0.332 sec  (  6.5%)
XC gradient                 ....       1.661 sec  ( 32.3%)

Maximum memory used throughout the entire SCFGRAD-calculation: 130.3 MB

                            ***************************************
                            *     ORCA property calculations      *
                            ***************************************

                                    ---------------------
                                    Active property flags
                                    ---------------------
   (+) Dipole Moment


------------------------------------------------------------------------------
                       ORCA ELECTRIC PROPERTIES CALCULATION
------------------------------------------------------------------------------

Dipole Moment Calculation                       ... on
Quadrupole Moment Calculation                   ... off
Polarizability Calculation                      ... off
GBWName                                         ... ox_es1_B_orca0001.gbw
Electron density                                ... ox_es1_B_orca0001.scfp
The origin for moment calculation is the CENTER OF MASS  = (-0.196393,  0.022053  0.066271)

-------------
DIPOLE MOMENT
-------------
                                X             Y             Z
Electronic contribution:     -0.30802       1.54407       0.07357
Nuclear contribution   :      0.53585      -2.49380      -0.07539
                        -----------------------------------------
Total Dipole Moment    :      0.22783      -0.94973      -0.00182
                        -----------------------------------------
Magnitude (a.u.)       :      0.97668
Magnitude (Debye)      :      2.48252



--------------------
Rotational spectrum 
--------------------
 
Rotational constants in cm-1:     0.934058     0.647685     0.452212 
Rotational constants in MHz : 28002.360669 19417.108783 13556.988511 

 Dipole components along the rotational axes: 
x,y,z [a.u.] :    -0.891314    -0.399185    -0.010614 
x,y,z [Debye]:    -2.265540    -1.014648    -0.026980 

 

                        *** CIS RELAXED DENSITY ***

------------------------------------------------------------------------------
                       ORCA ELECTRIC PROPERTIES CALCULATION
------------------------------------------------------------------------------

Dipole Moment Calculation                       ... on
Quadrupole Moment Calculation                   ... off
Polarizability Calculation                      ... off
GBWName                                         ... ox_es1_B_orca0001.gbw
Electron density                                ... ox_es1_B_orca0001.cisp
The origin for moment calculation is the CENTER OF MASS  = (-0.196393,  0.022053  0.066271)

-------------
DIPOLE MOMENT
-------------
                                X             Y             Z
Electronic contribution:     -1.06258       2.15094       0.06247
Nuclear contribution   :      0.53585      -2.49380      -0.07539
                        -----------------------------------------
Total Dipole Moment    :     -0.52673      -0.34286      -0.01292
                        -----------------------------------------
Magnitude (a.u.)       :      0.62862
Magnitude (Debye)      :      1.59782



--------------------
Rotational spectrum 
--------------------
 
Rotational constants in cm-1:     0.934058     0.647685     0.452212 
Rotational constants in MHz : 28002.360669 19417.108783 13556.988511 

 Dipole components along the rotational axes: 
x,y,z [a.u.] :     0.050001    -0.626546    -0.010095 
x,y,z [Debye]:     0.127093    -1.592554    -0.025659 

 

Timings for individual modules:

Sum of individual times         ...        9.469 sec (=   0.158 min)
GTO integral calculation        ...        0.258 sec (=   0.004 min)   2.7 %
SCF iterations                  ...        1.150 sec (=   0.019 min)  12.1 %
CIS module                      ...        2.724 sec (=   0.045 min)  28.8 %
SCF Gradient evaluation         ...        5.337 sec (=   0.089 min)  56.4 %
                             ****ORCA TERMINATED NORMALLY****
TOTAL RUN TIME: 0 days 0 hours 0 minutes 9 seconds 848 msec
