
                                 *****************
                                 * O   R   C   A *
                                 *****************

                                            #,                                       
                                            ###                                      
                                            ####                                     
                                            #####                                    
                                            ######                                   
                                           ########,                                 
                                     ,,################,,,,,                         
                               ,,#################################,,                 
                          ,,##########################################,,             
                       ,#########################################, ''#####,          
                    ,#############################################,,   '####,        
                  ,##################################################,,,,####,       
                ,###########''''           ''''###############################       
              ,#####''   ,,,,##########,,,,          '''####'''          '####       
            ,##' ,,,,###########################,,,                        '##       
           ' ,,###''''                  '''############,,,                           
         ,,##''                                '''############,,,,        ,,,,,,###''
      ,#''                                            '''#######################'''  
     '                                                          ''''####''''         
             ,#######,   #######,   ,#######,      ##                                
            ,#'     '#,  ##    ##  ,#'     '#,    #''#        ######   ,####,        
            ##       ##  ##   ,#'  ##            #'  '#       #        #'  '#        
            ##       ##  #######   ##           ,######,      #####,   #    #        
            '#,     ,#'  ##    ##  '#,     ,#' ,#      #,         ##   #,  ,#        
             '#######'   ##     ##  '#######'  #'      '#     #####' # '####'        



                  #######################################################
                  #                        -***-                        #
                  #          Department of theory and spectroscopy      #
                  #    Directorship and core code : Frank Neese         #
                  #        Max Planck Institute fuer Kohlenforschung    #
                  #                Kaiser Wilhelm Platz 1               #
                  #                 D-45470 Muelheim/Ruhr               #
                  #                      Germany                        #
                  #                                                     #
                  #                  All rights reserved                #
                  #                        -***-                        #
                  #######################################################


                         Program Version 5.0.2 -  RELEASE  -


 With contributions from (in alphabetic order):
   Daniel Aravena         : Magnetic Suceptibility
   Michael Atanasov       : Ab Initio Ligand Field Theory (pilot matlab implementation)
   Alexander A. Auer      : GIAO ZORA, VPT2 properties, NMR spectrum
   Ute Becker             : Parallelization
   Giovanni Bistoni       : ED, misc. LED, open-shell LED, HFLD
   Martin Brehm           : Molecular dynamics
   Dmytro Bykov           : SCF Hessian
   Vijay G. Chilkuri      : MRCI spin determinant printing, contributions to CSF-ICE
   Dipayan Datta          : RHF DLPNO-CCSD density
   Achintya Kumar Dutta   : EOM-CC, STEOM-CC
   Dmitry Ganyushin       : Spin-Orbit,Spin-Spin,Magnetic field MRCI
   Miquel Garcia          : C-PCM and meta-GGA Hessian, CC/C-PCM, Gaussian charge scheme
   Yang Guo               : DLPNO-NEVPT2, F12-NEVPT2, CIM, IAO-localization
   Andreas Hansen         : Spin unrestricted coupled pair/coupled cluster methods
   Benjamin Helmich-Paris : MC-RPA, TRAH-SCF, COSX integrals
   Lee Huntington         : MR-EOM, pCC
   Robert Izsak           : Overlap fitted RIJCOSX, COSX-SCS-MP3, EOM
   Marcus Kettner         : VPT2
   Christian Kollmar      : KDIIS, OOCD, Brueckner-CCSD(T), CCSD density, CASPT2, CASPT2-K
   Simone Kossmann        : Meta GGA functionals, TD-DFT gradient, OOMP2, MP2 Hessian
   Martin Krupicka        : Initial AUTO-CI
   Lucas Lang             : DCDCAS
   Marvin Lechner         : AUTO-CI (C++ implementation), FIC-MRCC
   Dagmar Lenk            : GEPOL surface, SMD
   Dimitrios Liakos       : Extrapolation schemes; Compound Job, initial MDCI parallelization
   Dimitrios Manganas     : Further ROCIS development; embedding schemes
   Dimitrios Pantazis     : SARC Basis sets
   Anastasios Papadopoulos: AUTO-CI, single reference methods and gradients
   Taras Petrenko         : DFT Hessian,TD-DFT gradient, ASA, ECA, R-Raman, ABS, FL, XAS/XES, NRVS
   Peter Pinski           : DLPNO-MP2, DLPNO-MP2 Gradient
   Christoph Reimann      : Effective Core Potentials
   Marius Retegan         : Local ZFS, SOC
   Christoph Riplinger    : Optimizer, TS searches, QM/MM, DLPNO-CCSD(T), (RO)-DLPNO pert. Triples
   Tobias Risthaus        : Range-separated hybrids, TD-DFT gradient, RPA, STAB
   Michael Roemelt        : Original ROCIS implementation
   Masaaki Saitow         : Open-shell DLPNO-CCSD energy and density
   Barbara Sandhoefer     : DKH picture change effects
   Avijit Sen             : IP-ROCIS
   Kantharuban Sivalingam : CASSCF convergence, NEVPT2, FIC-MRCI
   Bernardo de Souza      : ESD, SOC TD-DFT
   Georgi Stoychev        : AutoAux, RI-MP2 NMR, DLPNO-MP2 response
   Willem Van den Heuvel  : Paramagnetic NMR
   Boris Wezisla          : Elementary symmetry handling
   Frank Wennmohs         : Technical directorship


 We gratefully acknowledge several colleagues who have allowed us to
 interface, adapt or use parts of their codes:
   Stefan Grimme, W. Hujo, H. Kruse, P. Pracht,  : VdW corrections, initial TS optimization,
                  C. Bannwarth, S. Ehlert          DFT functionals, gCP, sTDA/sTD-DF
   Ed Valeev, F. Pavosevic, A. Kumar             : LibInt (2-el integral package), F12 methods
   Garnet Chan, S. Sharma, J. Yang, R. Olivares  : DMRG
   Ulf Ekstrom                                   : XCFun DFT Library
   Mihaly Kallay                                 : mrcc  (arbitrary order and MRCC methods)
   Jiri Pittner, Ondrej Demel                    : Mk-CCSD
   Frank Weinhold                                : gennbo (NPA and NBO analysis)
   Christopher J. Cramer and Donald G. Truhlar   : smd solvation model
   Lars Goerigk                                  : TD-DFT with DH, B97 family of functionals
   V. Asgeirsson, H. Jonsson                     : NEB implementation
   FAccTs GmbH                                   : IRC, NEB, NEB-TS, DLPNO-Multilevel, CI-OPT
                                                   MM, QMMM, 2- and 3-layer-ONIOM, Crystal-QMMM,
                                                   LR-CPCM, SF, NACMEs, symmetry and pop. for TD-DFT,
                                                   nearIR, NL-DFT gradient (VV10), updates on ESD,
                                                   ML-optimized integration grids
   S Lehtola, MJT Oliveira, MAL Marques          : LibXC Library
   Liviu Ungur et al                             : ANISO software


 Your calculation uses the libint2 library for the computation of 2-el integrals
 For citations please refer to: http://libint.valeyev.net

 Your ORCA version has been built with support for libXC version: 5.1.0
 For citations please refer to: https://tddft.org/programs/libxc/

 This ORCA versions uses:
   CBLAS   interface :  Fast vector & matrix operations
   LAPACKE interface :  Fast linear algebra routines
   SCALAPACK package :  Parallel linear algebra routines
   Shared memory     :  Shared parallel matrices
   BLAS/LAPACK       :  OpenBLAS 0.3.15  USE64BITINT DYNAMIC_ARCH NO_AFFINITY SkylakeX SINGLE_THREADED
        Core in use  :  SkylakeX
   Copyright (c) 2011-2014, The OpenBLAS Project


Your calculation utilizes the atom-pairwise dispersion correction
with the Becke-Johnson damping scheme (D3BJ)
Cite in your paper:
S.Grimme, S.Ehrlich, L.Goerigk, J Comput Chem, (2011), 32, 1456–1465 
S.Grimme, J.Antony, S.Ehrlich and H.Krieg, J.Chem.Phys., 132, (2010), 154104 
   

================================================================================

----- Orbital basis set information -----
Your calculation utilizes the basis: def2-TZVP
   F. Weigend and R. Ahlrichs, Phys. Chem. Chem. Phys. 7, 3297 (2005).

----- AuxJ basis set information -----
Your calculation utilizes the auxiliary basis: def2/J
   F. Weigend, Phys. Chem. Chem. Phys. 8, 1057 (2006).

================================================================================
                                        WARNINGS
                       Please study these warnings very carefully!
================================================================================

INFO   : Checking CIS options ...

WARNING: CIS/ROCIS methods need fully converged wavefunctions
  ===> : Setting SCFConvForced true
         You can overwrite this default with %scf ConvForced false 


INFO   : the flag for use of the SHARK integral package has been found!

================================================================================
                                       INPUT FILE
================================================================================
NAME = ox_es1_A_orca0006.inp
|  1> ! engrad PBE0 D3BJ def2-TZVP  
|  2> %pal nprocs 8 end
|  3> %maxcore 3000
|  4> 
|  5> %tddft
|  6>   nroots 1
|  7>   tda true
|  8>   Iroot 1
|  9>   end 
| 10> *xyz 0 1 
| 11> O   -0.04952676625653442 0.7386094235198615 0.004982678254382061
| 12> C   -0.7540633727058099 -0.5245536615533066 0.0034281487403013664
| 13> C   0.6757743543136947 -0.4233408684682409 -0.04597121171169016
| 14> H   -1.186326209749123 -0.7074334746168118 0.9038731441897162
| 15> H   -1.2231469091315166 -0.7298141258216978 -0.9086032232697936
| 16> H   1.3291799577141212 -0.7486450217280614 -0.9107445270733848
| 17> H   1.2768170097124212 -0.6291796664111344 0.8581286344560959
| 18> *
| 19> 
| 20>                          ****END OF INPUT****
================================================================================

                     *******************************
                     * Energy+Gradient Calculation *
                     *******************************

---------------------------------
CARTESIAN COORDINATES (ANGSTROEM)
---------------------------------
  O     -0.049527    0.738609    0.004983
  C     -0.754063   -0.524554    0.003428
  C      0.675774   -0.423341   -0.045971
  H     -1.186326   -0.707433    0.903873
  H     -1.223147   -0.729814   -0.908603
  H      1.329180   -0.748645   -0.910745
  H      1.276817   -0.629180    0.858129

----------------------------
CARTESIAN COORDINATES (A.U.)
----------------------------
  NO LB      ZA    FRAG     MASS         X           Y           Z
   0 O     8.0000    0    15.999   -0.093592    1.395770    0.009416
   1 C     6.0000    0    12.011   -1.424973   -0.991263    0.006478
   2 C     6.0000    0    12.011    1.277028   -0.799998   -0.086873
   3 H     1.0000    0     1.008   -2.241832   -1.336856    1.708073
   4 H     1.0000    0     1.008   -2.311413   -1.379149   -1.717011
   5 H     1.0000    0     1.008    2.511786   -1.414734   -1.721058
   6 H     1.0000    0     1.008    2.412834   -1.188977    1.621628

--------------------------------
INTERNAL COORDINATES (ANGSTROEM)
--------------------------------
 O      0   0   0     0.000000000000     0.00000000     0.00000000
 C      1   0   0     1.446359300409     0.00000000     0.00000000
 C      1   2   0     1.370688329072    61.14291854     0.00000000
 H      2   1   3     1.015429651007   111.32738041   110.15257107
 H      2   1   3     1.045931377227   113.00356295   253.63507314
 H      3   1   2     1.131633580999   125.28379334   115.53300697
 H      3   1   2     1.104997020896   114.53936934   247.60106775

---------------------------
INTERNAL COORDINATES (A.U.)
---------------------------
 O      0   0   0     0.000000000000     0.00000000     0.00000000
 C      1   0   0     2.733222969024     0.00000000     0.00000000
 C      1   2   0     2.590225556908    61.14291854     0.00000000
 H      2   1   3     1.918883948667   111.32738041   110.15257107
 H      2   1   3     1.976523857834   113.00356295   253.63507314
 H      3   1   2     2.138477552037   125.28379334   115.53300697
 H      3   1   2     2.088141748291   114.53936934   247.60106775

---------------------
BASIS SET INFORMATION
---------------------
There are 3 groups of distinct atoms

 Group   1 Type O   : 11s6p2d1f contracted to 5s3p2d1f pattern {62111/411/11/1}
 Group   2 Type C   : 11s6p2d1f contracted to 5s3p2d1f pattern {62111/411/11/1}
 Group   3 Type H   : 5s1p contracted to 3s1p pattern {311/1}

Atom   0O    basis set group =>   1
Atom   1C    basis set group =>   2
Atom   2C    basis set group =>   2
Atom   3H    basis set group =>   3
Atom   4H    basis set group =>   3
Atom   5H    basis set group =>   3
Atom   6H    basis set group =>   3
---------------------------------
AUXILIARY/J BASIS SET INFORMATION
---------------------------------
There are 3 groups of distinct atoms

 Group   1 Type O   : 12s5p4d2f1g contracted to 6s4p3d1f1g pattern {711111/2111/211/2/1}
 Group   2 Type C   : 12s5p4d2f1g contracted to 6s4p3d1f1g pattern {711111/2111/211/2/1}
 Group   3 Type H   : 5s2p1d contracted to 3s1p1d pattern {311/2/1}

Atom   0O    basis set group =>   1
Atom   1C    basis set group =>   2
Atom   2C    basis set group =>   2
Atom   3H    basis set group =>   3
Atom   4H    basis set group =>   3
Atom   5H    basis set group =>   3
Atom   6H    basis set group =>   3

Checking for AutoStart:
The File: ox_es1_A_orca0006.gbw exists
Trying to determine its content:
     ... Fine, the file contains calculation information
     ... Fine, the calculation information was read
     ... Fine, the file contains a basis set
     ... Fine, the basis set was read
     ... Fine, the file contains a geometry
     ... Fine, the geometry was read
     ... Fine, the file contains a set of orbitals
     ... Fine, the orbitals can be read
     => possible old guess file was deleted
     => GBW file was renamed to GES file
     => GES file is set as startup file
     => Guess is set to MORead
     ... now leaving AutoStart



           ************************************************************
           *        Program running with 8 parallel MPI-processes     *
           *              working on a common directory               *
           ************************************************************
------------------------------------------------------------------------------
                           ORCA GTO INTEGRAL CALCULATION
                           -- RI-GTO INTEGRALS CHOSEN --
------------------------------------------------------------------------------
------------------------------------------------------------------------------
                   ___                                                        
                  /   \      - P O W E R E D   B Y -                         
                 /     \                                                     
                 |  |  |   _    _      __       _____    __    __             
                 |  |  |  | |  | |    /  \     |  _  \  |  |  /  |          
                  \  \/   | |  | |   /    \    | | | |  |  | /  /          
                 / \  \   | |__| |  /  /\  \   | |_| |  |  |/  /          
                |  |  |   |  __  | /  /__\  \  |    /   |      \           
                |  |  |   | |  | | |   __   |  |    \   |  |\   \          
                \     /   | |  | | |  |  |  |  | |\  \  |  | \   \       
                 \___/    |_|  |_| |__|  |__|  |_| \__\ |__|  \__/        
                                                                              
                      - O R C A' S   B I G   F R I E N D -                    
                                      &                                       
                       - I N T E G R A L  F E E D E R -                       
                                                                              
 v1 FN, 2020, v2 2021                                                         
------------------------------------------------------------------------------


Reading SHARK input file ox_es1_A_orca0006.SHARKINP.tmp ... ok
----------------------
SHARK INTEGRAL PACKAGE
----------------------

Number of atoms                             ...      7
Number of basis functions                   ...    117
Number of shells                            ...     49
Maximum angular momentum                    ...      3
Integral batch strategy                     ... SHARK/LIBINT Hybrid
RI-J (if used) integral strategy            ... SPLIT-RIJ (Revised 2003 algorithm where possible)
Printlevel                                  ...      1
Contraction scheme used                     ... SEGMENTED contraction
Coulomb Range Separation                    ... NOT USED
Exchange Range Separation                   ... NOT USED
Finite Nucleus Model                        ... NOT USED
Auxiliary Coulomb fitting basis             ... AVAILABLE
   # of basis functions in Aux-J            ...    191
   # of shells in Aux-J                     ...     65
   Maximum angular momentum in Aux-J        ...      4
Auxiliary J/K fitting basis                 ... NOT available
Auxiliary Correlation fitting basis         ... NOT available
Auxiliary 'external' fitting basis          ... NOT available
Integral threshold                          ...     2.500000e-11
Primitive cut-off                           ...     2.500000e-12
Primitive pair pre-selection threshold      ...     2.500000e-12

Calculating pre-screening integrals         ... done (  0.0 sec) Dimension = 49
Organizing shell pair data                  ... done (  0.0 sec)
Shell pair information
Total number of shell pairs                 ...      1225
Shell pairs after pre-screening             ...      1221
Total number of primitive shell pairs       ...      3648
Primitive shell pairs kept                  ...      3160
          la=0 lb=0:    374 shell pairs
          la=1 lb=0:    351 shell pairs
          la=1 lb=1:     91 shell pairs
          la=2 lb=0:    162 shell pairs
          la=2 lb=1:     78 shell pairs
          la=2 lb=2:     21 shell pairs
          la=3 lb=0:     81 shell pairs
          la=3 lb=1:     39 shell pairs
          la=3 lb=2:     18 shell pairs
          la=3 lb=3:      6 shell pairs

Calculating one electron integrals          ... done (  0.0 sec)
Calculating RI/J V-Matrix + Cholesky decomp.... done (  0.0 sec)
Calculating Nuclear repulsion               ... done (  0.0 sec) ENN=     76.435653432263 Eh

SHARK setup successfully completed in   0.1 seconds

Maximum memory used throughout the entire GTOINT-calculation: 14.9 MB


           ************************************************************
           *        Program running with 8 parallel MPI-processes     *
           *              working on a common directory               *
           ************************************************************
-------------------------------------------------------------------------------
                                 ORCA SCF
-------------------------------------------------------------------------------

------------
SCF SETTINGS
------------
Hamiltonian:
 Density Functional     Method          .... DFT(GTOs)
 Exchange Functional    Exchange        .... PBE
   PBE kappa parameter   XKappa         ....  0.804000
   PBE mue parameter    XMuePBE         ....  0.219520
 Correlation Functional Correlation     .... PBE
   PBE beta parameter  CBetaPBE         ....  0.066725
 LDA part of GGA corr.  LDAOpt          .... PW91-LDA
 Gradients option       PostSCFGGA      .... off
 Hybrid DFT is turned on
   Fraction HF Exchange ScalHFX         ....  0.250000
   Scaling of DF-GGA-X  ScalDFX         ....  0.750000
   Scaling of DF-GGA-C  ScalDFC         ....  1.000000
   Scaling of DF-LDA-C  ScalLDAC        ....  1.000000
   Perturbative correction              ....  0.000000
   Density functional embedding theory  .... OFF
   NL short-range parameter             ....  6.900000
 RI-approximation to the Coulomb term is turned on
   Number of AuxJ basis functions       .... 191
   RIJ-COSX (HFX calculated with COS-X)).... on


General Settings:
 Integral files         IntName         .... ox_es1_A_orca0006
 Hartree-Fock type      HFTyp           .... RHF
 Total Charge           Charge          ....    0
 Multiplicity           Mult            ....    1
 Number of Electrons    NEL             ....   24
 Basis Dimension        Dim             ....  117
 Nuclear Repulsion      ENuc            ....     76.4356534323 Eh

Convergence Acceleration:
 DIIS                   CNVDIIS         .... on
   Start iteration      DIISMaxIt       ....    12
   Startup error        DIISStart       ....  0.200000
   # of expansion vecs  DIISMaxEq       ....     5
   Bias factor          DIISBfac        ....   1.050
   Max. coefficient     DIISMaxC        ....  10.000
 Trust-Rad. Augm. Hess. CNVTRAH         .... auto
   Auto Start mean grad. ratio tolernc. ....  1.125000
   Auto Start start iteration           ....     1
   Auto Start num. interpolation iter.  ....    10
   Max. Number of Micro iterations      ....    16
   Max. Number of Macro iterations      .... Maxiter - #DIIS iter
   Number of Davidson start vectors     ....     2
   Converg. threshold I  (grad. norm)   ....   1.000e-05
   Converg. threshold II (energy diff.) ....   1.000e-08
   Grad. Scal. Fac. for Micro threshold ....   0.100
   Minimum threshold for Micro iter.    ....   0.010
   NR start threshold (gradient norm)   ....   0.001
   Initial trust radius                 ....   0.400
   Minimum AH scaling param. (alpha)    ....   1.000
   Maximum AH scaling param. (alpha)    .... 1000.000
   Orbital update algorithm             .... Taylor
   White noise on init. David. guess    .... on
   Maximum white noise                  ....   0.010
   Quad. conv. algorithm                .... NR
 SOSCF                  CNVSOSCF        .... on
   Start iteration      SOSCFMaxIt      ....   150
   Startup grad/error   SOSCFStart      ....  0.003300
 Level Shifting         CNVShift        .... on
   Level shift para.    LevelShift      ....    0.2500
   Turn off err/grad.   ShiftErr        ....    0.0010
 Zerner damping         CNVZerner       .... off
 Static damping         CNVDamp         .... on
   Fraction old density DampFac         ....    0.7000
   Max. Damping (<1)    DampMax         ....    0.9800
   Min. Damping (>=0)   DampMin         ....    0.0000
   Turn off err/grad.   DampErr         ....    0.1000
 Fernandez-Rico         CNVRico         .... off

SCF Procedure:
 Maximum # iterations   MaxIter         ....   125
 SCF integral mode      SCFMode         .... Direct
   Integral package                     .... SHARK and LIBINT hybrid scheme
 Reset frequency        DirectResetFreq ....    20
 Integral Threshold     Thresh          ....  2.500e-11 Eh
 Primitive CutOff       TCut            ....  2.500e-12 Eh

Convergence Tolerance:
 Convergence Check Mode ConvCheckMode   .... Total+1el-Energy
 Convergence forced     ConvForced      .... 1
 Energy Change          TolE            ....  1.000e-08 Eh
 1-El. energy change                    ....  1.000e-05 Eh
 Orbital Gradient       TolG            ....  1.000e-05
 Orbital Rotation angle TolX            ....  1.000e-05
 DIIS Error             TolErr          ....  5.000e-07


Diagonalization of the overlap matrix:
Smallest eigenvalue                        ... 3.121e-04
Time for diagonalization                   ...    0.001 sec
Threshold for overlap eigenvalues          ... 1.000e-08
Number of eigenvalues below threshold      ... 0
Time for construction of square roots      ...    0.001 sec
Total time needed                          ...    0.003 sec

---------------------
INITIAL GUESS: MOREAD
---------------------
Guess MOs are being read from file: ox_es1_A_orca0006.ges
Input Geometry matches current geometry (good)
Input basis set matches current basis set (good)
MOs were renormalized
MOs were reorthogonalized (Cholesky)
                      ------------------
                      INITIAL GUESS DONE (   0.0 sec)
                      ------------------
-------------------
DFT GRID GENERATION
-------------------

General Integration Accuracy     IntAcc      ... 4.388
Radial Grid Type                 RadialGrid  ... OptM3 with GC (2021)
Angular Grid (max. ang.)         AngularGrid ... 4 (Lebedev-302)
Angular grid pruning method      GridPruning ... 4 (adaptive)
Weight generation scheme         WeightScheme... Becke
Basis function cutoff            BFCut       ... 1.0000e-11
Integration weight cutoff        WCut        ... 1.0000e-14
Angular grids for H and He will be reduced by one unit
Partially contracted basis set               ... off
Rotationally invariant grid construction     ... off

Total number of grid points                  ...    31289
Total number of batches                      ...      493
Average number of points per batch           ...       63
Average number of grid points per atom       ...     4470
Time for grid setup =    0.119 sec

--------------------
COSX GRID GENERATION
--------------------

GRIDX 1
-------
General Integration Accuracy     IntAcc      ... 3.816
Radial Grid Type                 RadialGrid  ... OptM3 with GC (2021)
Angular Grid (max. ang.)         AngularGrid ... 1 (Lebedev-50)
Angular grid pruning method      GridPruning ... 4 (adaptive)
Weight generation scheme         WeightScheme... Becke
Basis function cutoff            BFCut       ... 1.0000e-11
Integration weight cutoff        WCut        ... 1.0000e-14
Angular grids for H and He will be reduced by one unit
Partially contracted basis set               ... on
Rotationally invariant grid construction     ... off

Total number of grid points                  ...     4039
Total number of batches                      ...       68
Average number of points per batch           ...       59
Average number of grid points per atom       ...      577
UseSFitting                                  ... on

GRIDX 2
-------
General Integration Accuracy     IntAcc      ... 4.020
Radial Grid Type                 RadialGrid  ... OptM3 with GC (2021)
Angular Grid (max. ang.)         AngularGrid ... 2 (Lebedev-110)
Angular grid pruning method      GridPruning ... 4 (adaptive)
Weight generation scheme         WeightScheme... Becke
Basis function cutoff            BFCut       ... 1.0000e-11
Integration weight cutoff        WCut        ... 1.0000e-14
Angular grids for H and He will be reduced by one unit
Partially contracted basis set               ... on
Rotationally invariant grid construction     ... off

Total number of grid points                  ...     8707
Total number of batches                      ...      141
Average number of points per batch           ...       61
Average number of grid points per atom       ...     1244
UseSFitting                                  ... on

GRIDX 3
-------
General Integration Accuracy     IntAcc      ... 4.338
Radial Grid Type                 RadialGrid  ... OptM3 with GC (2021)
Angular Grid (max. ang.)         AngularGrid ... 3 (Lebedev-194)
Angular grid pruning method      GridPruning ... 4 (adaptive)
Weight generation scheme         WeightScheme... Becke
Basis function cutoff            BFCut       ... 1.0000e-11
Integration weight cutoff        WCut        ... 1.0000e-14
Angular grids for H and He will be reduced by one unit
Partially contracted basis set               ... on
Rotationally invariant grid construction     ... off

Total number of grid points                  ...    19246
Total number of batches                      ...      305
Average number of points per batch           ...       63
Average number of grid points per atom       ...     2749
UseSFitting                                  ... on

Time for X-Grid setup             =    0.073 sec

--------------
SCF ITERATIONS
--------------
ITER       Energy         Delta-E        Max-DP      RMS-DP      [F,P]     Damp
               ***  Starting incremental Fock matrix formation  ***
                      *** Initiating the SOSCF procedure ***
                      *** Re-Reading the Fockian *** 
                      *** Removing any level shift *** 
ITER      Energy       Delta-E        Grad      Rot      Max-DP    RMS-DP
  0   -153.66249857 -153.6624985695  0.000001  0.000001  0.000001  0.000000
               *** Restarting incremental Fock matrix formation ***
                  ***Gradient check signals convergence***
              ***Rediagonalizing the Fockian in SOSCF/NRSCF***

               *****************************************************
               *                     SUCCESS                       *
               *           SCF CONVERGED AFTER   1 CYCLES          *
               *****************************************************

Old exchange energy                            =     -5.010446861 Eh
New exchange energy                            =     -5.010433494 Eh
Exchange energy change after final integration =      0.000013366 Eh
Total energy after final integration           =   -153.662485203 Eh
Final COS-X integration done in                =     0.249 sec

----------------
TOTAL SCF ENERGY
----------------

Total Energy       :         -153.66248520 Eh           -4181.36880 eV

Components:
Nuclear Repulsion  :           76.43565343 Eh            2079.91987 eV
Electronic Energy  :         -230.09813864 Eh           -6261.28867 eV
One Electron Energy:         -359.44384663 Eh           -9780.96432 eV
Two Electron Energy:          129.34570800 Eh            3519.67565 eV
Max COSX asymmetry :            0.00000311 Eh               0.00008 eV

Virial components:
Potential Energy   :         -306.83698551 Eh           -8349.45885 eV
Kinetic Energy     :          153.17450030 Eh            4168.09005 eV
Virial Ratio       :            2.00318581


DFT components:
N(Alpha)           :       11.999997843786 electrons
N(Beta)            :       11.999997843786 electrons
N(Total)           :       23.999995687572 electrons
E(X)               :      -14.996458545268 Eh       
E(C)               :       -0.793481886938 Eh       
E(XC)              :      -15.789940432206 Eh       
DFET-embed. en.    :        0.000000000000 Eh       

---------------
SCF CONVERGENCE
---------------

  Last Energy change         ...   -2.7569e-12  Tolerance :   1.0000e-08
  Last MAX-Density change    ...    1.1102e-15  Tolerance :   1.0000e-07
  Last RMS-Density change    ...    2.1881e-17  Tolerance :   5.0000e-09
  Last Orbital Gradient      ...    3.5472e-07  Tolerance :   1.0000e-05
  Last Orbital Rotation      ...    6.6043e-07  Tolerance :   1.0000e-05

             **** THE GBW FILE WAS UPDATED (ox_es1_A_orca0006.gbw) ****
             **** DENSITY ox_es1_A_orca0006.scfp WAS UPDATED ****
             **** ENERGY FILE WAS UPDATED (ox_es1_A_orca0006.en.tmp) ****
             **** THE GBW FILE WAS UPDATED (ox_es1_A_orca0006.gbw) ****
             **** DENSITY ox_es1_A_orca0006.scfp WAS UPDATED ****
----------------
ORBITAL ENERGIES
----------------

  NO   OCC          E(Eh)            E(eV) 
   0   2.0000     -19.223948      -523.1102 
   1   2.0000     -10.274984      -279.5965 
   2   2.0000     -10.263618      -279.2872 
   3   2.0000      -1.122261       -30.5383 
   4   2.0000      -0.709342       -19.3022 
   5   2.0000      -0.655386       -17.8340 
   6   2.0000      -0.542220       -14.7546 
   7   2.0000      -0.508631       -13.8406 
   8   2.0000      -0.420827       -11.4513 
   9   2.0000      -0.394097       -10.7239 
  10   2.0000      -0.335829        -9.1384 
  11   2.0000      -0.289324        -7.8729 
  12   0.0000       0.064458         1.7540 
  13   0.0000       0.077154         2.0995 
  14   0.0000       0.089897         2.4462 
  15   0.0000       0.100682         2.7397 
  16   0.0000       0.111446         3.0326 
  17   0.0000       0.156921         4.2700 
  18   0.0000       0.188532         5.1302 
  19   0.0000       0.223096         6.0708 
  20   0.0000       0.269046         7.3211 
  21   0.0000       0.273895         7.4531 
  22   0.0000       0.295665         8.0455 
  23   0.0000       0.342947         9.3321 
  24   0.0000       0.390063        10.6141 
  25   0.0000       0.398920        10.8552 
  26   0.0000       0.405289        11.0285 
  27   0.0000       0.446618        12.1531 
  28   0.0000       0.454100        12.3567 
  29   0.0000       0.472639        12.8612 
  30   0.0000       0.503752        13.7078 
  31   0.0000       0.522960        14.2305 
  32   0.0000       0.543342        14.7851 
  33   0.0000       0.695496        18.9254 
  34   0.0000       0.712851        19.3977 
  35   0.0000       0.734841        19.9960 
  36   0.0000       0.829372        22.5684 
  37   0.0000       0.880389        23.9566 
  38   0.0000       0.887384        24.1469 
  39   0.0000       0.932072        25.3630 
  40   0.0000       1.023317        27.8459 
  41   0.0000       1.039374        28.2828 
  42   0.0000       1.087484        29.5919 
  43   0.0000       1.091043        29.6888 
  44   0.0000       1.170151        31.8414 
  45   0.0000       1.357175        36.9306 
  46   0.0000       1.460861        39.7521 
  47   0.0000       1.485786        40.4303 
  48   0.0000       1.517681        41.2982 
  49   0.0000       1.524645        41.4877 
  50   0.0000       1.577022        42.9129 
  51   0.0000       1.657376        45.0995 
  52   0.0000       1.672460        45.5100 
  53   0.0000       1.710665        46.5496 
  54   0.0000       1.792223        48.7689 
  55   0.0000       1.809574        49.2410 
  56   0.0000       1.813944        49.3599 
  57   0.0000       1.918075        52.1935 
  58   0.0000       1.953646        53.1614 
  59   0.0000       1.980953        53.9045 
  60   0.0000       2.132381        58.0250 
  61   0.0000       2.158900        58.7467 
  62   0.0000       2.185901        59.4814 
  63   0.0000       2.276812        61.9552 
  64   0.0000       2.300145        62.5901 
  65   0.0000       2.409034        65.5531 
  66   0.0000       2.460391        66.9507 
  67   0.0000       2.522018        68.6276 
  68   0.0000       2.608660        70.9852 
  69   0.0000       2.623921        71.4005 
  70   0.0000       2.647576        72.0442 
  71   0.0000       2.665860        72.5417 
  72   0.0000       2.685337        73.0717 
  73   0.0000       2.736423        74.4619 
  74   0.0000       2.758272        75.0564 
  75   0.0000       2.809471        76.4496 
  76   0.0000       2.879577        78.3573 
  77   0.0000       2.949451        80.2586 
  78   0.0000       3.004980        81.7697 
  79   0.0000       3.014785        82.0365 
  80   0.0000       3.060569        83.2823 
  81   0.0000       3.093708        84.1841 
  82   0.0000       3.158939        85.9591 
  83   0.0000       3.276979        89.1711 
  84   0.0000       3.336069        90.7791 
  85   0.0000       3.351089        91.1878 
  86   0.0000       3.378941        91.9457 
  87   0.0000       3.451047        93.9078 
  88   0.0000       3.609195        98.2112 
  89   0.0000       3.648167        99.2717 
  90   0.0000       3.668458        99.8238 
  91   0.0000       3.743840       101.8751 
  92   0.0000       3.952152       107.5435 
  93   0.0000       4.048340       110.1609 
  94   0.0000       4.139848       112.6510 
  95   0.0000       4.181289       113.7787 
  96   0.0000       4.235123       115.2436 
  97   0.0000       4.289093       116.7122 
  98   0.0000       4.438213       120.7699 
  99   0.0000       4.593654       124.9997 
 100   0.0000       4.762575       129.5963 
 101   0.0000       4.852257       132.0366 
 102   0.0000       5.316168       144.6603 
 103   0.0000       5.463845       148.6788 
 104   0.0000       5.718518       155.6088 
 105   0.0000       5.787335       157.4814 
 106   0.0000       5.852179       159.2459 
 107   0.0000       5.933962       161.4713 
 108   0.0000       6.089958       165.7162 
 109   0.0000       6.610620       179.8841 
 110   0.0000       6.641105       180.7137 
 111   0.0000       6.811277       185.3443 
 112   0.0000       6.972421       189.7292 
 113   0.0000       7.177682       195.3147 
 114   0.0000      22.375940       608.8803 
 115   0.0000      22.581361       614.4701 
 116   0.0000      43.877192      1193.9591 

                    ********************************
                    * MULLIKEN POPULATION ANALYSIS *
                    ********************************

-----------------------
MULLIKEN ATOMIC CHARGES
-----------------------
   0 O :   -0.316584
   1 C :   -0.080877
   2 C :   -0.047974
   3 H :    0.121811
   4 H :    0.118843
   5 H :    0.107548
   6 H :    0.097234
Sum of atomic charges:   -0.0000000

--------------------------------
MULLIKEN REDUCED ORBITAL CHARGES
--------------------------------
  0 O s       :     3.853831  s :     3.853831
      pz      :     1.830154  p :     4.415302
      px      :     1.319005
      py      :     1.266144
      dz2     :     0.005894  d :     0.045090
      dxz     :     0.002884
      dyz     :     0.007243
      dx2y2   :     0.013163
      dxy     :     0.015906
      f0      :     0.000282  f :     0.002360
      f+1     :     0.000204
      f-1     :     0.000485
      f+2     :     0.000097
      f-2     :     0.000229
      f+3     :     0.000394
      f-3     :     0.000669
  1 C s       :     3.216155  s :     3.216155
      pz      :     1.048568  p :     2.744728
      px      :     0.928032
      py      :     0.768128
      dz2     :     0.006949  d :     0.108515
      dxz     :     0.023737
      dyz     :     0.029722
      dx2y2   :     0.027673
      dxy     :     0.020434
      f0      :     0.001733  f :     0.011480
      f+1     :     0.001296
      f-1     :     0.000580
      f+2     :     0.001291
      f-2     :     0.001535
      f+3     :     0.002104
      f-3     :     0.002941
  2 C s       :     3.200336  s :     3.200336
      pz      :     1.047144  p :     2.711242
      px      :     0.887233
      py      :     0.776865
      dz2     :     0.003421  d :     0.123418
      dxz     :     0.030840
      dyz     :     0.033970
      dx2y2   :     0.032477
      dxy     :     0.022711
      f0      :     0.001610  f :     0.012978
      f+1     :     0.001351
      f-1     :     0.000738
      f+2     :     0.001574
      f-2     :     0.002072
      f+3     :     0.002232
      f-3     :     0.003401
  3 H s       :     0.854680  s :     0.854680
      pz      :     0.011989  p :     0.023509
      px      :     0.006538
      py      :     0.004981
  4 H s       :     0.858457  s :     0.858457
      pz      :     0.011665  p :     0.022700
      px      :     0.006483
      py      :     0.004552
  5 H s       :     0.872991  s :     0.872991
      pz      :     0.008779  p :     0.019462
      px      :     0.007093
      py      :     0.003590
  6 H s       :     0.882169  s :     0.882169
      pz      :     0.010033  p :     0.020597
      px      :     0.006887
      py      :     0.003678


                     *******************************
                     * LOEWDIN POPULATION ANALYSIS *
                     *******************************

----------------------
LOEWDIN ATOMIC CHARGES
----------------------
   0 O :    0.154176
   1 C :   -0.251504
   2 C :   -0.358282
   3 H :    0.105008
   4 H :    0.115324
   5 H :    0.120108
   6 H :    0.115171

-------------------------------
LOEWDIN REDUCED ORBITAL CHARGES
-------------------------------
  0 O s       :     3.362969  s :     3.362969
      pz      :     1.704799  p :     4.376489
      px      :     1.299572
      py      :     1.372118
      dz2     :     0.011857  d :     0.098946
      dxz     :     0.008743
      dyz     :     0.016440
      dx2y2   :     0.035739
      dxy     :     0.026167
      f0      :     0.000719  f :     0.007421
      f+1     :     0.000270
      f-1     :     0.000965
      f+2     :     0.000192
      f-2     :     0.001055
      f+3     :     0.001277
      f-3     :     0.002943
  1 C s       :     2.802562  s :     2.802562
      pz      :     1.053213  p :     2.917716
      px      :     1.054060
      py      :     0.810443
      dz2     :     0.058657  d :     0.458051
      dxz     :     0.123825
      dyz     :     0.080549
      dx2y2   :     0.102155
      dxy     :     0.092865
      f0      :     0.011349  f :     0.073176
      f+1     :     0.006004
      f-1     :     0.005916
      f+2     :     0.008371
      f-2     :     0.005929
      f+3     :     0.014442
      f-3     :     0.021165
  2 C s       :     2.805993  s :     2.805993
      pz      :     1.044898  p :     2.920448
      px      :     1.025310
      py      :     0.850241
      dz2     :     0.048525  d :     0.546879
      dxz     :     0.157912
      dyz     :     0.101237
      dx2y2   :     0.122142
      dxy     :     0.117064
      f0      :     0.010378  f :     0.084961
      f+1     :     0.006303
      f-1     :     0.006221
      f+2     :     0.009935
      f-2     :     0.009900
      f+3     :     0.017049
      f-3     :     0.025175
  3 H s       :     0.821690  s :     0.821690
      pz      :     0.037861  p :     0.073302
      px      :     0.019802
      py      :     0.015639
  4 H s       :     0.816978  s :     0.816978
      pz      :     0.035226  p :     0.067698
      px      :     0.018659
      py      :     0.013813
  5 H s       :     0.824902  s :     0.824902
      pz      :     0.026727  p :     0.054990
      px      :     0.017852
      py      :     0.010412
  6 H s       :     0.826697  s :     0.826697
      pz      :     0.030142  p :     0.058132
      px      :     0.017247
      py      :     0.010743


                      *****************************
                      * MAYER POPULATION ANALYSIS *
                      *****************************

  NA   - Mulliken gross atomic population
  ZA   - Total nuclear charge
  QA   - Mulliken gross atomic charge
  VA   - Mayer's total valence
  BVA  - Mayer's bonded valence
  FA   - Mayer's free valence

  ATOM       NA         ZA         QA         VA         BVA        FA
  0 O      8.3166     8.0000    -0.3166     2.0048     2.0048    -0.0000
  1 C      6.0809     6.0000    -0.0809     3.9822     3.9822     0.0000
  2 C      6.0480     6.0000    -0.0480     3.9793     3.9793     0.0000
  3 H      0.8782     1.0000     0.1218     0.9642     0.9642    -0.0000
  4 H      0.8812     1.0000     0.1188     0.9643     0.9643    -0.0000
  5 H      0.8925     1.0000     0.1075     0.9553     0.9553    -0.0000
  6 H      0.9028     1.0000     0.0972     0.9589     0.9589     0.0000

  Mayer bond orders larger than 0.100000
B(  0-O ,  1-C ) :   0.9678 B(  0-O ,  2-C ) :   1.0122 B(  1-C ,  2-C ) :   1.0676 
B(  1-C ,  3-H ) :   0.9653 B(  1-C ,  4-H ) :   0.9617 B(  2-C ,  5-H ) :   0.9401 
B(  2-C ,  6-H ) :   0.9538 

-------
TIMINGS
-------

Total SCF time: 0 days 0 hours 0 min 0 sec 

Total time                  ....       0.982 sec
Sum of individual times     ....       0.885 sec  ( 90.2%)

Fock matrix formation       ....       0.676 sec  ( 68.8%)
  Split-RI-J                ....       0.113 sec  ( 16.7% of F)
  Chain of spheres X        ....       0.500 sec  ( 73.9% of F)
  XC integration            ....       0.062 sec  (  9.1% of F)
    Basis function eval.    ....       0.017 sec  ( 27.1% of XC)
    Density eval.           ....       0.013 sec  ( 20.8% of XC)
    XC-Functional eval.     ....       0.004 sec  (  5.7% of XC)
    XC-Potential eval.      ....       0.019 sec  ( 30.7% of XC)
Diagonalization             ....       0.002 sec  (  0.2%)
Density matrix formation    ....       0.000 sec  (  0.0%)
Population analysis         ....       0.002 sec  (  0.3%)
Initial guess               ....       0.009 sec  (  0.9%)
Orbital Transformation      ....       0.000 sec  (  0.0%)
Orbital Orthonormalization  ....       0.001 sec  (  0.1%)
DIIS solution               ....       0.001 sec  (  0.1%)
SOSCF solution              ....       0.002 sec  (  0.2%)
Grid generation             ....       0.192 sec  ( 19.5%)

Maximum memory used throughout the entire SCF-calculation: 61.1 MB


           ************************************************************
           *        Program running with 8 parallel MPI-processes     *
           *              working on a common directory               *
           ************************************************************
------------------------------------------------------------------------------
                        ORCA TD-DFT/TDA CALCULATION
------------------------------------------------------------------------------

Input orbitals are from        ... ox_es1_A_orca0006.gbw
CI-vector output               ... ox_es1_A_orca0006.cis
Tamm-Dancoff approximation     ... operative
CIS-Integral strategy          ... AO-integrals
Integral handling              ... AO integral Direct
Max. core memory used          ... 3000 MB
Reference state                ... RHF
Generation of triplets         ... off
Follow IRoot                   ... off
Number of operators            ... 1
Orbital ranges used for CIS calculation:
 Operator 0:  Orbitals   3... 11  to  12...116
XAS localization array:
 Operator 0:  Orbitals  -1... -1

-------------------
XC-INTEGRATION GRID
-------------------

General Integration Accuracy     IntAcc      ... 3.467
Radial Grid Type                 RadialGrid  ... OptM3 with GC (2021)
Angular Grid (max. ang.)         AngularGrid ... 1 (Lebedev-50)
Angular grid pruning method      GridPruning ... 4 (adaptive)
Weight generation scheme         WeightScheme... Becke
Basis function cutoff            BFCut       ... 1.0000e-11
Integration weight cutoff        WCut        ... 1.0000e-14
Angular grids for H and He will be reduced by one unit
Partially contracted basis set               ... off
Rotationally invariant grid construction     ... off

Total number of grid points                  ...     4533
Total number of batches                      ...       75
Average number of points per batch           ...       60
Average number of grid points per atom       ...      648

---------------------
COSX-INTEGRATION GRID
---------------------

General Integration Accuracy     IntAcc      ... 3.067
Radial Grid Type                 RadialGrid  ... OptM3 with GC (2021)
Angular Grid (max. ang.)         AngularGrid ... 1 (Lebedev-50)
Angular grid pruning method      GridPruning ... 4 (adaptive)
Weight generation scheme         WeightScheme... Becke
Basis function cutoff            BFCut       ... 1.0000e-11
Integration weight cutoff        WCut        ... 1.0000e-14
Angular grids for H and He will be reduced by one unit
Partially contracted basis set               ... on
Rotationally invariant grid construction     ... off

Total number of grid points                  ...     2087
Total number of batches                      ...       37
Average number of points per batch           ...       56
Average number of grid points per atom       ...      298

---------------
TD-DFT XC SETUP
---------------

DFT calculation                         ... on
Name of the grid file                   ... ox_es1_A_orca0006.grid_cis.tmp
Exchange functional (TD-DFT)            ... PBE
   PBE kappa parameter  XKappa (TD-DFT) ...  0.804000
   PBE mue parameter   XMuePBE (TD-DFT) ...  0.219520
Correlation functional (TD-DFT)         ... PBE
   PBE beta parameter CBetaPBE (TD-DFT) ...  0.066725
 LDA part of GGA corr.  LDAOpt (TD-DFT) ... PW91-LDA
Hybrid DFT                              ... on
   Exchange mixing (TD-DFT)             ...  0.250
   GGA exch. scaling (TD-DFT)           ...  0.750
   GGA corr. scaling (TD-DFT)           ...  1.000

Building densities             ... done
Calculating rho(r) on the grid ... done
Building xc-kernel on the grid ... done
                    *** TD-DFT CALCULATION INITIALIZED ***

------------------------
DAVIDSON-DIAGONALIZATION
------------------------

Dimension of the eigenvalue problem            ...    945
Number of roots to be determined               ...      1
Maximum size of the expansion space            ...     10
Maximum number of iterations                   ...    100
Convergence tolerance for the residual         ...    2.500e-07
Convergence tolerance for the energies         ...    2.500e-07
Orthogonality tolerance                        ...    1.000e-14
Level Shift                                    ...    0.000e+00
Constructing the preconditioner                ... o.k.
Building the initial guess                     ... o.k.
Number of trial vectors determined             ...     10


                       ****Iteration    0****

   Memory handling for direct AO based CIS:
   Memory per vector needed      ...     1 MB
   Memory needed                 ...     1 MB
   Memory available              ...  3000 MB
   Number of vectors per batch   ...  3000
   Number of batches             ...     1
   Time for densities:            0.001
   Time for RI-J (Direct):        0.015
   Time for K (COSX):             0.055
   Time for XC-Integration:       0.015
   Time for Sigma-Completion:     0.000
   Size of expansion space: 3
   Lowest Energy          :     0.299186517688
   Maximum Energy change  :     0.299186517688 (vector 0)
   Maximum residual norm  :     0.003987419813

                       ****Iteration    1****
   Time for densities:            0.000
   Time for RI-J (Direct):        0.012
   Time for K (COSX):             0.049
   Time for XC-Integration:       0.006
   Time for Sigma-Completion:     0.000
   Size of expansion space: 4
   Lowest Energy          :     0.295855742819
   Maximum Energy change  :     0.003330774869 (vector 0)
   Maximum residual norm  :     0.000833311098

                       ****Iteration    2****
   Time for densities:            0.000
   Time for RI-J (Direct):        0.012
   Time for K (COSX):             0.049
   Time for XC-Integration:       0.006
   Time for Sigma-Completion:     0.000
   Size of expansion space: 5
   Lowest Energy          :     0.294750238607
   Maximum Energy change  :     0.001105504213 (vector 0)
   Maximum residual norm  :     0.000232700553

                       ****Iteration    3****
   Time for densities:            0.000
   Time for RI-J (Direct):        0.012
   Time for K (COSX):             0.049
   Time for XC-Integration:       0.006
   Time for Sigma-Completion:     0.000
   Size of expansion space: 6
   Lowest Energy          :     0.294442322362
   Maximum Energy change  :     0.000307916245 (vector 0)
   Maximum residual norm  :     0.000050509268

                       ****Iteration    4****
   Time for densities:            0.000
   Time for RI-J (Direct):        0.012
   Time for K (COSX):             0.049
   Time for XC-Integration:       0.006
   Time for Sigma-Completion:     0.000
   Size of expansion space: 7
   Lowest Energy          :     0.294323502904
   Maximum Energy change  :     0.000118819458 (vector 0)
   Maximum residual norm  :     0.000023119323

                       ****Iteration    5****
   Time for densities:            0.000
   Time for RI-J (Direct):        0.012
   Time for K (COSX):             0.049
   Time for XC-Integration:       0.006
   Time for Sigma-Completion:     0.000
   Size of expansion space: 8
   Lowest Energy          :     0.294295446006
   Maximum Energy change  :     0.000028056898 (vector 0)
   Maximum residual norm  :     0.000001459376

                       ****Iteration    6****
   Time for densities:            0.000
   Time for RI-J (Direct):        0.012
   Time for K (COSX):             0.049
   Time for XC-Integration:       0.006
   Time for Sigma-Completion:     0.000
   Size of expansion space: 9
   Lowest Energy          :     0.294292674354
   Maximum Energy change  :     0.000002771652 (vector 0)
   Maximum residual norm  :     0.000000327305

                       ****Iteration    7****
   Time for densities:            0.000
   Time for RI-J (Direct):        0.012
   Time for K (COSX):             0.049
   Time for XC-Integration:       0.006
   Time for Sigma-Completion:     0.000
   Size of expansion space: 10
   Lowest Energy          :     0.294292200763
   Maximum Energy change  :     0.000000473591 (vector 0)
   Maximum residual norm  :     0.000000053591

      *** CONVERGENCE OF RESIDUAL NORM REACHED ***

Storing the converged CI vectors               ... ox_es1_A_orca0006.cis1

                 *** DAVIDSON DONE ***

Total time for solving the CIS problem:     0.565sec

------------------------------------
TD-DFT/TDA EXCITED STATES (SINGLETS)
------------------------------------

the weight of the individual excitations are printed if larger than 1.0e-02

STATE  1:  E=   0.294292 au      8.008 eV    64589.7 cm**-1 <S**2> =   0.000000
    11a ->  12a  :     0.336782 (c=  0.58032888)
    11a ->  13a  :     0.610529 (c= -0.78136347)
    11a ->  15a  :     0.016897 (c= -0.12998879)
    11a ->  16a  :     0.025164 (c=  0.15863277)


-----------------------------
TD-DFT/TDA-EXCITATION SPECTRA
-----------------------------

Center of mass = ( -0.0658, -0.1032, -0.0210)
Calculating the Dipole integrals                  ... done
Transforming integrals                            ... done
Calculating the Linear Momentum integrals         ... done
Transforming integrals                            ... done
Calculating angular momentum integrals            ... done
Transforming integrals                            ... done

-----------------------------------------------------------------------------
         ABSORPTION SPECTRUM VIA TRANSITION ELECTRIC DIPOLE MOMENTS
-----------------------------------------------------------------------------
State   Energy    Wavelength  fosc         T2        TX        TY        TZ  
        (cm-1)      (nm)                 (au**2)    (au)      (au)      (au) 
-----------------------------------------------------------------------------
   1   64589.7    154.8   0.014534066   0.07408  -0.04461   0.02711   0.26712

-----------------------------------------------------------------------------
         ABSORPTION SPECTRUM VIA TRANSITION VELOCITY DIPOLE MOMENTS
-----------------------------------------------------------------------------
State   Energy    Wavelength   fosc        P2         PX        PY        PZ  
        (cm-1)      (nm)                 (au**2)     (au)      (au)      (au) 
-----------------------------------------------------------------------------
   1   64589.7    154.8   0.032500034   0.01435   0.00448   0.00180  -0.11968

-------------------------------------------------------------------
                             CD SPECTRUM
-------------------------------------------------------------------
State  Energy     Wavelength     R         MX        MY        MZ   
       (cm-1)       (nm)     (1e40*cgs)   (au)      (au)      (au)  
-------------------------------------------------------------------
   1   64589.7    154.8     -4.36920   0.23674   0.13677  -0.00904

-------------------------------------------------------------------
         CD SPECTRUM VIA TRANSITION VELOCITY DIPOLE MOMENTS        
-------------------------------------------------------------------
State  Energy     Wavelength     R         MX        MY        MZ   
       (cm-1)       (nm)     (1e40*cgs)   (au)      (au)      (au)  
-------------------------------------------------------------------
   1   64589.7    154.8      3.82630   0.23674   0.13677  -0.00904

Total run time:        0.816 sec

           *** ORCA-CIS/TD-DFT FINISHED WITHOUT ERROR ***

Maximum memory used throughout the entire CIS-calculation: 49.4 MB

-----------------------
CIS/TD-DFT TOTAL ENERGY
-----------------------

    E(SCF)  =   -153.662485203 Eh
    DE(CIS) =      0.294292201 Eh (Root  1)
    ----------------------------- ---------
    E(tot)  =   -153.368193002 Eh



-------------------------------------------------------------------------------
                          DFT DISPERSION CORRECTION                            
                                                                               
                              DFTD3 V3.1  Rev 1                                
                          USING Becke-Johnson damping                          
-------------------------------------------------------------------------------
The PBE0 functional is recognized
Active option DFTDOPT                   ...         4   

molecular C6(AA) [au] = 350.750279 


            DFT-D V3
 parameters
 s6 scaling factor         :     1.0000 
 a1 scaling factor         :     0.4145 
 s8 scaling factor         :     1.2177 
 a2 scaling factor         :     4.8593 
 ad hoc parameters k1-k3   :    16.0000     1.3333    -4.0000 

 Edisp/kcal,au: -1.514050708826  -0.002412793129 
 E6   /kcal   :  -0.993145587 
 E8   /kcal   :  -0.520905121 
 % E8         :  34.404734156 

-------------------------   ----------------
Dispersion correction           -0.002412793
-------------------------   ----------------


-------------------------   --------------------
FINAL SINGLE POINT ENERGY      -153.370605795422
-------------------------   --------------------



           ************************************************************
           *        Program running with 8 parallel MPI-processes     *
           *              working on a common directory               *
           ************************************************************
------------------------------------------------------------------------------
                         ORCA SCF GRADIENT CALCULATION
------------------------------------------------------------------------------


------------------------
TD-DFT GRADIENT XC SETUP
------------------------

Building densities                     ... done
Calculating rho(r) on the grid         ... done
Building xc-kernel on the grid         ... done
Building xc 3rd derivative on the grid      ... done
                *** TD-DFT GRADIENT CALCULATION INITIALIZED ***

-------------------
TD-DFT/TDA GRADIENT
-------------------

Reference wavefunction             ... RHF
State of interest                  ... 1
Basis dimension                    ... 117
DFT-XC contribution needed         ... YES
RI-approximation                   ... ON
CIS-vectors being read from        ... ox_es1_A_orca0006.cis

 => Number of Vectors found: 1
 => Orbital Window: 3...11 -> 12...116

Reading the CIS file                     ... done
Norm of the CI vector                    ... 1.000000000
Making the CIS (pseudo)densities         ... done
Making operators G(D) and Q(T)           ... done
Transforming the Fock operators          ... done
Making the frozen-core relaxed density   ... done
Constructing the G(H) operator           ... done
Transforming the G(H) operator           ... done
Calculating the CIS Lagrangian           ... done
Solving the Z-vector equations           ... done
Finalizing the relaxed density           ... done
Storing the relaxed density              ... done
Constructing the G(Z) operator           ... done
Transforming the G(Z) operator           ... done
Making the W-matrix                      ... done
Finalizing the W-matrix                  ... done
Transforming the W-matrix                ... done
Nuclear repulsion gradient               ... done
One-Electron gradient                    ... done
Dispersion correction                    ... done
Prescreening matrices                    ... done
COSX-gradient                            ... done
Coulomb gradient (RI)                    ... done
Exchange-Correlation gradient            ... done

                 ---------------------------
                 EXCITED STATE GRADIENT DONE
                 ---------------------------

------------------
CARTESIAN GRADIENT
------------------

   1   O   :   -0.081035853   -0.148932681    0.000235635
   2   C   :    0.038622599    0.135877865    0.028819672
   3   C   :   -0.026888016    0.027996368    0.003596793
   4   H   :    0.034284478    0.005370108   -0.045259637
   5   H   :    0.022099010    0.003958980    0.019491550
   6   H   :    0.012248049   -0.015705689   -0.007356919
   7   H   :    0.000737849   -0.008638780    0.000443325

Difference to translation invariance:
           :    0.0000681157   -0.0000738293   -0.0000295795

Difference to rotation invariance:
           :   -0.0000537959    0.0000500505   -0.0010158586

Norm of the cartesian gradient     ...    0.2360411321
RMS gradient                       ...    0.0515083979
MAX gradient                       ...    0.1489326814

------------------------------------------------------------------------------
                  RELAXED CIS/TDA DENSITY POPULATION ANALYSIS
                                   IROOT 1
------------------------------------------------------------------------------
------------------------------------------------------------------------------
                           ORCA POPULATION ANALYSIS
------------------------------------------------------------------------------
Input electron density              ... ox_es1_A_orca0006.cisp
BaseName (.gbw .S,...)              ... ox_es1_A_orca0006

                    ********************************
                    * MULLIKEN POPULATION ANALYSIS *
                    ********************************

-----------------------
MULLIKEN ATOMIC CHARGES
-----------------------
   0 O :    0.235359
   1 C :   -0.759251
   2 C :   -0.146880
   3 H :    0.186023
   4 H :    0.189057
   5 H :    0.137956
   6 H :    0.157737
Sum of atomic charges:   -0.0000000

--------------------------------
MULLIKEN REDUCED ORBITAL CHARGES
--------------------------------
  0 O s       :     3.654207  s :     3.654207
      pz      :     1.138004  p :     4.067425
      px      :     1.473889
      py      :     1.455531
      dz2     :     0.003467  d :     0.041251
      dxz     :     0.003415
      dyz     :     0.007635
      dx2y2   :     0.012454
      dxy     :     0.014280
      f0      :     0.000148  f :     0.001758
      f+1     :     0.000016
      f-1     :     0.000188
      f+2     :     0.000101
      f-2     :     0.000251
      f+3     :     0.000353
      f-3     :     0.000701
  1 C s       :     3.297027  s :     3.297027
      pz      :     1.093377  p :     3.367261
      px      :     0.882109
      py      :     1.391775
      dz2     :     0.011388  d :     0.084756
      dxz     :     0.015168
      dyz     :     0.005784
      dx2y2   :     0.033037
      dxy     :     0.019378
      f0      :     0.001237  f :     0.010207
      f+1     :     0.001212
      f-1     :     0.000735
      f+2     :     0.000887
      f-2     :     0.001012
      f+3     :     0.002606
      f-3     :     0.002517
  2 C s       :     3.180745  s :     3.180745
      pz      :     1.039687  p :     2.864360
      px      :     1.018765
      py      :     0.805909
      dz2     :     0.000623  d :     0.089783
      dxz     :     0.026245
      dyz     :     0.012037
      dx2y2   :     0.031897
      dxy     :     0.018981
      f0      :     0.001058  f :     0.011992
      f+1     :     0.001547
      f-1     :     0.000641
      f+2     :     0.001071
      f-2     :     0.001575
      f+3     :     0.002850
      f-3     :     0.003251
  3 H s       :     0.785597  s :     0.785597
      pz      :     0.011494  p :     0.028380
      px      :     0.006557
      py      :     0.010328
  4 H s       :     0.783373  s :     0.783373
      pz      :     0.011042  p :     0.027570
      px      :     0.006401
      py      :     0.010128
  5 H s       :     0.839302  s :     0.839302
      pz      :     0.009229  p :     0.022742
      px      :     0.009228
      py      :     0.004284
  6 H s       :     0.819732  s :     0.819732
      pz      :     0.010480  p :     0.022532
      px      :     0.008206
      py      :     0.003845


                     *******************************
                     * LOEWDIN POPULATION ANALYSIS *
                     *******************************

----------------------
LOEWDIN ATOMIC CHARGES
----------------------
   0 O :    0.445905
   1 C :   -0.632551
   2 C :   -0.380005
   3 H :    0.118442
   4 H :    0.133681
   5 H :    0.152357
   6 H :    0.162171

-------------------------------
LOEWDIN REDUCED ORBITAL CHARGES
-------------------------------
  0 O s       :     3.426508  s :     3.426508
      pz      :     1.072226  p :     4.011732
      px      :     1.438655
      py      :     1.500851
      dz2     :     0.013570  d :     0.108615
      dxz     :     0.009929
      dyz     :     0.016406
      dx2y2   :     0.040364
      dxy     :     0.028347
      f0      :     0.000723  f :     0.007240
      f+1     :     0.000142
      f-1     :     0.000840
      f+2     :     0.000190
      f-2     :     0.001123
      f+3     :     0.001146
      f-3     :     0.003076
  1 C s       :     2.804704  s :     2.804704
      pz      :     1.051519  p :     3.200342
      px      :     1.026818
      py      :     1.122005
      dz2     :     0.081278  d :     0.545723
      dxz     :     0.107924
      dyz     :     0.033147
      dx2y2   :     0.178742
      dxy     :     0.144631
      f0      :     0.009143  f :     0.081781
      f+1     :     0.005976
      f-1     :     0.009345
      f+2     :     0.005393
      f-2     :     0.004129
      f+3     :     0.026985
      f-3     :     0.020809
  2 C s       :     2.824786  s :     2.824786
      pz      :     1.008688  p :     2.991632
      px      :     1.079006
      py      :     0.903938
      dz2     :     0.058959  d :     0.477997
      dxz     :     0.136507
      dyz     :     0.044175
      dx2y2   :     0.123116
      dxy     :     0.115241
      f0      :     0.007677  f :     0.085590
      f+1     :     0.007512
      f-1     :     0.006892
      f+2     :     0.007065
      f-2     :     0.007535
      f+3     :     0.023298
      f-3     :     0.025611
  3 H s       :     0.796971  s :     0.796971
      pz      :     0.037407  p :     0.084587
      px      :     0.019681
      py      :     0.027500
  4 H s       :     0.786779  s :     0.786779
      pz      :     0.034427  p :     0.079539
      px      :     0.018424
      py      :     0.026688
  5 H s       :     0.785137  s :     0.785137
      pz      :     0.027825  p :     0.062506
      px      :     0.023628
      py      :     0.011053
  6 H s       :     0.775581  s :     0.775581
      pz      :     0.031158  p :     0.062248
      px      :     0.020532
      py      :     0.010559


                      *****************************
                      * MAYER POPULATION ANALYSIS *
                      *****************************

  NA   - Mulliken gross atomic population
  ZA   - Total nuclear charge
  QA   - Mulliken gross atomic charge
  VA   - Mayer's total valence
  BVA  - Mayer's bonded valence
  FA   - Mayer's free valence

  ATOM       NA         ZA         QA         VA         BVA        FA
  0 O      7.7646     8.0000     0.2354     1.6261     1.0684     0.5577
  1 C      6.7593     6.0000    -0.7593     4.1751     3.2704     0.9047
  2 C      6.1469     6.0000    -0.1469     3.8118     3.5833     0.2286
  3 H      0.8140     1.0000     0.1860     0.9724     0.9562     0.0163
  4 H      0.8109     1.0000     0.1891     0.9745     0.9552     0.0194
  5 H      0.8620     1.0000     0.1380     1.0363     0.9331     0.1032
  6 H      0.8423     1.0000     0.1577     0.9898     0.9179     0.0719

  Mayer bond orders larger than 0.100000
B(  0-O ,  1-C ) :   0.2235 B(  0-O ,  2-C ) :   0.8325 B(  1-C ,  2-C ) :   1.0458 
B(  1-C ,  3-H ) :   0.9611 B(  1-C ,  4-H ) :   0.9552 B(  2-C ,  5-H ) :   0.8437 
B(  2-C ,  6-H ) :   0.8717 


-------
TIMINGS
-------

Total TD-DFT gradient time         ...        4.984 sec

Fock matrix formation       ....       0.816 sec  ( 16.4%)
  Coulomb formation         ....       0.659 sec  ( 80.8% of F)
  RI-J                      ....       0.295 sec  ( 36.1% of F)
  Chain of spheres X        ....       0.363 sec  ( 44.6% of F)
  XC integration            ....       0.157 sec  ( 19.2% of F)
Z-vector equation           ....       1.372 sec  ( 27.5%)
One electron gradient       ....       0.032 sec  (  0.6%)
Prescreening matrices       ....       0.159 sec  (  3.2%)
RI-J Coulomb gradient       ....       0.241 sec  (  4.8%)
COSX gradient               ....       0.332 sec  (  6.7%)
XC gradient                 ....       1.717 sec  ( 34.5%)

Maximum memory used throughout the entire SCFGRAD-calculation: 130.3 MB

                            ***************************************
                            *     ORCA property calculations      *
                            ***************************************

                                    ---------------------
                                    Active property flags
                                    ---------------------
   (+) Dipole Moment


------------------------------------------------------------------------------
                       ORCA ELECTRIC PROPERTIES CALCULATION
------------------------------------------------------------------------------

Dipole Moment Calculation                       ... on
Quadrupole Moment Calculation                   ... off
Polarizability Calculation                      ... off
GBWName                                         ... ox_es1_A_orca0006.gbw
Electron density                                ... ox_es1_A_orca0006.scfp
The origin for moment calculation is the CENTER OF MASS  = (-0.065830, -0.103198 -0.020980)

-------------
DIPOLE MOMENT
-------------
                                X             Y             Z
Electronic contribution:     -0.34198       1.69112       0.00397
Nuclear contribution   :      0.31488      -2.42437      -0.01190
                        -----------------------------------------
Total Dipole Moment    :     -0.02709      -0.73325      -0.00793
                        -----------------------------------------
Magnitude (a.u.)       :      0.73379
Magnitude (Debye)      :      1.86515



--------------------
Rotational spectrum 
--------------------
 
Rotational constants in cm-1:     0.878908     0.765942     0.485229 
Rotational constants in MHz : 26349.009113 22962.350912 14546.792166 

 Dipole components along the rotational axes: 
x,y,z [a.u.] :    -0.175754    -0.712258     0.015744 
x,y,z [Debye]:    -0.446731    -1.810416     0.040018 

 

                        *** CIS RELAXED DENSITY ***

------------------------------------------------------------------------------
                       ORCA ELECTRIC PROPERTIES CALCULATION
------------------------------------------------------------------------------

Dipole Moment Calculation                       ... on
Quadrupole Moment Calculation                   ... off
Polarizability Calculation                      ... off
GBWName                                         ... ox_es1_A_orca0006.gbw
Electron density                                ... ox_es1_A_orca0006.cisp
The origin for moment calculation is the CENTER OF MASS  = (-0.065830, -0.103198 -0.020980)

-------------
DIPOLE MOMENT
-------------
                                X             Y             Z
Electronic contribution:      0.37158       2.54012       0.02248
Nuclear contribution   :      0.31488      -2.42437      -0.01190
                        -----------------------------------------
Total Dipole Moment    :      0.68646       0.11575       0.01058
                        -----------------------------------------
Magnitude (a.u.)       :      0.69623
Magnitude (Debye)      :      1.76969



--------------------
Rotational spectrum 
--------------------
 
Rotational constants in cm-1:     0.878908     0.765942     0.485229 
Rotational constants in MHz : 26349.009113 22962.350912 14546.792166 

 Dipole components along the rotational axes: 
x,y,z [a.u.] :     0.695127    -0.025474     0.029844 
x,y,z [Debye]:     1.766873    -0.064750     0.075857 

 

Timings for individual modules:

Sum of individual times         ...        7.765 sec (=   0.129 min)
GTO integral calculation        ...        0.362 sec (=   0.006 min)   4.7 %
SCF iterations                  ...        1.174 sec (=   0.020 min)  15.1 %
CIS module                      ...        1.040 sec (=   0.017 min)  13.4 %
SCF Gradient evaluation         ...        5.189 sec (=   0.086 min)  66.8 %
                             ****ORCA TERMINATED NORMALLY****
TOTAL RUN TIME: 0 days 0 hours 0 minutes 8 seconds 129 msec
