
                                 *****************
                                 * O   R   C   A *
                                 *****************

                                            #,                                       
                                            ###                                      
                                            ####                                     
                                            #####                                    
                                            ######                                   
                                           ########,                                 
                                     ,,################,,,,,                         
                               ,,#################################,,                 
                          ,,##########################################,,             
                       ,#########################################, ''#####,          
                    ,#############################################,,   '####,        
                  ,##################################################,,,,####,       
                ,###########''''           ''''###############################       
              ,#####''   ,,,,##########,,,,          '''####'''          '####       
            ,##' ,,,,###########################,,,                        '##       
           ' ,,###''''                  '''############,,,                           
         ,,##''                                '''############,,,,        ,,,,,,###''
      ,#''                                            '''#######################'''  
     '                                                          ''''####''''         
             ,#######,   #######,   ,#######,      ##                                
            ,#'     '#,  ##    ##  ,#'     '#,    #''#        ######   ,####,        
            ##       ##  ##   ,#'  ##            #'  '#       #        #'  '#        
            ##       ##  #######   ##           ,######,      #####,   #    #        
            '#,     ,#'  ##    ##  '#,     ,#' ,#      #,         ##   #,  ,#        
             '#######'   ##     ##  '#######'  #'      '#     #####' # '####'        



                  #######################################################
                  #                        -***-                        #
                  #          Department of theory and spectroscopy      #
                  #    Directorship and core code : Frank Neese         #
                  #        Max Planck Institute fuer Kohlenforschung    #
                  #                Kaiser Wilhelm Platz 1               #
                  #                 D-45470 Muelheim/Ruhr               #
                  #                      Germany                        #
                  #                                                     #
                  #                  All rights reserved                #
                  #                        -***-                        #
                  #######################################################


                         Program Version 5.0.2 -  RELEASE  -


 With contributions from (in alphabetic order):
   Daniel Aravena         : Magnetic Suceptibility
   Michael Atanasov       : Ab Initio Ligand Field Theory (pilot matlab implementation)
   Alexander A. Auer      : GIAO ZORA, VPT2 properties, NMR spectrum
   Ute Becker             : Parallelization
   Giovanni Bistoni       : ED, misc. LED, open-shell LED, HFLD
   Martin Brehm           : Molecular dynamics
   Dmytro Bykov           : SCF Hessian
   Vijay G. Chilkuri      : MRCI spin determinant printing, contributions to CSF-ICE
   Dipayan Datta          : RHF DLPNO-CCSD density
   Achintya Kumar Dutta   : EOM-CC, STEOM-CC
   Dmitry Ganyushin       : Spin-Orbit,Spin-Spin,Magnetic field MRCI
   Miquel Garcia          : C-PCM and meta-GGA Hessian, CC/C-PCM, Gaussian charge scheme
   Yang Guo               : DLPNO-NEVPT2, F12-NEVPT2, CIM, IAO-localization
   Andreas Hansen         : Spin unrestricted coupled pair/coupled cluster methods
   Benjamin Helmich-Paris : MC-RPA, TRAH-SCF, COSX integrals
   Lee Huntington         : MR-EOM, pCC
   Robert Izsak           : Overlap fitted RIJCOSX, COSX-SCS-MP3, EOM
   Marcus Kettner         : VPT2
   Christian Kollmar      : KDIIS, OOCD, Brueckner-CCSD(T), CCSD density, CASPT2, CASPT2-K
   Simone Kossmann        : Meta GGA functionals, TD-DFT gradient, OOMP2, MP2 Hessian
   Martin Krupicka        : Initial AUTO-CI
   Lucas Lang             : DCDCAS
   Marvin Lechner         : AUTO-CI (C++ implementation), FIC-MRCC
   Dagmar Lenk            : GEPOL surface, SMD
   Dimitrios Liakos       : Extrapolation schemes; Compound Job, initial MDCI parallelization
   Dimitrios Manganas     : Further ROCIS development; embedding schemes
   Dimitrios Pantazis     : SARC Basis sets
   Anastasios Papadopoulos: AUTO-CI, single reference methods and gradients
   Taras Petrenko         : DFT Hessian,TD-DFT gradient, ASA, ECA, R-Raman, ABS, FL, XAS/XES, NRVS
   Peter Pinski           : DLPNO-MP2, DLPNO-MP2 Gradient
   Christoph Reimann      : Effective Core Potentials
   Marius Retegan         : Local ZFS, SOC
   Christoph Riplinger    : Optimizer, TS searches, QM/MM, DLPNO-CCSD(T), (RO)-DLPNO pert. Triples
   Tobias Risthaus        : Range-separated hybrids, TD-DFT gradient, RPA, STAB
   Michael Roemelt        : Original ROCIS implementation
   Masaaki Saitow         : Open-shell DLPNO-CCSD energy and density
   Barbara Sandhoefer     : DKH picture change effects
   Avijit Sen             : IP-ROCIS
   Kantharuban Sivalingam : CASSCF convergence, NEVPT2, FIC-MRCI
   Bernardo de Souza      : ESD, SOC TD-DFT
   Georgi Stoychev        : AutoAux, RI-MP2 NMR, DLPNO-MP2 response
   Willem Van den Heuvel  : Paramagnetic NMR
   Boris Wezisla          : Elementary symmetry handling
   Frank Wennmohs         : Technical directorship


 We gratefully acknowledge several colleagues who have allowed us to
 interface, adapt or use parts of their codes:
   Stefan Grimme, W. Hujo, H. Kruse, P. Pracht,  : VdW corrections, initial TS optimization,
                  C. Bannwarth, S. Ehlert          DFT functionals, gCP, sTDA/sTD-DF
   Ed Valeev, F. Pavosevic, A. Kumar             : LibInt (2-el integral package), F12 methods
   Garnet Chan, S. Sharma, J. Yang, R. Olivares  : DMRG
   Ulf Ekstrom                                   : XCFun DFT Library
   Mihaly Kallay                                 : mrcc  (arbitrary order and MRCC methods)
   Jiri Pittner, Ondrej Demel                    : Mk-CCSD
   Frank Weinhold                                : gennbo (NPA and NBO analysis)
   Christopher J. Cramer and Donald G. Truhlar   : smd solvation model
   Lars Goerigk                                  : TD-DFT with DH, B97 family of functionals
   V. Asgeirsson, H. Jonsson                     : NEB implementation
   FAccTs GmbH                                   : IRC, NEB, NEB-TS, DLPNO-Multilevel, CI-OPT
                                                   MM, QMMM, 2- and 3-layer-ONIOM, Crystal-QMMM,
                                                   LR-CPCM, SF, NACMEs, symmetry and pop. for TD-DFT,
                                                   nearIR, NL-DFT gradient (VV10), updates on ESD,
                                                   ML-optimized integration grids
   S Lehtola, MJT Oliveira, MAL Marques          : LibXC Library
   Liviu Ungur et al                             : ANISO software


 Your calculation uses the libint2 library for the computation of 2-el integrals
 For citations please refer to: http://libint.valeyev.net

 Your ORCA version has been built with support for libXC version: 5.1.0
 For citations please refer to: https://tddft.org/programs/libxc/

 This ORCA versions uses:
   CBLAS   interface :  Fast vector & matrix operations
   LAPACKE interface :  Fast linear algebra routines
   SCALAPACK package :  Parallel linear algebra routines
   Shared memory     :  Shared parallel matrices
   BLAS/LAPACK       :  OpenBLAS 0.3.15  USE64BITINT DYNAMIC_ARCH NO_AFFINITY SkylakeX SINGLE_THREADED
        Core in use  :  SkylakeX
   Copyright (c) 2011-2014, The OpenBLAS Project


Your calculation utilizes the atom-pairwise dispersion correction
with the Becke-Johnson damping scheme (D3BJ)
Cite in your paper:
S.Grimme, S.Ehrlich, L.Goerigk, J Comput Chem, (2011), 32, 1456–1465 
S.Grimme, J.Antony, S.Ehrlich and H.Krieg, J.Chem.Phys., 132, (2010), 154104 
   

================================================================================

----- Orbital basis set information -----
Your calculation utilizes the basis: def2-TZVP
   F. Weigend and R. Ahlrichs, Phys. Chem. Chem. Phys. 7, 3297 (2005).

----- AuxJ basis set information -----
Your calculation utilizes the auxiliary basis: def2/J
   F. Weigend, Phys. Chem. Chem. Phys. 8, 1057 (2006).

================================================================================
                                        WARNINGS
                       Please study these warnings very carefully!
================================================================================

INFO   : Checking CIS options ...

WARNING: CIS/ROCIS methods need fully converged wavefunctions
  ===> : Setting SCFConvForced true
         You can overwrite this default with %scf ConvForced false 


INFO   : the flag for use of the SHARK integral package has been found!

================================================================================
                                       INPUT FILE
================================================================================
NAME = ox_es1_E_orca0009.inp
|  1> ! engrad PBE0 D3BJ def2-TZVP  
|  2> %pal nprocs 8 end
|  3> %maxcore 3000
|  4> 
|  5> %tddft
|  6>   nroots 1
|  7>   tda true
|  8>   Iroot 1
|  9>   end 
| 10> *xyz 0 1 
| 11> O   -1.0214088326791642 0.8820363258764221 0.02208105249652641
| 12> C   -0.729248793733583 -0.5170987939118424 0.003653066474808427
| 13> C   0.7888482063954422 -0.3675242819539122 0.005775368566757359
| 14> H   -1.2669852550661564 -0.6189312072590103 0.8504830395597563
| 15> H   -1.2220623115022153 -0.6712138976127486 -0.9983401342401697
| 16> H   1.2881851759895575 -0.7076479672835909 -0.8701546635770867
| 17> H   1.1469860140766206 -0.7048475065737403 0.9465581382092381
| 18> *
| 19> 
| 20>                          ****END OF INPUT****
================================================================================

                     *******************************
                     * Energy+Gradient Calculation *
                     *******************************

---------------------------------
CARTESIAN COORDINATES (ANGSTROEM)
---------------------------------
  O     -1.021409    0.882036    0.022081
  C     -0.729249   -0.517099    0.003653
  C      0.788848   -0.367524    0.005775
  H     -1.266985   -0.618931    0.850483
  H     -1.222062   -0.671214   -0.998340
  H      1.288185   -0.707648   -0.870155
  H      1.146986   -0.704848    0.946558

----------------------------
CARTESIAN COORDINATES (A.U.)
----------------------------
  NO LB      ZA    FRAG     MASS         X           Y           Z
   0 O     8.0000    0    15.999   -1.930183    1.666807    0.041727
   1 C     6.0000    0    12.011   -1.378081   -0.977175    0.006903
   2 C     6.0000    0    12.011    1.490707   -0.694520    0.010914
   3 H     1.0000    0     1.008   -2.394255   -1.169610    1.607180
   4 H     1.0000    0     1.008   -2.309363   -1.268410   -1.886589
   5 H     1.0000    0     1.008    2.434317   -1.337261   -1.644354
   6 H     1.0000    0     1.008    2.167489   -1.331969    1.788736

--------------------------------
INTERNAL COORDINATES (ANGSTROEM)
--------------------------------
 O      0   0   0     0.000000000000     0.00000000     0.00000000
 C      1   0   0     1.429432111872     0.00000000     0.00000000
 C      2   1   0     1.525449291387    96.16611139     0.00000000
 H      2   1   3     1.008291299957    88.79804384   122.71566845
 H      2   1   3     1.127212048713    93.20599987   242.67031173
 H      3   2   1     1.064084090539   115.75450080   245.40297314
 H      3   2   1     1.061659958186   107.80570285   110.76991373

---------------------------
INTERNAL COORDINATES (A.U.)
---------------------------
 O      0   0   0     0.000000000000     0.00000000     0.00000000
 C      1   0   0     2.701235218470     0.00000000     0.00000000
 C      2   1   0     2.882681391906    96.16611139     0.00000000
 H      2   1   3     1.905394420135    88.79804384   122.71566845
 H      2   1   3     2.130122066923    93.20599987   242.67031173
 H      3   2   1     2.010827514580   115.75450080   245.40297314
 H      3   2   1     2.006246568321   107.80570285   110.76991373

---------------------
BASIS SET INFORMATION
---------------------
There are 3 groups of distinct atoms

 Group   1 Type O   : 11s6p2d1f contracted to 5s3p2d1f pattern {62111/411/11/1}
 Group   2 Type C   : 11s6p2d1f contracted to 5s3p2d1f pattern {62111/411/11/1}
 Group   3 Type H   : 5s1p contracted to 3s1p pattern {311/1}

Atom   0O    basis set group =>   1
Atom   1C    basis set group =>   2
Atom   2C    basis set group =>   2
Atom   3H    basis set group =>   3
Atom   4H    basis set group =>   3
Atom   5H    basis set group =>   3
Atom   6H    basis set group =>   3
---------------------------------
AUXILIARY/J BASIS SET INFORMATION
---------------------------------
There are 3 groups of distinct atoms

 Group   1 Type O   : 12s5p4d2f1g contracted to 6s4p3d1f1g pattern {711111/2111/211/2/1}
 Group   2 Type C   : 12s5p4d2f1g contracted to 6s4p3d1f1g pattern {711111/2111/211/2/1}
 Group   3 Type H   : 5s2p1d contracted to 3s1p1d pattern {311/2/1}

Atom   0O    basis set group =>   1
Atom   1C    basis set group =>   2
Atom   2C    basis set group =>   2
Atom   3H    basis set group =>   3
Atom   4H    basis set group =>   3
Atom   5H    basis set group =>   3
Atom   6H    basis set group =>   3

Checking for AutoStart:
The File: ox_es1_E_orca0009.gbw exists
Trying to determine its content:
     ... Fine, the file contains calculation information
     ... Fine, the calculation information was read
     ... Fine, the file contains a basis set
     ... Fine, the basis set was read
     ... Fine, the file contains a geometry
     ... Fine, the geometry was read
     ... Fine, the file contains a set of orbitals
     ... Fine, the orbitals can be read
     => possible old guess file was deleted
     => GBW file was renamed to GES file
     => GES file is set as startup file
     => Guess is set to MORead
     ... now leaving AutoStart



           ************************************************************
           *        Program running with 8 parallel MPI-processes     *
           *              working on a common directory               *
           ************************************************************
------------------------------------------------------------------------------
                           ORCA GTO INTEGRAL CALCULATION
                           -- RI-GTO INTEGRALS CHOSEN --
------------------------------------------------------------------------------
------------------------------------------------------------------------------
                   ___                                                        
                  /   \      - P O W E R E D   B Y -                         
                 /     \                                                     
                 |  |  |   _    _      __       _____    __    __             
                 |  |  |  | |  | |    /  \     |  _  \  |  |  /  |          
                  \  \/   | |  | |   /    \    | | | |  |  | /  /          
                 / \  \   | |__| |  /  /\  \   | |_| |  |  |/  /          
                |  |  |   |  __  | /  /__\  \  |    /   |      \           
                |  |  |   | |  | | |   __   |  |    \   |  |\   \          
                \     /   | |  | | |  |  |  |  | |\  \  |  | \   \       
                 \___/    |_|  |_| |__|  |__|  |_| \__\ |__|  \__/        
                                                                              
                      - O R C A' S   B I G   F R I E N D -                    
                                      &                                       
                       - I N T E G R A L  F E E D E R -                       
                                                                              
 v1 FN, 2020, v2 2021                                                         
------------------------------------------------------------------------------


Reading SHARK input file ox_es1_E_orca0009.SHARKINP.tmp ... ok
----------------------
SHARK INTEGRAL PACKAGE
----------------------

Number of atoms                             ...      7
Number of basis functions                   ...    117
Number of shells                            ...     49
Maximum angular momentum                    ...      3
Integral batch strategy                     ... SHARK/LIBINT Hybrid
RI-J (if used) integral strategy            ... SPLIT-RIJ (Revised 2003 algorithm where possible)
Printlevel                                  ...      1
Contraction scheme used                     ... SEGMENTED contraction
Coulomb Range Separation                    ... NOT USED
Exchange Range Separation                   ... NOT USED
Finite Nucleus Model                        ... NOT USED
Auxiliary Coulomb fitting basis             ... AVAILABLE
   # of basis functions in Aux-J            ...    191
   # of shells in Aux-J                     ...     65
   Maximum angular momentum in Aux-J        ...      4
Auxiliary J/K fitting basis                 ... NOT available
Auxiliary Correlation fitting basis         ... NOT available
Auxiliary 'external' fitting basis          ... NOT available
Integral threshold                          ...     2.500000e-11
Primitive cut-off                           ...     2.500000e-12
Primitive pair pre-selection threshold      ...     2.500000e-12

Calculating pre-screening integrals         ... done (  0.0 sec) Dimension = 49
Organizing shell pair data                  ... done (  0.0 sec)
Shell pair information
Total number of shell pairs                 ...      1225
Shell pairs after pre-screening             ...      1213
Total number of primitive shell pairs       ...      3648
Primitive shell pairs kept                  ...      3087
          la=0 lb=0:    367 shell pairs
          la=1 lb=0:    351 shell pairs
          la=1 lb=1:     91 shell pairs
          la=2 lb=0:    161 shell pairs
          la=2 lb=1:     78 shell pairs
          la=2 lb=2:     21 shell pairs
          la=3 lb=0:     81 shell pairs
          la=3 lb=1:     39 shell pairs
          la=3 lb=2:     18 shell pairs
          la=3 lb=3:      6 shell pairs

Calculating one electron integrals          ... done (  0.0 sec)
Calculating RI/J V-Matrix + Cholesky decomp.... done (  0.0 sec)
Calculating Nuclear repulsion               ... done (  0.0 sec) ENN=     68.497557867028 Eh

SHARK setup successfully completed in   0.1 seconds

Maximum memory used throughout the entire GTOINT-calculation: 14.9 MB


           ************************************************************
           *        Program running with 8 parallel MPI-processes     *
           *              working on a common directory               *
           ************************************************************
-------------------------------------------------------------------------------
                                 ORCA SCF
-------------------------------------------------------------------------------

------------
SCF SETTINGS
------------
Hamiltonian:
 Density Functional     Method          .... DFT(GTOs)
 Exchange Functional    Exchange        .... PBE
   PBE kappa parameter   XKappa         ....  0.804000
   PBE mue parameter    XMuePBE         ....  0.219520
 Correlation Functional Correlation     .... PBE
   PBE beta parameter  CBetaPBE         ....  0.066725
 LDA part of GGA corr.  LDAOpt          .... PW91-LDA
 Gradients option       PostSCFGGA      .... off
 Hybrid DFT is turned on
   Fraction HF Exchange ScalHFX         ....  0.250000
   Scaling of DF-GGA-X  ScalDFX         ....  0.750000
   Scaling of DF-GGA-C  ScalDFC         ....  1.000000
   Scaling of DF-LDA-C  ScalLDAC        ....  1.000000
   Perturbative correction              ....  0.000000
   Density functional embedding theory  .... OFF
   NL short-range parameter             ....  6.900000
 RI-approximation to the Coulomb term is turned on
   Number of AuxJ basis functions       .... 191
   RIJ-COSX (HFX calculated with COS-X)).... on


General Settings:
 Integral files         IntName         .... ox_es1_E_orca0009
 Hartree-Fock type      HFTyp           .... RHF
 Total Charge           Charge          ....    0
 Multiplicity           Mult            ....    1
 Number of Electrons    NEL             ....   24
 Basis Dimension        Dim             ....  117
 Nuclear Repulsion      ENuc            ....     68.4975578670 Eh

Convergence Acceleration:
 DIIS                   CNVDIIS         .... on
   Start iteration      DIISMaxIt       ....    12
   Startup error        DIISStart       ....  0.200000
   # of expansion vecs  DIISMaxEq       ....     5
   Bias factor          DIISBfac        ....   1.050
   Max. coefficient     DIISMaxC        ....  10.000
 Trust-Rad. Augm. Hess. CNVTRAH         .... auto
   Auto Start mean grad. ratio tolernc. ....  1.125000
   Auto Start start iteration           ....     1
   Auto Start num. interpolation iter.  ....    10
   Max. Number of Micro iterations      ....    16
   Max. Number of Macro iterations      .... Maxiter - #DIIS iter
   Number of Davidson start vectors     ....     2
   Converg. threshold I  (grad. norm)   ....   1.000e-05
   Converg. threshold II (energy diff.) ....   1.000e-08
   Grad. Scal. Fac. for Micro threshold ....   0.100
   Minimum threshold for Micro iter.    ....   0.010
   NR start threshold (gradient norm)   ....   0.001
   Initial trust radius                 ....   0.400
   Minimum AH scaling param. (alpha)    ....   1.000
   Maximum AH scaling param. (alpha)    .... 1000.000
   Orbital update algorithm             .... Taylor
   White noise on init. David. guess    .... on
   Maximum white noise                  ....   0.010
   Quad. conv. algorithm                .... NR
 SOSCF                  CNVSOSCF        .... on
   Start iteration      SOSCFMaxIt      ....   150
   Startup grad/error   SOSCFStart      ....  0.003300
 Level Shifting         CNVShift        .... on
   Level shift para.    LevelShift      ....    0.2500
   Turn off err/grad.   ShiftErr        ....    0.0010
 Zerner damping         CNVZerner       .... off
 Static damping         CNVDamp         .... on
   Fraction old density DampFac         ....    0.7000
   Max. Damping (<1)    DampMax         ....    0.9800
   Min. Damping (>=0)   DampMin         ....    0.0000
   Turn off err/grad.   DampErr         ....    0.1000
 Fernandez-Rico         CNVRico         .... off

SCF Procedure:
 Maximum # iterations   MaxIter         ....   125
 SCF integral mode      SCFMode         .... Direct
   Integral package                     .... SHARK and LIBINT hybrid scheme
 Reset frequency        DirectResetFreq ....    20
 Integral Threshold     Thresh          ....  2.500e-11 Eh
 Primitive CutOff       TCut            ....  2.500e-12 Eh

Convergence Tolerance:
 Convergence Check Mode ConvCheckMode   .... Total+1el-Energy
 Convergence forced     ConvForced      .... 1
 Energy Change          TolE            ....  1.000e-08 Eh
 1-El. energy change                    ....  1.000e-05 Eh
 Orbital Gradient       TolG            ....  1.000e-05
 Orbital Rotation angle TolX            ....  1.000e-05
 DIIS Error             TolErr          ....  5.000e-07


Diagonalization of the overlap matrix:
Smallest eigenvalue                        ... 6.405e-04
Time for diagonalization                   ...    0.001 sec
Threshold for overlap eigenvalues          ... 1.000e-08
Number of eigenvalues below threshold      ... 0
Time for construction of square roots      ...    0.001 sec
Total time needed                          ...    0.003 sec

---------------------
INITIAL GUESS: MOREAD
---------------------
Guess MOs are being read from file: ox_es1_E_orca0009.ges
Input Geometry matches current geometry (good)
Input basis set matches current basis set (good)
MOs were renormalized
MOs were reorthogonalized (Cholesky)
                      ------------------
                      INITIAL GUESS DONE (   0.0 sec)
                      ------------------
-------------------
DFT GRID GENERATION
-------------------

General Integration Accuracy     IntAcc      ... 4.388
Radial Grid Type                 RadialGrid  ... OptM3 with GC (2021)
Angular Grid (max. ang.)         AngularGrid ... 4 (Lebedev-302)
Angular grid pruning method      GridPruning ... 4 (adaptive)
Weight generation scheme         WeightScheme... Becke
Basis function cutoff            BFCut       ... 1.0000e-11
Integration weight cutoff        WCut        ... 1.0000e-14
Angular grids for H and He will be reduced by one unit
Partially contracted basis set               ... off
Rotationally invariant grid construction     ... off

Total number of grid points                  ...    31324
Total number of batches                      ...      492
Average number of points per batch           ...       63
Average number of grid points per atom       ...     4475
Time for grid setup =    0.134 sec

--------------------
COSX GRID GENERATION
--------------------

GRIDX 1
-------
General Integration Accuracy     IntAcc      ... 3.816
Radial Grid Type                 RadialGrid  ... OptM3 with GC (2021)
Angular Grid (max. ang.)         AngularGrid ... 1 (Lebedev-50)
Angular grid pruning method      GridPruning ... 4 (adaptive)
Weight generation scheme         WeightScheme... Becke
Basis function cutoff            BFCut       ... 1.0000e-11
Integration weight cutoff        WCut        ... 1.0000e-14
Angular grids for H and He will be reduced by one unit
Partially contracted basis set               ... on
Rotationally invariant grid construction     ... off

Total number of grid points                  ...     4037
Total number of batches                      ...       67
Average number of points per batch           ...       60
Average number of grid points per atom       ...      577
UseSFitting                                  ... on

GRIDX 2
-------
General Integration Accuracy     IntAcc      ... 4.020
Radial Grid Type                 RadialGrid  ... OptM3 with GC (2021)
Angular Grid (max. ang.)         AngularGrid ... 2 (Lebedev-110)
Angular grid pruning method      GridPruning ... 4 (adaptive)
Weight generation scheme         WeightScheme... Becke
Basis function cutoff            BFCut       ... 1.0000e-11
Integration weight cutoff        WCut        ... 1.0000e-14
Angular grids for H and He will be reduced by one unit
Partially contracted basis set               ... on
Rotationally invariant grid construction     ... off

Total number of grid points                  ...     8723
Total number of batches                      ...      140
Average number of points per batch           ...       62
Average number of grid points per atom       ...     1246
UseSFitting                                  ... on

GRIDX 3
-------
General Integration Accuracy     IntAcc      ... 4.338
Radial Grid Type                 RadialGrid  ... OptM3 with GC (2021)
Angular Grid (max. ang.)         AngularGrid ... 3 (Lebedev-194)
Angular grid pruning method      GridPruning ... 4 (adaptive)
Weight generation scheme         WeightScheme... Becke
Basis function cutoff            BFCut       ... 1.0000e-11
Integration weight cutoff        WCut        ... 1.0000e-14
Angular grids for H and He will be reduced by one unit
Partially contracted basis set               ... on
Rotationally invariant grid construction     ... off

Total number of grid points                  ...    19259
Total number of batches                      ...      304
Average number of points per batch           ...       63
Average number of grid points per atom       ...     2751
UseSFitting                                  ... on

Time for X-Grid setup             =    0.084 sec

--------------
SCF ITERATIONS
--------------
ITER       Energy         Delta-E        Max-DP      RMS-DP      [F,P]     Damp
               ***  Starting incremental Fock matrix formation  ***
                      *** Initiating the SOSCF procedure ***
                      *** Re-Reading the Fockian *** 
                      *** Removing any level shift *** 
ITER      Energy       Delta-E        Grad      Rot      Max-DP    RMS-DP
  0   -153.50649557 -153.5064955687  0.000002  0.000002  0.000004  0.000000
               *** Restarting incremental Fock matrix formation ***
  1   -153.50649557   0.0000000000  0.000003  0.000023  0.000013  0.000000
  2   -153.50649557   0.0000000013  0.000014  0.000022  0.000011  0.000000
                  ***Gradient check signals convergence***
              ***Rediagonalizing the Fockian in SOSCF/NRSCF***

               *****************************************************
               *                     SUCCESS                       *
               *           SCF CONVERGED AFTER   3 CYCLES          *
               *****************************************************

Old exchange energy                            =     -4.955642708 Eh
New exchange energy                            =     -4.955658199 Eh
Exchange energy change after final integration =     -0.000015492 Eh
Total energy after final integration           =   -153.506511060 Eh
Final COS-X integration done in                =     0.328 sec

----------------
TOTAL SCF ENERGY
----------------

Total Energy       :         -153.50651106 Eh           -4177.12453 eV

Components:
Nuclear Repulsion  :           68.49755787 Eh            1863.91331 eV
Electronic Energy  :         -222.00406893 Eh           -6041.03784 eV
One Electron Energy:         -343.70834325 Eh           -9352.77951 eV
Two Electron Energy:          121.70427433 Eh            3311.74167 eV
Max COSX asymmetry :            0.00000147 Eh               0.00004 eV

Virial components:
Potential Energy   :         -306.34438532 Eh           -8336.05452 eV
Kinetic Energy     :          152.83787426 Eh            4158.92999 eV
Virial Ratio       :            2.00437481


DFT components:
N(Alpha)           :       12.000003865682 electrons
N(Beta)            :       12.000003865682 electrons
N(Total)           :       24.000007731365 electrons
E(X)               :      -14.885953223885 Eh       
E(C)               :       -0.772152969772 Eh       
E(XC)              :      -15.658106193656 Eh       
DFET-embed. en.    :        0.000000000000 Eh       

---------------
SCF CONVERGENCE
---------------

  Last Energy change         ...   -1.0976e-09  Tolerance :   1.0000e-08
  Last MAX-Density change    ...    8.8818e-16  Tolerance :   1.0000e-07
  Last RMS-Density change    ...    1.6872e-17  Tolerance :   5.0000e-09
  Last Orbital Gradient      ...    3.0728e-07  Tolerance :   1.0000e-05
  Last Orbital Rotation      ...    1.4744e-06  Tolerance :   1.0000e-05

             **** THE GBW FILE WAS UPDATED (ox_es1_E_orca0009.gbw) ****
             **** DENSITY ox_es1_E_orca0009.scfp WAS UPDATED ****
             **** ENERGY FILE WAS UPDATED (ox_es1_E_orca0009.en.tmp) ****
             **** THE GBW FILE WAS UPDATED (ox_es1_E_orca0009.gbw) ****
             **** DENSITY ox_es1_E_orca0009.scfp WAS UPDATED ****
----------------
ORBITAL ENERGIES
----------------

  NO   OCC          E(Eh)            E(eV) 
   0   2.0000     -19.209827      -522.7260 
   1   2.0000     -10.316089      -280.7151 
   2   2.0000     -10.267390      -279.3899 
   3   2.0000      -1.005447       -27.3596 
   4   2.0000      -0.767070       -20.8730 
   5   2.0000      -0.627371       -17.0716 
   6   2.0000      -0.527409       -14.3515 
   7   2.0000      -0.475430       -12.9371 
   8   2.0000      -0.436901       -11.8887 
   9   2.0000      -0.389535       -10.5998 
  10   2.0000      -0.276132        -7.5139 
  11   2.0000      -0.259600        -7.0641 
  12   0.0000      -0.151186        -4.1140 
  13   0.0000       0.053187         1.4473 
  14   0.0000       0.080883         2.2009 
  15   0.0000       0.091153         2.4804 
  16   0.0000       0.121558         3.3078 
  17   0.0000       0.149983         4.0813 
  18   0.0000       0.178254         4.8505 
  19   0.0000       0.193164         5.2562 
  20   0.0000       0.235475         6.4076 
  21   0.0000       0.246237         6.7004 
  22   0.0000       0.272868         7.4251 
  23   0.0000       0.298209         8.1147 
  24   0.0000       0.324781         8.8378 
  25   0.0000       0.360571         9.8116 
  26   0.0000       0.412375        11.2213 
  27   0.0000       0.425154        11.5690 
  28   0.0000       0.448052        12.1921 
  29   0.0000       0.470105        12.7922 
  30   0.0000       0.519311        14.1312 
  31   0.0000       0.547657        14.9025 
  32   0.0000       0.572498        15.5785 
  33   0.0000       0.603425        16.4200 
  34   0.0000       0.713387        19.4122 
  35   0.0000       0.721469        19.6322 
  36   0.0000       0.781743        21.2723 
  37   0.0000       0.842425        22.9235 
  38   0.0000       0.885699        24.1011 
  39   0.0000       0.927950        25.2508 
  40   0.0000       0.939545        25.5663 
  41   0.0000       1.016973        27.6732 
  42   0.0000       1.037140        28.2220 
  43   0.0000       1.078029        29.3347 
  44   0.0000       1.138938        30.9921 
  45   0.0000       1.311153        35.6783 
  46   0.0000       1.412512        38.4364 
  47   0.0000       1.420947        38.6659 
  48   0.0000       1.469287        39.9813 
  49   0.0000       1.510284        41.0969 
  50   0.0000       1.591479        43.3064 
  51   0.0000       1.604548        43.6620 
  52   0.0000       1.611662        43.8555 
  53   0.0000       1.671256        45.4772 
  54   0.0000       1.732653        47.1479 
  55   0.0000       1.751939        47.6727 
  56   0.0000       1.811481        49.2929 
  57   0.0000       1.864741        50.7422 
  58   0.0000       1.879300        51.1383 
  59   0.0000       1.929030        52.4916 
  60   0.0000       1.979339        53.8606 
  61   0.0000       2.015080        54.8331 
  62   0.0000       2.188692        59.5573 
  63   0.0000       2.211003        60.1644 
  64   0.0000       2.310155        62.8625 
  65   0.0000       2.350244        63.9534 
  66   0.0000       2.387308        64.9620 
  67   0.0000       2.468444        67.1698 
  68   0.0000       2.489384        67.7396 
  69   0.0000       2.513403        68.3932 
  70   0.0000       2.562928        69.7408 
  71   0.0000       2.578561        70.1662 
  72   0.0000       2.639694        71.8297 
  73   0.0000       2.667028        72.5735 
  74   0.0000       2.737382        74.4879 
  75   0.0000       2.832975        77.0892 
  76   0.0000       2.929183        79.7071 
  77   0.0000       2.965794        80.7034 
  78   0.0000       2.977710        81.0276 
  79   0.0000       2.999937        81.6324 
  80   0.0000       3.080871        83.8348 
  81   0.0000       3.109508        84.6140 
  82   0.0000       3.153141        85.8013 
  83   0.0000       3.188852        86.7731 
  84   0.0000       3.199760        87.0699 
  85   0.0000       3.230300        87.9009 
  86   0.0000       3.307286        89.9958 
  87   0.0000       3.356384        91.3318 
  88   0.0000       3.480461        94.7082 
  89   0.0000       3.484181        94.8094 
  90   0.0000       3.535503        96.2059 
  91   0.0000       3.605981        98.1237 
  92   0.0000       3.711873       101.0052 
  93   0.0000       3.813544       103.7718 
  94   0.0000       3.936178       107.1088 
  95   0.0000       4.000613       108.8622 
  96   0.0000       4.099143       111.5434 
  97   0.0000       4.351371       118.4068 
  98   0.0000       4.415016       120.1387 
  99   0.0000       4.524948       123.1301 
 100   0.0000       4.549176       123.7894 
 101   0.0000       4.696430       127.7964 
 102   0.0000       5.184023       141.0644 
 103   0.0000       5.233780       142.4184 
 104   0.0000       5.377675       146.3340 
 105   0.0000       5.397785       146.8812 
 106   0.0000       5.734875       156.0539 
 107   0.0000       5.754198       156.5797 
 108   0.0000       5.941259       161.6699 
 109   0.0000       6.351073       172.8215 
 110   0.0000       6.390891       173.9050 
 111   0.0000       6.782953       184.5735 
 112   0.0000       6.789160       184.7424 
 113   0.0000       6.952181       189.1785 
 114   0.0000      22.071343       600.5918 
 115   0.0000      22.421673       610.1247 
 116   0.0000      43.757237      1190.6950 

                    ********************************
                    * MULLIKEN POPULATION ANALYSIS *
                    ********************************

-----------------------
MULLIKEN ATOMIC CHARGES
-----------------------
   0 O :   -0.361964
   1 C :   -0.081013
   2 C :   -0.146532
   3 H :    0.141257
   4 H :    0.123934
   5 H :    0.164710
   6 H :    0.159609
Sum of atomic charges:   -0.0000000

--------------------------------
MULLIKEN REDUCED ORBITAL CHARGES
--------------------------------
  0 O s       :     3.912482  s :     3.912482
      pz      :     1.931095  p :     4.424346
      px      :     1.142244
      py      :     1.351007
      dz2     :     0.003109  d :     0.023919
      dxz     :     0.000206
      dyz     :     0.005745
      dx2y2   :     0.008724
      dxy     :     0.006135
      f0      :     0.000149  f :     0.001216
      f+1     :     0.000070
      f-1     :     0.000272
      f+2     :     0.000176
      f-2     :     0.000023
      f+3     :     0.000261
      f-3     :     0.000266
  1 C s       :     3.211458  s :     3.211458
      pz      :     1.087551  p :     2.708244
      px      :     0.895017
      py      :     0.725676
      dz2     :     0.014609  d :     0.151339
      dxz     :     0.019733
      dyz     :     0.042661
      dx2y2   :     0.022746
      dxy     :     0.051591
      f0      :     0.001953  f :     0.009972
      f+1     :     0.001318
      f-1     :     0.000589
      f+2     :     0.002672
      f-2     :     0.000313
      f+3     :     0.002757
      f-3     :     0.000370
  2 C s       :     3.282623  s :     3.282623
      pz      :     1.040191  p :     2.813452
      px      :     0.997679
      py      :     0.775582
      dz2     :     0.006905  d :     0.046368
      dxz     :     0.016523
      dyz     :     0.004346
      dx2y2   :     0.004968
      dxy     :     0.013626
      f0      :     0.000545  f :     0.004089
      f+1     :     0.000867
      f-1     :     0.000242
      f+2     :     0.000518
      f-2     :     0.000259
      f+3     :     0.000697
      f-3     :     0.000959
  3 H s       :     0.832364  s :     0.832364
      pz      :     0.010953  p :     0.026379
      px      :     0.007563
      py      :     0.007863
  4 H s       :     0.855291  s :     0.855291
      pz      :     0.010765  p :     0.020775
      px      :     0.005260
      py      :     0.004749
  5 H s       :     0.811229  s :     0.811229
      pz      :     0.010800  p :     0.024061
      px      :     0.007531
      py      :     0.005730
  6 H s       :     0.816170  s :     0.816170
      pz      :     0.011955  p :     0.024221
      px      :     0.006517
      py      :     0.005750


                     *******************************
                     * LOEWDIN POPULATION ANALYSIS *
                     *******************************

----------------------
LOEWDIN ATOMIC CHARGES
----------------------
   0 O :   -0.042928
   1 C :   -0.421112
   2 C :   -0.026468
   3 H :    0.104670
   4 H :    0.129933
   5 H :    0.126923
   6 H :    0.128982

-------------------------------
LOEWDIN REDUCED ORBITAL CHARGES
-------------------------------
  0 O s       :     3.574489  s :     3.574489
      pz      :     1.857652  p :     4.408587
      px      :     1.099523
      py      :     1.451412
      dz2     :     0.006463  d :     0.056215
      dxz     :     0.000266
      dyz     :     0.016876
      dx2y2   :     0.018021
      dxy     :     0.014589
      f0      :     0.000420  f :     0.003638
      f+1     :     0.000105
      f-1     :     0.000522
      f+2     :     0.000757
      f-2     :     0.000070
      f+3     :     0.000926
      f-3     :     0.000837
  1 C s       :     2.844374  s :     2.844374
      pz      :     1.070589  p :     2.947534
      px      :     1.017948
      py      :     0.858998
      dz2     :     0.075255  d :     0.559979
      dxz     :     0.090496
      dyz     :     0.113461
      dx2y2   :     0.121087
      dxy     :     0.159680
      f0      :     0.011409  f :     0.069226
      f+1     :     0.006414
      f-1     :     0.006756
      f+2     :     0.014710
      f-2     :     0.002528
      f+3     :     0.019553
      f-3     :     0.007856
  2 C s       :     2.910739  s :     2.910739
      pz      :     1.087775  p :     2.896392
      px      :     1.099951
      py      :     0.708666
      dz2     :     0.031810  d :     0.197715
      dxz     :     0.077285
      dyz     :     0.017288
      dx2y2   :     0.034053
      dxy     :     0.037279
      f0      :     0.003017  f :     0.021623
      f+1     :     0.002807
      f-1     :     0.001887
      f+2     :     0.002998
      f-2     :     0.002582
      f+3     :     0.003698
      f-3     :     0.004634
  3 H s       :     0.813662  s :     0.813662
      pz      :     0.035303  p :     0.081668
      px      :     0.023635
      py      :     0.022730
  4 H s       :     0.813215  s :     0.813215
      pz      :     0.030187  p :     0.056852
      px      :     0.014416
      py      :     0.012248
  5 H s       :     0.801328  s :     0.801328
      pz      :     0.033700  p :     0.071749
      px      :     0.020940
      py      :     0.017108
  6 H s       :     0.798892  s :     0.798892
      pz      :     0.036555  p :     0.072126
      px      :     0.018522
      py      :     0.017049


                      *****************************
                      * MAYER POPULATION ANALYSIS *
                      *****************************

  NA   - Mulliken gross atomic population
  ZA   - Total nuclear charge
  QA   - Mulliken gross atomic charge
  VA   - Mayer's total valence
  BVA  - Mayer's bonded valence
  FA   - Mayer's free valence

  ATOM       NA         ZA         QA         VA         BVA        FA
  0 O      8.3620     8.0000    -0.3620     1.7883     1.7883     0.0000
  1 C      6.0810     6.0000    -0.0810     3.9472     3.9472    -0.0000
  2 C      6.1465     6.0000    -0.1465     3.7834     3.7834    -0.0000
  3 H      0.8587     1.0000     0.1413     0.9999     0.9999    -0.0000
  4 H      0.8761     1.0000     0.1239     0.9794     0.9794    -0.0000
  5 H      0.8353     1.0000     0.1647     0.9683     0.9683    -0.0000
  6 H      0.8404     1.0000     0.1596     0.9661     0.9661    -0.0000

  Mayer bond orders larger than 0.100000
B(  0-O ,  1-C ) :   0.9297 B(  0-O ,  2-C ) :   0.8482 B(  1-C ,  2-C ) :   1.0412 
B(  1-C ,  3-H ) :   0.9952 B(  1-C ,  4-H ) :   0.9747 B(  2-C ,  5-H ) :   0.9468 
B(  2-C ,  6-H ) :   0.9499 

-------
TIMINGS
-------

Total SCF time: 0 days 0 hours 0 min 1 sec 

Total time                  ....       1.625 sec
Sum of individual times     ....       1.516 sec  ( 93.3%)

Fock matrix formation       ....       1.273 sec  ( 78.3%)
  Split-RI-J                ....       0.164 sec  ( 12.9% of F)
  Chain of spheres X        ....       0.933 sec  ( 73.2% of F)
  XC integration            ....       0.148 sec  ( 11.6% of F)
    Basis function eval.    ....       0.044 sec  ( 30.1% of XC)
    Density eval.           ....       0.033 sec  ( 22.2% of XC)
    XC-Functional eval.     ....       0.010 sec  (  6.5% of XC)
    XC-Potential eval.      ....       0.041 sec  ( 27.9% of XC)
Diagonalization             ....       0.003 sec  (  0.2%)
Density matrix formation    ....       0.001 sec  (  0.0%)
Population analysis         ....       0.003 sec  (  0.2%)
Initial guess               ....       0.009 sec  (  0.6%)
Orbital Transformation      ....       0.000 sec  (  0.0%)
Orbital Orthonormalization  ....       0.001 sec  (  0.1%)
DIIS solution               ....       0.002 sec  (  0.1%)
SOSCF solution              ....       0.008 sec  (  0.5%)
Grid generation             ....       0.218 sec  ( 13.4%)

Maximum memory used throughout the entire SCF-calculation: 61.1 MB


           ************************************************************
           *        Program running with 8 parallel MPI-processes     *
           *              working on a common directory               *
           ************************************************************
------------------------------------------------------------------------------
                        ORCA TD-DFT/TDA CALCULATION
------------------------------------------------------------------------------

Input orbitals are from        ... ox_es1_E_orca0009.gbw
CI-vector output               ... ox_es1_E_orca0009.cis
Tamm-Dancoff approximation     ... operative
CIS-Integral strategy          ... AO-integrals
Integral handling              ... AO integral Direct
Max. core memory used          ... 3000 MB
Reference state                ... RHF
Generation of triplets         ... off
Follow IRoot                   ... off
Number of operators            ... 1
Orbital ranges used for CIS calculation:
 Operator 0:  Orbitals   3... 11  to  12...116
XAS localization array:
 Operator 0:  Orbitals  -1... -1

-------------------
XC-INTEGRATION GRID
-------------------

General Integration Accuracy     IntAcc      ... 3.467
Radial Grid Type                 RadialGrid  ... OptM3 with GC (2021)
Angular Grid (max. ang.)         AngularGrid ... 1 (Lebedev-50)
Angular grid pruning method      GridPruning ... 4 (adaptive)
Weight generation scheme         WeightScheme... Becke
Basis function cutoff            BFCut       ... 1.0000e-11
Integration weight cutoff        WCut        ... 1.0000e-14
Angular grids for H and He will be reduced by one unit
Partially contracted basis set               ... off
Rotationally invariant grid construction     ... off

Total number of grid points                  ...     4541
Total number of batches                      ...       75
Average number of points per batch           ...       60
Average number of grid points per atom       ...      649

---------------------
COSX-INTEGRATION GRID
---------------------

General Integration Accuracy     IntAcc      ... 3.067
Radial Grid Type                 RadialGrid  ... OptM3 with GC (2021)
Angular Grid (max. ang.)         AngularGrid ... 1 (Lebedev-50)
Angular grid pruning method      GridPruning ... 4 (adaptive)
Weight generation scheme         WeightScheme... Becke
Basis function cutoff            BFCut       ... 1.0000e-11
Integration weight cutoff        WCut        ... 1.0000e-14
Angular grids for H and He will be reduced by one unit
Partially contracted basis set               ... on
Rotationally invariant grid construction     ... off

Total number of grid points                  ...     2088
Total number of batches                      ...       37
Average number of points per batch           ...       56
Average number of grid points per atom       ...      298

---------------
TD-DFT XC SETUP
---------------

DFT calculation                         ... on
Name of the grid file                   ... ox_es1_E_orca0009.grid_cis.tmp
Exchange functional (TD-DFT)            ... PBE
   PBE kappa parameter  XKappa (TD-DFT) ...  0.804000
   PBE mue parameter   XMuePBE (TD-DFT) ...  0.219520
Correlation functional (TD-DFT)         ... PBE
   PBE beta parameter CBetaPBE (TD-DFT) ...  0.066725
 LDA part of GGA corr.  LDAOpt (TD-DFT) ... PW91-LDA
Hybrid DFT                              ... on
   Exchange mixing (TD-DFT)             ...  0.250
   GGA exch. scaling (TD-DFT)           ...  0.750
   GGA corr. scaling (TD-DFT)           ...  1.000

Building densities             ... done
Calculating rho(r) on the grid ... done
Building xc-kernel on the grid ... done
                    *** TD-DFT CALCULATION INITIALIZED ***

------------------------
DAVIDSON-DIAGONALIZATION
------------------------

Dimension of the eigenvalue problem            ...    945
Number of roots to be determined               ...      1
Maximum size of the expansion space            ...     10
Maximum number of iterations                   ...    100
Convergence tolerance for the residual         ...    2.500e-07
Convergence tolerance for the energies         ...    2.500e-07
Orthogonality tolerance                        ...    1.000e-14
Level Shift                                    ...    0.000e+00
Constructing the preconditioner                ... o.k.
Building the initial guess                     ... o.k.
Number of trial vectors determined             ...     10


                       ****Iteration    0****

   Memory handling for direct AO based CIS:
   Memory per vector needed      ...     1 MB
   Memory needed                 ...     1 MB
   Memory available              ...  3000 MB
   Number of vectors per batch   ...  3000
   Number of batches             ...     1
   Time for densities:            0.001
   Time for RI-J (Direct):        0.017
   Time for K (COSX):             0.063
   Time for XC-Integration:       0.017
   Time for Sigma-Completion:     0.000
   Size of expansion space: 3
   Lowest Energy          :     0.025893922079
   Maximum Energy change  :     0.025893922079 (vector 0)
   Maximum residual norm  :     0.002606495743

                       ****Iteration    1****
   Time for densities:            0.000
   Time for RI-J (Direct):        0.014
   Time for K (COSX):             0.059
   Time for XC-Integration:       0.007
   Time for Sigma-Completion:     0.000
   Size of expansion space: 4
   Lowest Energy          :     0.024130169298
   Maximum Energy change  :     0.001763752781 (vector 0)
   Maximum residual norm  :     0.000038885927

                       ****Iteration    2****
   Time for densities:            0.000
   Time for RI-J (Direct):        0.014
   Time for K (COSX):             0.061
   Time for XC-Integration:       0.008
   Time for Sigma-Completion:     0.000
   Size of expansion space: 5
   Lowest Energy          :     0.024105594967
   Maximum Energy change  :     0.000024574331 (vector 0)
   Maximum residual norm  :     0.000001888492

                       ****Iteration    3****
   Time for densities:            0.000
   Time for RI-J (Direct):        0.014
   Time for K (COSX):             0.061
   Time for XC-Integration:       0.008
   Time for Sigma-Completion:     0.000
   Size of expansion space: 6
   Lowest Energy          :     0.024104058929
   Maximum Energy change  :     0.000001536037 (vector 0)
   Maximum residual norm  :     0.000000107697

      *** CONVERGENCE OF RESIDUAL NORM REACHED ***

Storing the converged CI vectors               ... ox_es1_E_orca0009.cis1

                 *** DAVIDSON DONE ***

Total time for solving the CIS problem:     0.348sec

------------------------------------
TD-DFT/TDA EXCITED STATES (SINGLETS)
------------------------------------

the weight of the individual excitations are printed if larger than 1.0e-02

STATE  1:  E=   0.024104 au      0.656 eV     5290.2 cm**-1 <S**2> =   0.000000
    11a ->  12a  :     0.992211 (c=  0.99609782)


-----------------------------
TD-DFT/TDA-EXCITATION SPECTRA
-----------------------------

Center of mass = ( -0.6726,  0.0327,  0.0169)
Calculating the Dipole integrals                  ... done
Transforming integrals                            ... done
Calculating the Linear Momentum integrals         ... done
Transforming integrals                            ... done
Calculating angular momentum integrals            ... done
Transforming integrals                            ... done

-----------------------------------------------------------------------------
         ABSORPTION SPECTRUM VIA TRANSITION ELECTRIC DIPOLE MOMENTS
-----------------------------------------------------------------------------
State   Energy    Wavelength  fosc         T2        TX        TY        TZ  
        (cm-1)      (nm)                 (au**2)    (au)      (au)      (au) 
-----------------------------------------------------------------------------
   1    5290.2   1890.3   0.000072606   0.00452   0.01216   0.00305   0.06604

-----------------------------------------------------------------------------
         ABSORPTION SPECTRUM VIA TRANSITION VELOCITY DIPOLE MOMENTS
-----------------------------------------------------------------------------
State   Energy    Wavelength   fosc        P2         PX        PY        PZ  
        (cm-1)      (nm)                 (au**2)     (au)      (au)      (au) 
-----------------------------------------------------------------------------
   1    5290.2   1890.3   0.008940198   0.00032   0.00290   0.00110  -0.01771

-------------------------------------------------------------------
                             CD SPECTRUM
-------------------------------------------------------------------
State  Energy     Wavelength     R         MX        MY        MZ   
       (cm-1)       (nm)     (1e40*cgs)   (au)      (au)      (au)  
-------------------------------------------------------------------
   1    5290.2   1890.3     -0.42539   0.01941  -0.31630  -0.00265

-------------------------------------------------------------------
         CD SPECTRUM VIA TRANSITION VELOCITY DIPOLE MOMENTS        
-------------------------------------------------------------------
State  Energy     Wavelength     R         MX        MY        MZ   
       (cm-1)       (nm)     (1e40*cgs)   (au)      (au)      (au)  
-------------------------------------------------------------------
   1    5290.2   1890.3     -4.75694   0.01941  -0.31630  -0.00265

Total run time:        0.639 sec

           *** ORCA-CIS/TD-DFT FINISHED WITHOUT ERROR ***

Maximum memory used throughout the entire CIS-calculation: 49.4 MB

-----------------------
CIS/TD-DFT TOTAL ENERGY
-----------------------

    E(SCF)  =   -153.506511060 Eh
    DE(CIS) =      0.024104059 Eh (Root  1)
    ----------------------------- ---------
    E(tot)  =   -153.482407001 Eh



-------------------------------------------------------------------------------
                          DFT DISPERSION CORRECTION                            
                                                                               
                              DFTD3 V3.1  Rev 1                                
                          USING Becke-Johnson damping                          
-------------------------------------------------------------------------------
The PBE0 functional is recognized
Active option DFTDOPT                   ...         4   

molecular C6(AA) [au] = 394.335426 


            DFT-D V3
 parameters
 s6 scaling factor         :     1.0000 
 a1 scaling factor         :     0.4145 
 s8 scaling factor         :     1.2177 
 a2 scaling factor         :     4.8593 
 ad hoc parameters k1-k3   :    16.0000     1.3333    -4.0000 

 Edisp/kcal,au: -1.652659438985  -0.002633680177 
 E6   /kcal   :  -1.078796223 
 E8   /kcal   :  -0.573863216 
 % E8         :  34.723621947 

-------------------------   ----------------
Dispersion correction           -0.002633680
-------------------------   ----------------


-------------------------   --------------------
FINAL SINGLE POINT ENERGY      -153.485040681178
-------------------------   --------------------



           ************************************************************
           *        Program running with 8 parallel MPI-processes     *
           *              working on a common directory               *
           ************************************************************
------------------------------------------------------------------------------
                         ORCA SCF GRADIENT CALCULATION
------------------------------------------------------------------------------


------------------------
TD-DFT GRADIENT XC SETUP
------------------------

Building densities                     ... done
Calculating rho(r) on the grid         ... done
Building xc-kernel on the grid         ... done
Building xc 3rd derivative on the grid      ... done
                *** TD-DFT GRADIENT CALCULATION INITIALIZED ***

-------------------
TD-DFT/TDA GRADIENT
-------------------

Reference wavefunction             ... RHF
State of interest                  ... 1
Basis dimension                    ... 117
DFT-XC contribution needed         ... YES
RI-approximation                   ... ON
CIS-vectors being read from        ... ox_es1_E_orca0009.cis

 => Number of Vectors found: 1
 => Orbital Window: 3...11 -> 12...116

Reading the CIS file                     ... done
Norm of the CI vector                    ... 1.000000000
Making the CIS (pseudo)densities         ... done
Making operators G(D) and Q(T)           ... done
Transforming the Fock operators          ... done
Making the frozen-core relaxed density   ... done
Constructing the G(H) operator           ... done
Transforming the G(H) operator           ... done
Calculating the CIS Lagrangian           ... done
Solving the Z-vector equations           ... done
Finalizing the relaxed density           ... done
Storing the relaxed density              ... done
Constructing the G(Z) operator           ... done
Transforming the G(Z) operator           ... done
Making the W-matrix                      ... done
Finalizing the W-matrix                  ... done
Transforming the W-matrix                ... done
Nuclear repulsion gradient               ... done
One-Electron gradient                    ... done
Dispersion correction                    ... done
Prescreening matrices                    ... done
COSX-gradient                            ... done
Coulomb gradient (RI)                    ... done
Exchange-Correlation gradient            ... done

                 ---------------------------
                 EXCITED STATE GRADIENT DONE
                 ---------------------------

------------------
CARTESIAN GRADIENT
------------------

   1   O   :   -0.003259875   -0.014025104    0.004563497
   2   C   :   -0.067955506   -0.094706892    0.083195178
   3   C   :    0.067199469    0.053395460   -0.008024660
   4   H   :    0.038492869    0.049178745   -0.060684098
   5   H   :   -0.001660093    0.025851962   -0.016861896
   6   H   :   -0.012075532   -0.009534418    0.014621785
   7   H   :   -0.020707025   -0.010160552   -0.016823764

Difference to translation invariance:
           :    0.0000343065   -0.0000007986   -0.0000139583

Difference to rotation invariance:
           :   -0.0000105559    0.0000004716   -0.0006117089

Norm of the cartesian gradient     ...    0.1948639747
RMS gradient                       ...    0.0425228054
MAX gradient                       ...    0.0947068924

------------------------------------------------------------------------------
                  RELAXED CIS/TDA DENSITY POPULATION ANALYSIS
                                   IROOT 1
------------------------------------------------------------------------------
------------------------------------------------------------------------------
                           ORCA POPULATION ANALYSIS
------------------------------------------------------------------------------
Input electron density              ... ox_es1_E_orca0009.cisp
BaseName (.gbw .S,...)              ... ox_es1_E_orca0009

                    ********************************
                    * MULLIKEN POPULATION ANALYSIS *
                    ********************************

-----------------------
MULLIKEN ATOMIC CHARGES
-----------------------
   0 O :   -0.273452
   1 C :   -0.088563
   2 C :   -0.227777
   3 H :    0.162228
   4 H :    0.159074
   5 H :    0.137824
   6 H :    0.130665
Sum of atomic charges:   -0.0000000

--------------------------------
MULLIKEN REDUCED ORBITAL CHARGES
--------------------------------
  0 O s       :     3.903595  s :     3.903595
      pz      :     1.109755  p :     4.345061
      px      :     1.884021
      py      :     1.351285
      dz2     :     0.002754  d :     0.023810
      dxz     :     0.000191
      dyz     :     0.006822
      dx2y2   :     0.008614
      dxy     :     0.005428
      f0      :     0.000058  f :     0.000987
      f+1     :    -0.000009
      f-1     :     0.000065
      f+2     :     0.000170
      f-2     :     0.000027
      f+3     :     0.000291
      f-3     :     0.000386
  1 C s       :     3.218603  s :     3.218603
      pz      :     1.010848  p :     2.719518
      px      :     0.961129
      py      :     0.747541
      dz2     :     0.012963  d :     0.140478
      dxz     :     0.023703
      dyz     :     0.023097
      dx2y2   :     0.025403
      dxy     :     0.055311
      f0      :     0.001086  f :     0.009964
      f+1     :     0.001454
      f-1     :     0.000354
      f+2     :     0.001493
      f-2     :     0.000201
      f+3     :     0.003230
      f-3     :     0.002147
  2 C s       :     3.303205  s :     3.303205
      pz      :     1.015985  p :     2.878447
      px      :     0.951919
      py      :     0.910543
      dz2     :     0.005990  d :     0.042262
      dxz     :     0.011566
      dyz     :     0.003991
      dx2y2   :     0.005826
      dxy     :     0.014890
      f0      :     0.000492  f :     0.003862
      f+1     :     0.000766
      f-1     :     0.000348
      f+2     :     0.000452
      f-2     :     0.000134
      f+3     :     0.000754
      f-3     :     0.000916
  3 H s       :     0.810882  s :     0.810882
      pz      :     0.011355  p :     0.026890
      px      :     0.007839
      py      :     0.007695
  4 H s       :     0.819519  s :     0.819519
      pz      :     0.011087  p :     0.021407
      px      :     0.005516
      py      :     0.004804
  5 H s       :     0.838028  s :     0.838028
      pz      :     0.010323  p :     0.024148
      px      :     0.007140
      py      :     0.006684
  6 H s       :     0.845069  s :     0.845069
      pz      :     0.011388  p :     0.024265
      px      :     0.006199
      py      :     0.006678


                     *******************************
                     * LOEWDIN POPULATION ANALYSIS *
                     *******************************

----------------------
LOEWDIN ATOMIC CHARGES
----------------------
   0 O :    0.021358
   1 C :   -0.383770
   2 C :   -0.158314
   3 H :    0.129755
   4 H :    0.166617
   5 H :    0.111240
   6 H :    0.113113

-------------------------------
LOEWDIN REDUCED ORBITAL CHARGES
-------------------------------
  0 O s       :     3.579870  s :     3.579870
      pz      :     1.078755  p :     4.338966
      px      :     1.809007
      py      :     1.451205
      dz2     :     0.006557  d :     0.056421
      dxz     :     0.000294
      dyz     :     0.015044
      dx2y2   :     0.018641
      dxy     :     0.015884
      f0      :     0.000429  f :     0.003384
      f+1     :     0.000056
      f-1     :     0.000334
      f+2     :     0.000529
      f-2     :     0.000071
      f+3     :     0.000960
      f-3     :     0.001005
  1 C s       :     2.848796  s :     2.848796
      pz      :     1.004464  p :     2.938071
      px      :     1.062927
      py      :     0.870681
      dz2     :     0.074198  d :     0.523787
      dxz     :     0.095669
      dyz     :     0.057229
      dx2y2   :     0.143500
      dxy     :     0.153191
      f0      :     0.006783  f :     0.073116
      f+1     :     0.006534
      f-1     :     0.006455
      f+2     :     0.009090
      f-2     :     0.001438
      f+3     :     0.022488
      f-3     :     0.020328
  2 C s       :     2.931837  s :     2.931837
      pz      :     1.077048  p :     3.002408
      px      :     1.077471
      py      :     0.847889
      dz2     :     0.032642  d :     0.201733
      dxz     :     0.069576
      dyz     :     0.015912
      dx2y2   :     0.035250
      dxy     :     0.048353
      f0      :     0.002885  f :     0.022337
      f+1     :     0.003314
      f-1     :     0.002379
      f+2     :     0.002663
      f-2     :     0.002266
      f+3     :     0.003967
      f-3     :     0.004863
  3 H s       :     0.788665  s :     0.788665
      pz      :     0.035644  p :     0.081579
      px      :     0.023899
      py      :     0.022036
  4 H s       :     0.775833  s :     0.775833
      pz      :     0.030495  p :     0.057550
      px      :     0.014869
      py      :     0.012186
  5 H s       :     0.815984  s :     0.815984
      pz      :     0.031939  p :     0.072776
      px      :     0.020003
      py      :     0.020834
  6 H s       :     0.813867  s :     0.813867
      pz      :     0.034434  p :     0.073021
      px      :     0.017869
      py      :     0.020718


                      *****************************
                      * MAYER POPULATION ANALYSIS *
                      *****************************

  NA   - Mulliken gross atomic population
  ZA   - Total nuclear charge
  QA   - Mulliken gross atomic charge
  VA   - Mayer's total valence
  BVA  - Mayer's bonded valence
  FA   - Mayer's free valence

  ATOM       NA         ZA         QA         VA         BVA        FA
  0 O      8.2735     8.0000    -0.2735     1.8593     1.1789     0.6805
  1 C      6.0886     6.0000    -0.0886     4.0297     3.9420     0.0876
  2 C      6.2278     6.0000    -0.2278     3.8408     3.1057     0.7350
  3 H      0.8378     1.0000     0.1622     0.9804     0.9418     0.0386
  4 H      0.8409     1.0000     0.1591     0.9672     0.9131     0.0541
  5 H      0.8622     1.0000     0.1378     0.9748     0.9601     0.0148
  6 H      0.8693     1.0000     0.1307     0.9756     0.9632     0.0124

  Mayer bond orders larger than 0.100000
B(  0-O ,  1-C ) :   1.0248 B(  0-O ,  2-C ) :   0.1150 B(  1-C ,  2-C ) :   1.0932 
B(  1-C ,  3-H ) :   0.9232 B(  1-C ,  4-H ) :   0.8941 B(  2-C ,  5-H ) :   0.9472 
B(  2-C ,  6-H ) :   0.9537 


-------
TIMINGS
-------

Total TD-DFT gradient time         ...        6.776 sec

Fock matrix formation       ....       0.978 sec  ( 14.4%)
  Coulomb formation         ....       0.791 sec  ( 80.9% of F)
  RI-J                      ....       0.334 sec  ( 34.2% of F)
  Chain of spheres X        ....       0.456 sec  ( 46.7% of F)
  XC integration            ....       0.186 sec  ( 19.1% of F)
Z-vector equation           ....       2.614 sec  ( 38.6%)
One electron gradient       ....       0.038 sec  (  0.6%)
Prescreening matrices       ....       0.183 sec  (  2.7%)
RI-J Coulomb gradient       ....       0.300 sec  (  4.4%)
COSX gradient               ....       0.428 sec  (  6.3%)
XC gradient                 ....       1.901 sec  ( 28.1%)

Maximum memory used throughout the entire SCFGRAD-calculation: 130.2 MB

                            ***************************************
                            *     ORCA property calculations      *
                            ***************************************

                                    ---------------------
                                    Active property flags
                                    ---------------------
   (+) Dipole Moment


------------------------------------------------------------------------------
                       ORCA ELECTRIC PROPERTIES CALCULATION
------------------------------------------------------------------------------

Dipole Moment Calculation                       ... on
Quadrupole Moment Calculation                   ... off
Polarizability Calculation                      ... off
GBWName                                         ... ox_es1_E_orca0009.gbw
Electron density                                ... ox_es1_E_orca0009.scfp
The origin for moment calculation is the CENTER OF MASS  = (-0.672619,  0.032697  0.016922)

-------------
DIPOLE MOMENT
-------------
                                X             Y             Z
Electronic contribution:     -0.63232       1.46437       0.09823
Nuclear contribution   :      1.27533      -2.58770      -0.10045
                        -----------------------------------------
Total Dipole Moment    :      0.64301      -1.12332      -0.00221
                        -----------------------------------------
Magnitude (a.u.)       :      1.29434
Magnitude (Debye)      :      3.28996



--------------------
Rotational spectrum 
--------------------
 
Rotational constants in cm-1:     1.204079     0.391973     0.335687 
Rotational constants in MHz : 36097.366582 11751.048796 10063.652593 

 Dipole components along the rotational axes: 
x,y,z [a.u.] :    -1.149083    -0.595174     0.026462 
x,y,z [Debye]:    -2.920736    -1.512812     0.067260 

 

                        *** CIS RELAXED DENSITY ***

------------------------------------------------------------------------------
                       ORCA ELECTRIC PROPERTIES CALCULATION
------------------------------------------------------------------------------

Dipole Moment Calculation                       ... on
Quadrupole Moment Calculation                   ... off
Polarizability Calculation                      ... off
GBWName                                         ... ox_es1_E_orca0009.gbw
Electron density                                ... ox_es1_E_orca0009.cisp
The origin for moment calculation is the CENTER OF MASS  = (-0.672619,  0.032697  0.016922)

-------------
DIPOLE MOMENT
-------------
                                X             Y             Z
Electronic contribution:     -1.15281       1.61285       0.07096
Nuclear contribution   :      1.27533      -2.58770      -0.10045
                        -----------------------------------------
Total Dipole Moment    :      0.12252      -0.97484      -0.02948
                        -----------------------------------------
Magnitude (a.u.)       :      0.98295
Magnitude (Debye)      :      2.49847



--------------------
Rotational spectrum 
--------------------
 
Rotational constants in cm-1:     1.204079     0.391973     0.335687 
Rotational constants in MHz : 36097.366582 11751.048796 10063.652593 

 Dipole components along the rotational axes: 
x,y,z [a.u.] :    -0.631377    -0.753366     0.000776 
x,y,z [Debye]:    -1.604833    -1.914903     0.001972 

 

Timings for individual modules:

Sum of individual times         ...        9.867 sec (=   0.164 min)
GTO integral calculation        ...        0.273 sec (=   0.005 min)   2.8 %
SCF iterations                  ...        1.805 sec (=   0.030 min)  18.3 %
CIS module                      ...        0.843 sec (=   0.014 min)   8.5 %
SCF Gradient evaluation         ...        6.945 sec (=   0.116 min)  70.4 %
                             ****ORCA TERMINATED NORMALLY****
TOTAL RUN TIME: 0 days 0 hours 0 minutes 10 seconds 212 msec
