
                                 *****************
                                 * O   R   C   A *
                                 *****************

                                            #,                                       
                                            ###                                      
                                            ####                                     
                                            #####                                    
                                            ######                                   
                                           ########,                                 
                                     ,,################,,,,,                         
                               ,,#################################,,                 
                          ,,##########################################,,             
                       ,#########################################, ''#####,          
                    ,#############################################,,   '####,        
                  ,##################################################,,,,####,       
                ,###########''''           ''''###############################       
              ,#####''   ,,,,##########,,,,          '''####'''          '####       
            ,##' ,,,,###########################,,,                        '##       
           ' ,,###''''                  '''############,,,                           
         ,,##''                                '''############,,,,        ,,,,,,###''
      ,#''                                            '''#######################'''  
     '                                                          ''''####''''         
             ,#######,   #######,   ,#######,      ##                                
            ,#'     '#,  ##    ##  ,#'     '#,    #''#        ######   ,####,        
            ##       ##  ##   ,#'  ##            #'  '#       #        #'  '#        
            ##       ##  #######   ##           ,######,      #####,   #    #        
            '#,     ,#'  ##    ##  '#,     ,#' ,#      #,         ##   #,  ,#        
             '#######'   ##     ##  '#######'  #'      '#     #####' # '####'        



                  #######################################################
                  #                        -***-                        #
                  #          Department of theory and spectroscopy      #
                  #    Directorship and core code : Frank Neese         #
                  #        Max Planck Institute fuer Kohlenforschung    #
                  #                Kaiser Wilhelm Platz 1               #
                  #                 D-45470 Muelheim/Ruhr               #
                  #                      Germany                        #
                  #                                                     #
                  #                  All rights reserved                #
                  #                        -***-                        #
                  #######################################################


                         Program Version 5.0.2 -  RELEASE  -


 With contributions from (in alphabetic order):
   Daniel Aravena         : Magnetic Suceptibility
   Michael Atanasov       : Ab Initio Ligand Field Theory (pilot matlab implementation)
   Alexander A. Auer      : GIAO ZORA, VPT2 properties, NMR spectrum
   Ute Becker             : Parallelization
   Giovanni Bistoni       : ED, misc. LED, open-shell LED, HFLD
   Martin Brehm           : Molecular dynamics
   Dmytro Bykov           : SCF Hessian
   Vijay G. Chilkuri      : MRCI spin determinant printing, contributions to CSF-ICE
   Dipayan Datta          : RHF DLPNO-CCSD density
   Achintya Kumar Dutta   : EOM-CC, STEOM-CC
   Dmitry Ganyushin       : Spin-Orbit,Spin-Spin,Magnetic field MRCI
   Miquel Garcia          : C-PCM and meta-GGA Hessian, CC/C-PCM, Gaussian charge scheme
   Yang Guo               : DLPNO-NEVPT2, F12-NEVPT2, CIM, IAO-localization
   Andreas Hansen         : Spin unrestricted coupled pair/coupled cluster methods
   Benjamin Helmich-Paris : MC-RPA, TRAH-SCF, COSX integrals
   Lee Huntington         : MR-EOM, pCC
   Robert Izsak           : Overlap fitted RIJCOSX, COSX-SCS-MP3, EOM
   Marcus Kettner         : VPT2
   Christian Kollmar      : KDIIS, OOCD, Brueckner-CCSD(T), CCSD density, CASPT2, CASPT2-K
   Simone Kossmann        : Meta GGA functionals, TD-DFT gradient, OOMP2, MP2 Hessian
   Martin Krupicka        : Initial AUTO-CI
   Lucas Lang             : DCDCAS
   Marvin Lechner         : AUTO-CI (C++ implementation), FIC-MRCC
   Dagmar Lenk            : GEPOL surface, SMD
   Dimitrios Liakos       : Extrapolation schemes; Compound Job, initial MDCI parallelization
   Dimitrios Manganas     : Further ROCIS development; embedding schemes
   Dimitrios Pantazis     : SARC Basis sets
   Anastasios Papadopoulos: AUTO-CI, single reference methods and gradients
   Taras Petrenko         : DFT Hessian,TD-DFT gradient, ASA, ECA, R-Raman, ABS, FL, XAS/XES, NRVS
   Peter Pinski           : DLPNO-MP2, DLPNO-MP2 Gradient
   Christoph Reimann      : Effective Core Potentials
   Marius Retegan         : Local ZFS, SOC
   Christoph Riplinger    : Optimizer, TS searches, QM/MM, DLPNO-CCSD(T), (RO)-DLPNO pert. Triples
   Tobias Risthaus        : Range-separated hybrids, TD-DFT gradient, RPA, STAB
   Michael Roemelt        : Original ROCIS implementation
   Masaaki Saitow         : Open-shell DLPNO-CCSD energy and density
   Barbara Sandhoefer     : DKH picture change effects
   Avijit Sen             : IP-ROCIS
   Kantharuban Sivalingam : CASSCF convergence, NEVPT2, FIC-MRCI
   Bernardo de Souza      : ESD, SOC TD-DFT
   Georgi Stoychev        : AutoAux, RI-MP2 NMR, DLPNO-MP2 response
   Willem Van den Heuvel  : Paramagnetic NMR
   Boris Wezisla          : Elementary symmetry handling
   Frank Wennmohs         : Technical directorship


 We gratefully acknowledge several colleagues who have allowed us to
 interface, adapt or use parts of their codes:
   Stefan Grimme, W. Hujo, H. Kruse, P. Pracht,  : VdW corrections, initial TS optimization,
                  C. Bannwarth, S. Ehlert          DFT functionals, gCP, sTDA/sTD-DF
   Ed Valeev, F. Pavosevic, A. Kumar             : LibInt (2-el integral package), F12 methods
   Garnet Chan, S. Sharma, J. Yang, R. Olivares  : DMRG
   Ulf Ekstrom                                   : XCFun DFT Library
   Mihaly Kallay                                 : mrcc  (arbitrary order and MRCC methods)
   Jiri Pittner, Ondrej Demel                    : Mk-CCSD
   Frank Weinhold                                : gennbo (NPA and NBO analysis)
   Christopher J. Cramer and Donald G. Truhlar   : smd solvation model
   Lars Goerigk                                  : TD-DFT with DH, B97 family of functionals
   V. Asgeirsson, H. Jonsson                     : NEB implementation
   FAccTs GmbH                                   : IRC, NEB, NEB-TS, DLPNO-Multilevel, CI-OPT
                                                   MM, QMMM, 2- and 3-layer-ONIOM, Crystal-QMMM,
                                                   LR-CPCM, SF, NACMEs, symmetry and pop. for TD-DFT,
                                                   nearIR, NL-DFT gradient (VV10), updates on ESD,
                                                   ML-optimized integration grids
   S Lehtola, MJT Oliveira, MAL Marques          : LibXC Library
   Liviu Ungur et al                             : ANISO software


 Your calculation uses the libint2 library for the computation of 2-el integrals
 For citations please refer to: http://libint.valeyev.net

 Your ORCA version has been built with support for libXC version: 5.1.0
 For citations please refer to: https://tddft.org/programs/libxc/

 This ORCA versions uses:
   CBLAS   interface :  Fast vector & matrix operations
   LAPACKE interface :  Fast linear algebra routines
   SCALAPACK package :  Parallel linear algebra routines
   Shared memory     :  Shared parallel matrices
   BLAS/LAPACK       :  OpenBLAS 0.3.15  USE64BITINT DYNAMIC_ARCH NO_AFFINITY SkylakeX SINGLE_THREADED
        Core in use  :  SkylakeX
   Copyright (c) 2011-2014, The OpenBLAS Project


Your calculation utilizes the atom-pairwise dispersion correction
with the Becke-Johnson damping scheme (D3BJ)
Cite in your paper:
S.Grimme, S.Ehrlich, L.Goerigk, J Comput Chem, (2011), 32, 1456–1465 
S.Grimme, J.Antony, S.Ehrlich and H.Krieg, J.Chem.Phys., 132, (2010), 154104 
   

================================================================================

----- Orbital basis set information -----
Your calculation utilizes the basis: def2-TZVP
   F. Weigend and R. Ahlrichs, Phys. Chem. Chem. Phys. 7, 3297 (2005).

----- AuxJ basis set information -----
Your calculation utilizes the auxiliary basis: def2/J
   F. Weigend, Phys. Chem. Chem. Phys. 8, 1057 (2006).

================================================================================
                                        WARNINGS
                       Please study these warnings very carefully!
================================================================================

INFO   : Checking CIS options ...

WARNING: CIS/ROCIS methods need fully converged wavefunctions
  ===> : Setting SCFConvForced true
         You can overwrite this default with %scf ConvForced false 


INFO   : the flag for use of the SHARK integral package has been found!

================================================================================
                                       INPUT FILE
================================================================================
NAME = ox_es1_A_orca0022.inp
|  1> ! engrad PBE0 D3BJ def2-TZVP  
|  2> %pal nprocs 8 end
|  3> %maxcore 3000
|  4> 
|  5> %tddft
|  6>   nroots 1
|  7>   tda true
|  8>   Iroot 1
|  9>   end 
| 10> *xyz 0 1 
| 11> O   -0.03498622539962928 0.7776233055367111 -0.005616292484541491
| 12> C   -0.7399380699766611 -0.41631215499782875 0.03787538550236526
| 13> C   0.7023644826194736 -0.475811402032234 -0.013752584857582201
| 14> H   -1.3789189882367792 -0.7440303631099277 0.9883199333722262
| 15> H   -1.1815743843249358 -0.680722711977819 -0.8911483718472117
| 16> H   1.2793853277271767 -0.5143268195772381 -0.8639974744282711
| 17> H   1.2574269904259616 -0.7160478320300213 0.8396538539871213
| 18> *
| 19> 
| 20>                          ****END OF INPUT****
================================================================================

                     *******************************
                     * Energy+Gradient Calculation *
                     *******************************

---------------------------------
CARTESIAN COORDINATES (ANGSTROEM)
---------------------------------
  O     -0.034986    0.777623   -0.005616
  C     -0.739938   -0.416312    0.037875
  C      0.702364   -0.475811   -0.013753
  H     -1.378919   -0.744030    0.988320
  H     -1.181574   -0.680723   -0.891148
  H      1.279385   -0.514327   -0.863997
  H      1.257427   -0.716048    0.839654

----------------------------
CARTESIAN COORDINATES (A.U.)
----------------------------
  NO LB      ZA    FRAG     MASS         X           Y           Z
   0 O     8.0000    0    15.999   -0.066114    1.469495   -0.010613
   1 C     6.0000    0    12.011   -1.398280   -0.786716    0.071574
   2 C     6.0000    0    12.011    1.327277   -0.899153   -0.025989
   3 H     1.0000    0     1.008   -2.605779   -1.406014    1.867654
   4 H     1.0000    0     1.008   -2.232852   -1.286379   -1.684026
   5 H     1.0000    0     1.008    2.417688   -0.971937   -1.632719
   6 H     1.0000    0     1.008    2.376193   -1.353134    1.586716

--------------------------------
INTERNAL COORDINATES (ANGSTROEM)
--------------------------------
 O      0   0   0     0.000000000000     0.00000000     0.00000000
 C      1   0   0     1.387202405256     0.00000000     0.00000000
 C      2   1   0     1.444452235606    61.76467717     0.00000000
 H      2   1   3     1.191234937535   122.30217010   113.75526025
 H      2   1   3     1.062092612964   113.46288956   256.74401174
 H      3   2   1     1.028276648241   126.25748831   269.92414091
 H      3   2   1     1.045997361245   120.67470952   104.90783949

---------------------------
INTERNAL COORDINATES (A.U.)
---------------------------
 O      0   0   0     0.000000000000     0.00000000     0.00000000
 C      1   0   0     2.621432638251     0.00000000     0.00000000
 C      2   1   0     2.729619138825    61.76467717     0.00000000
 H      2   1   3     2.251107793100   122.30217010   113.75526025
 H      2   1   3     2.007064167364   113.46288956   256.74401174
 H      3   2   1     1.943161255083   126.25748831   269.92414091
 H      3   2   1     1.976648549558   120.67470952   104.90783949

---------------------
BASIS SET INFORMATION
---------------------
There are 3 groups of distinct atoms

 Group   1 Type O   : 11s6p2d1f contracted to 5s3p2d1f pattern {62111/411/11/1}
 Group   2 Type C   : 11s6p2d1f contracted to 5s3p2d1f pattern {62111/411/11/1}
 Group   3 Type H   : 5s1p contracted to 3s1p pattern {311/1}

Atom   0O    basis set group =>   1
Atom   1C    basis set group =>   2
Atom   2C    basis set group =>   2
Atom   3H    basis set group =>   3
Atom   4H    basis set group =>   3
Atom   5H    basis set group =>   3
Atom   6H    basis set group =>   3
---------------------------------
AUXILIARY/J BASIS SET INFORMATION
---------------------------------
There are 3 groups of distinct atoms

 Group   1 Type O   : 12s5p4d2f1g contracted to 6s4p3d1f1g pattern {711111/2111/211/2/1}
 Group   2 Type C   : 12s5p4d2f1g contracted to 6s4p3d1f1g pattern {711111/2111/211/2/1}
 Group   3 Type H   : 5s2p1d contracted to 3s1p1d pattern {311/2/1}

Atom   0O    basis set group =>   1
Atom   1C    basis set group =>   2
Atom   2C    basis set group =>   2
Atom   3H    basis set group =>   3
Atom   4H    basis set group =>   3
Atom   5H    basis set group =>   3
Atom   6H    basis set group =>   3

Checking for AutoStart:
The File: ox_es1_A_orca0022.gbw exists
Trying to determine its content:
     ... Fine, the file contains calculation information
     ... Fine, the calculation information was read
     ... Fine, the file contains a basis set
     ... Fine, the basis set was read
     ... Fine, the file contains a geometry
     ... Fine, the geometry was read
     ... Fine, the file contains a set of orbitals
     ... Fine, the orbitals can be read
     => possible old guess file was deleted
     => GBW file was renamed to GES file
     => GES file is set as startup file
     => Guess is set to MORead
     ... now leaving AutoStart



           ************************************************************
           *        Program running with 8 parallel MPI-processes     *
           *              working on a common directory               *
           ************************************************************
------------------------------------------------------------------------------
                           ORCA GTO INTEGRAL CALCULATION
                           -- RI-GTO INTEGRALS CHOSEN --
------------------------------------------------------------------------------
------------------------------------------------------------------------------
                   ___                                                        
                  /   \      - P O W E R E D   B Y -                         
                 /     \                                                     
                 |  |  |   _    _      __       _____    __    __             
                 |  |  |  | |  | |    /  \     |  _  \  |  |  /  |          
                  \  \/   | |  | |   /    \    | | | |  |  | /  /          
                 / \  \   | |__| |  /  /\  \   | |_| |  |  |/  /          
                |  |  |   |  __  | /  /__\  \  |    /   |      \           
                |  |  |   | |  | | |   __   |  |    \   |  |\   \          
                \     /   | |  | | |  |  |  |  | |\  \  |  | \   \       
                 \___/    |_|  |_| |__|  |__|  |_| \__\ |__|  \__/        
                                                                              
                      - O R C A' S   B I G   F R I E N D -                    
                                      &                                       
                       - I N T E G R A L  F E E D E R -                       
                                                                              
 v1 FN, 2020, v2 2021                                                         
------------------------------------------------------------------------------


Reading SHARK input file ox_es1_A_orca0022.SHARKINP.tmp ... ok
----------------------
SHARK INTEGRAL PACKAGE
----------------------

Number of atoms                             ...      7
Number of basis functions                   ...    117
Number of shells                            ...     49
Maximum angular momentum                    ...      3
Integral batch strategy                     ... SHARK/LIBINT Hybrid
RI-J (if used) integral strategy            ... SPLIT-RIJ (Revised 2003 algorithm where possible)
Printlevel                                  ...      1
Contraction scheme used                     ... SEGMENTED contraction
Coulomb Range Separation                    ... NOT USED
Exchange Range Separation                   ... NOT USED
Finite Nucleus Model                        ... NOT USED
Auxiliary Coulomb fitting basis             ... AVAILABLE
   # of basis functions in Aux-J            ...    191
   # of shells in Aux-J                     ...     65
   Maximum angular momentum in Aux-J        ...      4
Auxiliary J/K fitting basis                 ... NOT available
Auxiliary Correlation fitting basis         ... NOT available
Auxiliary 'external' fitting basis          ... NOT available
Integral threshold                          ...     2.500000e-11
Primitive cut-off                           ...     2.500000e-12
Primitive pair pre-selection threshold      ...     2.500000e-12

Calculating pre-screening integrals         ... done (  0.0 sec) Dimension = 49
Organizing shell pair data                  ... done (  0.0 sec)
Shell pair information
Total number of shell pairs                 ...      1225
Shell pairs after pre-screening             ...      1220
Total number of primitive shell pairs       ...      3648
Primitive shell pairs kept                  ...      3151
          la=0 lb=0:    373 shell pairs
          la=1 lb=0:    351 shell pairs
          la=1 lb=1:     91 shell pairs
          la=2 lb=0:    162 shell pairs
          la=2 lb=1:     78 shell pairs
          la=2 lb=2:     21 shell pairs
          la=3 lb=0:     81 shell pairs
          la=3 lb=1:     39 shell pairs
          la=3 lb=2:     18 shell pairs
          la=3 lb=3:      6 shell pairs

Calculating one electron integrals          ... done (  0.0 sec)
Calculating RI/J V-Matrix + Cholesky decomp.... done (  0.0 sec)
Calculating Nuclear repulsion               ... done (  0.0 sec) ENN=     75.852720798956 Eh

SHARK setup successfully completed in   0.1 seconds

Maximum memory used throughout the entire GTOINT-calculation: 14.9 MB


           ************************************************************
           *        Program running with 8 parallel MPI-processes     *
           *              working on a common directory               *
           ************************************************************
-------------------------------------------------------------------------------
                                 ORCA SCF
-------------------------------------------------------------------------------

------------
SCF SETTINGS
------------
Hamiltonian:
 Density Functional     Method          .... DFT(GTOs)
 Exchange Functional    Exchange        .... PBE
   PBE kappa parameter   XKappa         ....  0.804000
   PBE mue parameter    XMuePBE         ....  0.219520
 Correlation Functional Correlation     .... PBE
   PBE beta parameter  CBetaPBE         ....  0.066725
 LDA part of GGA corr.  LDAOpt          .... PW91-LDA
 Gradients option       PostSCFGGA      .... off
 Hybrid DFT is turned on
   Fraction HF Exchange ScalHFX         ....  0.250000
   Scaling of DF-GGA-X  ScalDFX         ....  0.750000
   Scaling of DF-GGA-C  ScalDFC         ....  1.000000
   Scaling of DF-LDA-C  ScalLDAC        ....  1.000000
   Perturbative correction              ....  0.000000
   Density functional embedding theory  .... OFF
   NL short-range parameter             ....  6.900000
 RI-approximation to the Coulomb term is turned on
   Number of AuxJ basis functions       .... 191
   RIJ-COSX (HFX calculated with COS-X)).... on


General Settings:
 Integral files         IntName         .... ox_es1_A_orca0022
 Hartree-Fock type      HFTyp           .... RHF
 Total Charge           Charge          ....    0
 Multiplicity           Mult            ....    1
 Number of Electrons    NEL             ....   24
 Basis Dimension        Dim             ....  117
 Nuclear Repulsion      ENuc            ....     75.8527207990 Eh

Convergence Acceleration:
 DIIS                   CNVDIIS         .... on
   Start iteration      DIISMaxIt       ....    12
   Startup error        DIISStart       ....  0.200000
   # of expansion vecs  DIISMaxEq       ....     5
   Bias factor          DIISBfac        ....   1.050
   Max. coefficient     DIISMaxC        ....  10.000
 Trust-Rad. Augm. Hess. CNVTRAH         .... auto
   Auto Start mean grad. ratio tolernc. ....  1.125000
   Auto Start start iteration           ....     1
   Auto Start num. interpolation iter.  ....    10
   Max. Number of Micro iterations      ....    16
   Max. Number of Macro iterations      .... Maxiter - #DIIS iter
   Number of Davidson start vectors     ....     2
   Converg. threshold I  (grad. norm)   ....   1.000e-05
   Converg. threshold II (energy diff.) ....   1.000e-08
   Grad. Scal. Fac. for Micro threshold ....   0.100
   Minimum threshold for Micro iter.    ....   0.010
   NR start threshold (gradient norm)   ....   0.001
   Initial trust radius                 ....   0.400
   Minimum AH scaling param. (alpha)    ....   1.000
   Maximum AH scaling param. (alpha)    .... 1000.000
   Orbital update algorithm             .... Taylor
   White noise on init. David. guess    .... on
   Maximum white noise                  ....   0.010
   Quad. conv. algorithm                .... NR
 SOSCF                  CNVSOSCF        .... on
   Start iteration      SOSCFMaxIt      ....   150
   Startup grad/error   SOSCFStart      ....  0.003300
 Level Shifting         CNVShift        .... on
   Level shift para.    LevelShift      ....    0.2500
   Turn off err/grad.   ShiftErr        ....    0.0010
 Zerner damping         CNVZerner       .... off
 Static damping         CNVDamp         .... on
   Fraction old density DampFac         ....    0.7000
   Max. Damping (<1)    DampMax         ....    0.9800
   Min. Damping (>=0)   DampMin         ....    0.0000
   Turn off err/grad.   DampErr         ....    0.1000
 Fernandez-Rico         CNVRico         .... off

SCF Procedure:
 Maximum # iterations   MaxIter         ....   125
 SCF integral mode      SCFMode         .... Direct
   Integral package                     .... SHARK and LIBINT hybrid scheme
 Reset frequency        DirectResetFreq ....    20
 Integral Threshold     Thresh          ....  2.500e-11 Eh
 Primitive CutOff       TCut            ....  2.500e-12 Eh

Convergence Tolerance:
 Convergence Check Mode ConvCheckMode   .... Total+1el-Energy
 Convergence forced     ConvForced      .... 1
 Energy Change          TolE            ....  1.000e-08 Eh
 1-El. energy change                    ....  1.000e-05 Eh
 Orbital Gradient       TolG            ....  1.000e-05
 Orbital Rotation angle TolX            ....  1.000e-05
 DIIS Error             TolErr          ....  5.000e-07


Diagonalization of the overlap matrix:
Smallest eigenvalue                        ... 3.370e-04
Time for diagonalization                   ...    0.001 sec
Threshold for overlap eigenvalues          ... 1.000e-08
Number of eigenvalues below threshold      ... 0
Time for construction of square roots      ...    0.002 sec
Total time needed                          ...    0.003 sec

---------------------
INITIAL GUESS: MOREAD
---------------------
Guess MOs are being read from file: ox_es1_A_orca0022.ges
Input Geometry matches current geometry (good)
Input basis set matches current basis set (good)
MOs were renormalized
MOs were reorthogonalized (Cholesky)
                      ------------------
                      INITIAL GUESS DONE (   0.0 sec)
                      ------------------
-------------------
DFT GRID GENERATION
-------------------

General Integration Accuracy     IntAcc      ... 4.388
Radial Grid Type                 RadialGrid  ... OptM3 with GC (2021)
Angular Grid (max. ang.)         AngularGrid ... 4 (Lebedev-302)
Angular grid pruning method      GridPruning ... 4 (adaptive)
Weight generation scheme         WeightScheme... Becke
Basis function cutoff            BFCut       ... 1.0000e-11
Integration weight cutoff        WCut        ... 1.0000e-14
Angular grids for H and He will be reduced by one unit
Partially contracted basis set               ... off
Rotationally invariant grid construction     ... off

Total number of grid points                  ...    31300
Total number of batches                      ...      492
Average number of points per batch           ...       63
Average number of grid points per atom       ...     4471
Time for grid setup =    0.119 sec

--------------------
COSX GRID GENERATION
--------------------

GRIDX 1
-------
General Integration Accuracy     IntAcc      ... 3.816
Radial Grid Type                 RadialGrid  ... OptM3 with GC (2021)
Angular Grid (max. ang.)         AngularGrid ... 1 (Lebedev-50)
Angular grid pruning method      GridPruning ... 4 (adaptive)
Weight generation scheme         WeightScheme... Becke
Basis function cutoff            BFCut       ... 1.0000e-11
Integration weight cutoff        WCut        ... 1.0000e-14
Angular grids for H and He will be reduced by one unit
Partially contracted basis set               ... on
Rotationally invariant grid construction     ... off

Total number of grid points                  ...     4035
Total number of batches                      ...       68
Average number of points per batch           ...       59
Average number of grid points per atom       ...      576
UseSFitting                                  ... on

GRIDX 2
-------
General Integration Accuracy     IntAcc      ... 4.020
Radial Grid Type                 RadialGrid  ... OptM3 with GC (2021)
Angular Grid (max. ang.)         AngularGrid ... 2 (Lebedev-110)
Angular grid pruning method      GridPruning ... 4 (adaptive)
Weight generation scheme         WeightScheme... Becke
Basis function cutoff            BFCut       ... 1.0000e-11
Integration weight cutoff        WCut        ... 1.0000e-14
Angular grids for H and He will be reduced by one unit
Partially contracted basis set               ... on
Rotationally invariant grid construction     ... off

Total number of grid points                  ...     8702
Total number of batches                      ...      140
Average number of points per batch           ...       62
Average number of grid points per atom       ...     1243
UseSFitting                                  ... on

GRIDX 3
-------
General Integration Accuracy     IntAcc      ... 4.338
Radial Grid Type                 RadialGrid  ... OptM3 with GC (2021)
Angular Grid (max. ang.)         AngularGrid ... 3 (Lebedev-194)
Angular grid pruning method      GridPruning ... 4 (adaptive)
Weight generation scheme         WeightScheme... Becke
Basis function cutoff            BFCut       ... 1.0000e-11
Integration weight cutoff        WCut        ... 1.0000e-14
Angular grids for H and He will be reduced by one unit
Partially contracted basis set               ... on
Rotationally invariant grid construction     ... off

Total number of grid points                  ...    19239
Total number of batches                      ...      304
Average number of points per batch           ...       63
Average number of grid points per atom       ...     2748
UseSFitting                                  ... on

Time for X-Grid setup             =    0.072 sec

--------------
SCF ITERATIONS
--------------
ITER       Energy         Delta-E        Max-DP      RMS-DP      [F,P]     Damp
               ***  Starting incremental Fock matrix formation  ***
                      *** Initiating the SOSCF procedure ***
                      *** Re-Reading the Fockian *** 
                      *** Removing any level shift *** 
ITER      Energy       Delta-E        Grad      Rot      Max-DP    RMS-DP
  0   -153.65762054 -153.6576205428  0.000000  0.000000  0.000001  0.000000
               *** Restarting incremental Fock matrix formation ***
                 **** Energy Check signals convergence ****
              ***Rediagonalizing the Fockian in SOSCF/NRSCF***

               *****************************************************
               *                     SUCCESS                       *
               *           SCF CONVERGED AFTER   1 CYCLES          *
               *****************************************************

Old exchange energy                            =     -5.003751771 Eh
New exchange energy                            =     -5.003741245 Eh
Exchange energy change after final integration =      0.000010525 Eh
Total energy after final integration           =   -153.657610017 Eh
Final COS-X integration done in                =     0.263 sec

----------------
TOTAL SCF ENERGY
----------------

Total Energy       :         -153.65761002 Eh           -4181.23614 eV

Components:
Nuclear Repulsion  :           75.85272080 Eh            2064.05747 eV
Electronic Energy  :         -229.51033082 Eh           -6245.29361 eV
One Electron Energy:         -358.31454352 Eh           -9750.23442 eV
Two Electron Energy:          128.80421270 Eh            3504.94082 eV
Max COSX asymmetry :            0.00000332 Eh               0.00009 eV

Virial components:
Potential Energy   :         -306.74623640 Eh           -8346.98945 eV
Kinetic Energy     :          153.08862638 Eh            4165.75331 eV
Virial Ratio       :            2.00371669


DFT components:
N(Alpha)           :       12.000000319257 electrons
N(Beta)            :       12.000000319257 electrons
N(Total)           :       24.000000638515 electrons
E(X)               :      -14.979659758105 Eh       
E(C)               :       -0.791896317381 Eh       
E(XC)              :      -15.771556075486 Eh       
DFET-embed. en.    :        0.000000000000 Eh       

---------------
SCF CONVERGENCE
---------------

  Last Energy change         ...   -2.1885e-12  Tolerance :   1.0000e-08
  Last MAX-Density change    ...    5.8287e-16  Tolerance :   1.0000e-07
  Last RMS-Density change    ...    1.8536e-17  Tolerance :   5.0000e-09
  Last Orbital Gradient      ...    3.0856e-07  Tolerance :   1.0000e-05
  Last Orbital Rotation      ...    5.4908e-07  Tolerance :   1.0000e-05

             **** THE GBW FILE WAS UPDATED (ox_es1_A_orca0022.gbw) ****
             **** DENSITY ox_es1_A_orca0022.scfp WAS UPDATED ****
             **** ENERGY FILE WAS UPDATED (ox_es1_A_orca0022.en.tmp) ****
             **** THE GBW FILE WAS UPDATED (ox_es1_A_orca0022.gbw) ****
             **** DENSITY ox_es1_A_orca0022.scfp WAS UPDATED ****
----------------
ORBITAL ENERGIES
----------------

  NO   OCC          E(Eh)            E(eV) 
   0   2.0000     -19.223795      -523.1061 
   1   2.0000     -10.282090      -279.7899 
   2   2.0000     -10.263268      -279.2777 
   3   2.0000      -1.113758       -30.3069 
   4   2.0000      -0.707295       -19.2465 
   5   2.0000      -0.657812       -17.9000 
   6   2.0000      -0.533526       -14.5180 
   7   2.0000      -0.505771       -13.7627 
   8   2.0000      -0.417570       -11.3627 
   9   2.0000      -0.395330       -10.7575 
  10   2.0000      -0.332929        -9.0595 
  11   2.0000      -0.290425        -7.9029 
  12   0.0000       0.059416         1.6168 
  13   0.0000       0.074010         2.0139 
  14   0.0000       0.086935         2.3656 
  15   0.0000       0.100532         2.7356 
  16   0.0000       0.108621         2.9557 
  17   0.0000       0.154803         4.2124 
  18   0.0000       0.191474         5.2103 
  19   0.0000       0.221136         6.0174 
  20   0.0000       0.267048         7.2667 
  21   0.0000       0.271897         7.3987 
  22   0.0000       0.290340         7.9006 
  23   0.0000       0.334351         9.0982 
  24   0.0000       0.370329        10.0772 
  25   0.0000       0.394461        10.7338 
  26   0.0000       0.406899        11.0723 
  27   0.0000       0.449112        12.2210 
  28   0.0000       0.450971        12.2715 
  29   0.0000       0.463867        12.6225 
  30   0.0000       0.513314        13.9680 
  31   0.0000       0.533198        14.5091 
  32   0.0000       0.544088        14.8054 
  33   0.0000       0.694200        18.8901 
  34   0.0000       0.711962        19.3735 
  35   0.0000       0.732017        19.9192 
  36   0.0000       0.818311        22.2674 
  37   0.0000       0.851499        23.1705 
  38   0.0000       0.895116        24.3573 
  39   0.0000       0.954765        25.9805 
  40   0.0000       1.020198        27.7610 
  41   0.0000       1.032938        28.1077 
  42   0.0000       1.078280        29.3415 
  43   0.0000       1.092228        29.7210 
  44   0.0000       1.166283        31.7362 
  45   0.0000       1.356286        36.9064 
  46   0.0000       1.460090        39.7311 
  47   0.0000       1.485562        40.4242 
  48   0.0000       1.519242        41.3407 
  49   0.0000       1.534458        41.7547 
  50   0.0000       1.574357        42.8404 
  51   0.0000       1.629338        44.3365 
  52   0.0000       1.667471        45.3742 
  53   0.0000       1.718290        46.7570 
  54   0.0000       1.769255        48.1439 
  55   0.0000       1.812945        49.3327 
  56   0.0000       1.825596        49.6770 
  57   0.0000       1.907953        51.9181 
  58   0.0000       1.944031        52.8998 
  59   0.0000       1.994653        54.2773 
  60   0.0000       2.117410        57.6176 
  61   0.0000       2.162419        58.8424 
  62   0.0000       2.172772        59.1241 
  63   0.0000       2.265854        61.6570 
  64   0.0000       2.289893        62.3111 
  65   0.0000       2.399690        65.2989 
  66   0.0000       2.411426        65.6182 
  67   0.0000       2.506222        68.1978 
  68   0.0000       2.574503        70.0558 
  69   0.0000       2.595373        70.6237 
  70   0.0000       2.619876        71.2904 
  71   0.0000       2.656884        72.2975 
  72   0.0000       2.714432        73.8635 
  73   0.0000       2.742681        74.6321 
  74   0.0000       2.786869        75.8346 
  75   0.0000       2.814608        76.5894 
  76   0.0000       2.881492        78.4094 
  77   0.0000       2.951927        80.3260 
  78   0.0000       3.000066        81.6359 
  79   0.0000       3.016249        82.0763 
  80   0.0000       3.038105        82.6710 
  81   0.0000       3.075281        83.6826 
  82   0.0000       3.166366        86.1612 
  83   0.0000       3.250464        88.4496 
  84   0.0000       3.323256        90.4304 
  85   0.0000       3.344988        91.0218 
  86   0.0000       3.372473        91.7696 
  87   0.0000       3.426960        93.2523 
  88   0.0000       3.577846        97.3581 
  89   0.0000       3.613470        98.3275 
  90   0.0000       3.680029       100.1387 
  91   0.0000       3.714905       101.0877 
  92   0.0000       3.943139       107.2983 
  93   0.0000       4.013761       109.2200 
  94   0.0000       4.129333       112.3649 
  95   0.0000       4.187455       113.9464 
  96   0.0000       4.224733       114.9608 
  97   0.0000       4.321039       117.5815 
  98   0.0000       4.489685       122.1705 
  99   0.0000       4.593123       124.9852 
 100   0.0000       4.723435       128.5312 
 101   0.0000       4.845789       131.8606 
 102   0.0000       5.305403       144.3673 
 103   0.0000       5.449649       148.2925 
 104   0.0000       5.705247       155.2477 
 105   0.0000       5.770400       157.0206 
 106   0.0000       5.819054       158.3445 
 107   0.0000       5.910752       160.8397 
 108   0.0000       6.070572       165.1887 
 109   0.0000       6.598510       179.5546 
 110   0.0000       6.635779       180.5687 
 111   0.0000       6.803127       185.1225 
 112   0.0000       6.970786       189.6847 
 113   0.0000       7.176140       195.2727 
 114   0.0000      22.331980       607.6841 
 115   0.0000      22.544000       613.4534 
 116   0.0000      43.874946      1193.8980 

                    ********************************
                    * MULLIKEN POPULATION ANALYSIS *
                    ********************************

-----------------------
MULLIKEN ATOMIC CHARGES
-----------------------
   0 O :   -0.315674
   1 C :   -0.035365
   2 C :   -0.102315
   3 H :    0.111106
   4 H :    0.098518
   5 H :    0.128489
   6 H :    0.115241
Sum of atomic charges:   -0.0000000

--------------------------------
MULLIKEN REDUCED ORBITAL CHARGES
--------------------------------
  0 O s       :     3.856320  s :     3.856320
      pz      :     1.833572  p :     4.413159
      px      :     1.320404
      py      :     1.259184
      dz2     :     0.005844  d :     0.043917
      dxz     :     0.002765
      dyz     :     0.007022
      dx2y2   :     0.012675
      dxy     :     0.015612
      f0      :     0.000269  f :     0.002277
      f+1     :     0.000198
      f-1     :     0.000479
      f+2     :     0.000094
      f-2     :     0.000216
      f+3     :     0.000391
      f-3     :     0.000629
  1 C s       :     3.214270  s :     3.214270
      pz      :     1.023399  p :     2.688412
      px      :     0.901128
      py      :     0.763886
      dz2     :     0.005180  d :     0.120345
      dxz     :     0.026928
      dyz     :     0.034082
      dx2y2   :     0.030430
      dxy     :     0.023725
      f0      :     0.001630  f :     0.012337
      f+1     :     0.001312
      f-1     :     0.000778
      f+2     :     0.001346
      f-2     :     0.001878
      f+3     :     0.002062
      f-3     :     0.003331
  2 C s       :     3.219640  s :     3.219640
      pz      :     1.072024  p :     2.763567
      px      :     0.910620
      py      :     0.780924
      dz2     :     0.005426  d :     0.107691
      dxz     :     0.026696
      dyz     :     0.027281
      dx2y2   :     0.029038
      dxy     :     0.019250
      f0      :     0.001441  f :     0.011417
      f+1     :     0.001348
      f-1     :     0.000575
      f+2     :     0.001464
      f-2     :     0.001565
      f+3     :     0.002143
      f-3     :     0.002882
  3 H s       :     0.871556  s :     0.871556
      pz      :     0.008606  p :     0.017339
      px      :     0.005816
      py      :     0.002917
  4 H s       :     0.879085  s :     0.879085
      pz      :     0.011540  p :     0.022397
      px      :     0.006235
      py      :     0.004621
  5 H s       :     0.848400  s :     0.848400
      pz      :     0.010895  p :     0.023111
      px      :     0.007625
      py      :     0.004592
  6 H s       :     0.862252  s :     0.862252
      pz      :     0.010485  p :     0.022508
      px      :     0.007373
      py      :     0.004650


                     *******************************
                     * LOEWDIN POPULATION ANALYSIS *
                     *******************************

----------------------
LOEWDIN ATOMIC CHARGES
----------------------
   0 O :    0.138400
   1 C :   -0.337961
   2 C :   -0.260967
   3 H :    0.135084
   4 H :    0.111760
   5 H :    0.105544
   6 H :    0.108139

-------------------------------
LOEWDIN REDUCED ORBITAL CHARGES
-------------------------------
  0 O s       :     3.376414  s :     3.376414
      pz      :     1.713514  p :     4.382913
      px      :     1.302428
      py      :     1.366971
      dz2     :     0.011748  d :     0.095287
      dxz     :     0.008255
      dyz     :     0.015741
      dx2y2   :     0.033884
      dxy     :     0.025658
      f0      :     0.000677  f :     0.006986
      f+1     :     0.000257
      f-1     :     0.000938
      f+2     :     0.000187
      f-2     :     0.000990
      f+3     :     0.001226
      f-3     :     0.002712
  1 C s       :     2.820298  s :     2.820298
      pz      :     1.037914  p :     2.912490
      px      :     1.037657
      py      :     0.836919
      dz2     :     0.054459  d :     0.523261
      dxz     :     0.134774
      dyz     :     0.104706
      dx2y2   :     0.115911
      dxy     :     0.113411
      f0      :     0.011457  f :     0.081912
      f+1     :     0.005861
      f-1     :     0.006334
      f+2     :     0.008972
      f-2     :     0.008485
      f+3     :     0.016298
      f-3     :     0.024503
  2 C s       :     2.805481  s :     2.805481
      pz      :     1.067581  p :     2.923434
      px      :     1.034476
      py      :     0.821378
      dz2     :     0.049404  d :     0.461514
      dxz     :     0.143038
      dyz     :     0.071455
      dx2y2   :     0.104443
      dxy     :     0.093174
      f0      :     0.008600  f :     0.070537
      f+1     :     0.006206
      f-1     :     0.005817
      f+2     :     0.009186
      f-2     :     0.006131
      f+3     :     0.014451
      f-3     :     0.020147
  3 H s       :     0.818030  s :     0.818030
      pz      :     0.024694  p :     0.046886
      px      :     0.014129
      py      :     0.008064
  4 H s       :     0.822833  s :     0.822833
      pz      :     0.034906  p :     0.065406
      px      :     0.016893
      py      :     0.013607
  5 H s       :     0.822619  s :     0.822619
      pz      :     0.035036  p :     0.071837
      px      :     0.022009
      py      :     0.014792
  6 H s       :     0.823889  s :     0.823889
      pz      :     0.033097  p :     0.067972
      px      :     0.020566
      py      :     0.014310


                      *****************************
                      * MAYER POPULATION ANALYSIS *
                      *****************************

  NA   - Mulliken gross atomic population
  ZA   - Total nuclear charge
  QA   - Mulliken gross atomic charge
  VA   - Mayer's total valence
  BVA  - Mayer's bonded valence
  FA   - Mayer's free valence

  ATOM       NA         ZA         QA         VA         BVA        FA
  0 O      8.3157     8.0000    -0.3157     2.0043     2.0043     0.0000
  1 C      6.0354     6.0000    -0.0354     3.9864     3.9864    -0.0000
  2 C      6.1023     6.0000    -0.1023     3.9669     3.9669     0.0000
  3 H      0.8889     1.0000     0.1111     0.9594     0.9594    -0.0000
  4 H      0.9015     1.0000     0.0985     0.9545     0.9545     0.0000
  5 H      0.8715     1.0000     0.1285     0.9664     0.9664    -0.0000
  6 H      0.8848     1.0000     0.1152     0.9611     0.9611    -0.0000

  Mayer bond orders larger than 0.100000
B(  0-O ,  1-C ) :   1.0243 B(  0-O ,  2-C ) :   0.9531 B(  1-C ,  2-C ) :   1.0692 
B(  1-C ,  3-H ) :   0.9324 B(  1-C ,  4-H ) :   0.9513 B(  2-C ,  5-H ) :   0.9679 
B(  2-C ,  6-H ) :   0.9578 

-------
TIMINGS
-------

Total SCF time: 0 days 0 hours 0 min 1 sec 

Total time                  ....       1.016 sec
Sum of individual times     ....       0.909 sec  ( 89.4%)

Fock matrix formation       ....       0.701 sec  ( 69.0%)
  Split-RI-J                ....       0.112 sec  ( 16.0% of F)
  Chain of spheres X        ....       0.524 sec  ( 74.7% of F)
  XC integration            ....       0.063 sec  (  9.0% of F)
    Basis function eval.    ....       0.018 sec  ( 27.9% of XC)
    Density eval.           ....       0.014 sec  ( 21.8% of XC)
    XC-Functional eval.     ....       0.004 sec  (  6.0% of XC)
    XC-Potential eval.      ....       0.020 sec  ( 32.2% of XC)
Diagonalization             ....       0.002 sec  (  0.2%)
Density matrix formation    ....       0.000 sec  (  0.0%)
Population analysis         ....       0.003 sec  (  0.3%)
Initial guess               ....       0.007 sec  (  0.7%)
Orbital Transformation      ....       0.000 sec  (  0.0%)
Orbital Orthonormalization  ....       0.001 sec  (  0.1%)
DIIS solution               ....       0.001 sec  (  0.1%)
SOSCF solution              ....       0.002 sec  (  0.2%)
Grid generation             ....       0.192 sec  ( 18.9%)

Maximum memory used throughout the entire SCF-calculation: 61.1 MB


           ************************************************************
           *        Program running with 8 parallel MPI-processes     *
           *              working on a common directory               *
           ************************************************************
------------------------------------------------------------------------------
                        ORCA TD-DFT/TDA CALCULATION
------------------------------------------------------------------------------

Input orbitals are from        ... ox_es1_A_orca0022.gbw
CI-vector output               ... ox_es1_A_orca0022.cis
Tamm-Dancoff approximation     ... operative
CIS-Integral strategy          ... AO-integrals
Integral handling              ... AO integral Direct
Max. core memory used          ... 3000 MB
Reference state                ... RHF
Generation of triplets         ... off
Follow IRoot                   ... off
Number of operators            ... 1
Orbital ranges used for CIS calculation:
 Operator 0:  Orbitals   3... 11  to  12...116
XAS localization array:
 Operator 0:  Orbitals  -1... -1

-------------------
XC-INTEGRATION GRID
-------------------

General Integration Accuracy     IntAcc      ... 3.467
Radial Grid Type                 RadialGrid  ... OptM3 with GC (2021)
Angular Grid (max. ang.)         AngularGrid ... 1 (Lebedev-50)
Angular grid pruning method      GridPruning ... 4 (adaptive)
Weight generation scheme         WeightScheme... Becke
Basis function cutoff            BFCut       ... 1.0000e-11
Integration weight cutoff        WCut        ... 1.0000e-14
Angular grids for H and He will be reduced by one unit
Partially contracted basis set               ... off
Rotationally invariant grid construction     ... off

Total number of grid points                  ...     4535
Total number of batches                      ...       75
Average number of points per batch           ...       60
Average number of grid points per atom       ...      648

---------------------
COSX-INTEGRATION GRID
---------------------

General Integration Accuracy     IntAcc      ... 3.067
Radial Grid Type                 RadialGrid  ... OptM3 with GC (2021)
Angular Grid (max. ang.)         AngularGrid ... 1 (Lebedev-50)
Angular grid pruning method      GridPruning ... 4 (adaptive)
Weight generation scheme         WeightScheme... Becke
Basis function cutoff            BFCut       ... 1.0000e-11
Integration weight cutoff        WCut        ... 1.0000e-14
Angular grids for H and He will be reduced by one unit
Partially contracted basis set               ... on
Rotationally invariant grid construction     ... off

Total number of grid points                  ...     2084
Total number of batches                      ...       38
Average number of points per batch           ...       54
Average number of grid points per atom       ...      298

---------------
TD-DFT XC SETUP
---------------

DFT calculation                         ... on
Name of the grid file                   ... ox_es1_A_orca0022.grid_cis.tmp
Exchange functional (TD-DFT)            ... PBE
   PBE kappa parameter  XKappa (TD-DFT) ...  0.804000
   PBE mue parameter   XMuePBE (TD-DFT) ...  0.219520
Correlation functional (TD-DFT)         ... PBE
   PBE beta parameter CBetaPBE (TD-DFT) ...  0.066725
 LDA part of GGA corr.  LDAOpt (TD-DFT) ... PW91-LDA
Hybrid DFT                              ... on
   Exchange mixing (TD-DFT)             ...  0.250
   GGA exch. scaling (TD-DFT)           ...  0.750
   GGA corr. scaling (TD-DFT)           ...  1.000

Building densities             ... done
Calculating rho(r) on the grid ... done
Building xc-kernel on the grid ... done
                    *** TD-DFT CALCULATION INITIALIZED ***

------------------------
DAVIDSON-DIAGONALIZATION
------------------------

Dimension of the eigenvalue problem            ...    945
Number of roots to be determined               ...      1
Maximum size of the expansion space            ...     10
Maximum number of iterations                   ...    100
Convergence tolerance for the residual         ...    2.500e-07
Convergence tolerance for the energies         ...    2.500e-07
Orthogonality tolerance                        ...    1.000e-14
Level Shift                                    ...    0.000e+00
Constructing the preconditioner                ... o.k.
Building the initial guess                     ... o.k.
Number of trial vectors determined             ...     10


                       ****Iteration    0****

   Memory handling for direct AO based CIS:
   Memory per vector needed      ...     1 MB
   Memory needed                 ...     1 MB
   Memory available              ...  3000 MB
   Number of vectors per batch   ...  3000
   Number of batches             ...     1
   Time for densities:            0.001
   Time for RI-J (Direct):        0.015
   Time for K (COSX):             0.055
   Time for XC-Integration:       0.016
   Time for Sigma-Completion:     0.000
   Size of expansion space: 3
   Lowest Energy          :     0.294669181485
   Maximum Energy change  :     0.294669181485 (vector 0)
   Maximum residual norm  :     0.004592573282

                       ****Iteration    1****
   Time for densities:            0.000
   Time for RI-J (Direct):        0.012
   Time for K (COSX):             0.049
   Time for XC-Integration:       0.007
   Time for Sigma-Completion:     0.000
   Size of expansion space: 4
   Lowest Energy          :     0.290762326808
   Maximum Energy change  :     0.003906854678 (vector 0)
   Maximum residual norm  :     0.000896993600

                       ****Iteration    2****
   Time for densities:            0.000
   Time for RI-J (Direct):        0.012
   Time for K (COSX):             0.049
   Time for XC-Integration:       0.007
   Time for Sigma-Completion:     0.000
   Size of expansion space: 5
   Lowest Energy          :     0.289503932951
   Maximum Energy change  :     0.001258393857 (vector 0)
   Maximum residual norm  :     0.000227616490

                       ****Iteration    3****
   Time for densities:            0.000
   Time for RI-J (Direct):        0.012
   Time for K (COSX):             0.049
   Time for XC-Integration:       0.007
   Time for Sigma-Completion:     0.000
   Size of expansion space: 6
   Lowest Energy          :     0.289176228564
   Maximum Energy change  :     0.000327704387 (vector 0)
   Maximum residual norm  :     0.000072037986

                       ****Iteration    4****
   Time for densities:            0.000
   Time for RI-J (Direct):        0.012
   Time for K (COSX):             0.049
   Time for XC-Integration:       0.007
   Time for Sigma-Completion:     0.000
   Size of expansion space: 7
   Lowest Energy          :     0.289032165439
   Maximum Energy change  :     0.000144063125 (vector 0)
   Maximum residual norm  :     0.000022011599

                       ****Iteration    5****
   Time for densities:            0.000
   Time for RI-J (Direct):        0.012
   Time for K (COSX):             0.049
   Time for XC-Integration:       0.007
   Time for Sigma-Completion:     0.000
   Size of expansion space: 8
   Lowest Energy          :     0.289007196867
   Maximum Energy change  :     0.000024968572 (vector 0)
   Maximum residual norm  :     0.000001817557

                       ****Iteration    6****
   Time for densities:            0.000
   Time for RI-J (Direct):        0.012
   Time for K (COSX):             0.049
   Time for XC-Integration:       0.007
   Time for Sigma-Completion:     0.000
   Size of expansion space: 9
   Lowest Energy          :     0.289004978120
   Maximum Energy change  :     0.000002218747 (vector 0)
   Maximum residual norm  :     0.000000256720

                       ****Iteration    7****
   Time for densities:            0.000
   Time for RI-J (Direct):        0.012
   Time for K (COSX):             0.049
   Time for XC-Integration:       0.007
   Time for Sigma-Completion:     0.000
   Size of expansion space: 10
   Lowest Energy          :     0.289004600759
   Maximum Energy change  :     0.000000377361 (vector 0)
   Maximum residual norm  :     0.000000018254

      *** CONVERGENCE OF RESIDUAL NORM REACHED ***

Storing the converged CI vectors               ... ox_es1_A_orca0022.cis1

                 *** DAVIDSON DONE ***

Total time for solving the CIS problem:     0.570sec

------------------------------------
TD-DFT/TDA EXCITED STATES (SINGLETS)
------------------------------------

the weight of the individual excitations are printed if larger than 1.0e-02

STATE  1:  E=   0.289005 au      7.864 eV    63429.2 cm**-1 <S**2> =   0.000000
    11a ->  12a  :     0.496841 (c= -0.70486922)
    11a ->  13a  :     0.431898 (c=  0.65718922)
    11a ->  14a  :     0.015351 (c= -0.12390055)
    11a ->  15a  :     0.028406 (c= -0.16853955)
    11a ->  16a  :     0.016128 (c=  0.12699462)


-----------------------------
TD-DFT/TDA-EXCITATION SPECTRA
-----------------------------

Center of mass = ( -0.0444, -0.0408,  0.0117)
Calculating the Dipole integrals                  ... done
Transforming integrals                            ... done
Calculating the Linear Momentum integrals         ... done
Transforming integrals                            ... done
Calculating angular momentum integrals            ... done
Transforming integrals                            ... done

-----------------------------------------------------------------------------
         ABSORPTION SPECTRUM VIA TRANSITION ELECTRIC DIPOLE MOMENTS
-----------------------------------------------------------------------------
State   Energy    Wavelength  fosc         T2        TX        TY        TZ  
        (cm-1)      (nm)                 (au**2)    (au)      (au)      (au) 
-----------------------------------------------------------------------------
   1   63429.2    157.7   0.013820428   0.07173  -0.06909  -0.05554   0.25273

-----------------------------------------------------------------------------
         ABSORPTION SPECTRUM VIA TRANSITION VELOCITY DIPOLE MOMENTS
-----------------------------------------------------------------------------
State   Energy    Wavelength   fosc        P2         PX        PY        PZ  
        (cm-1)      (nm)                 (au**2)     (au)      (au)      (au) 
-----------------------------------------------------------------------------
   1   63429.2    157.7   0.027615781   0.01197   0.01073   0.00209  -0.10887

-------------------------------------------------------------------
                             CD SPECTRUM
-------------------------------------------------------------------
State  Energy     Wavelength     R         MX        MY        MZ   
       (cm-1)       (nm)     (1e40*cgs)   (au)      (au)      (au)  
-------------------------------------------------------------------
   1   63429.2    157.7     -2.82527   0.20390  -0.12051   0.00555

-------------------------------------------------------------------
         CD SPECTRUM VIA TRANSITION VELOCITY DIPOLE MOMENTS        
-------------------------------------------------------------------
State  Energy     Wavelength     R         MX        MY        MZ   
       (cm-1)       (nm)     (1e40*cgs)   (au)      (au)      (au)  
-------------------------------------------------------------------
   1   63429.2    157.7      2.17280   0.20390  -0.12051   0.00555

Total run time:        0.848 sec

           *** ORCA-CIS/TD-DFT FINISHED WITHOUT ERROR ***

Maximum memory used throughout the entire CIS-calculation: 49.4 MB

-----------------------
CIS/TD-DFT TOTAL ENERGY
-----------------------

    E(SCF)  =   -153.657610017 Eh
    DE(CIS) =      0.289004601 Eh (Root  1)
    ----------------------------- ---------
    E(tot)  =   -153.368605417 Eh



-------------------------------------------------------------------------------
                          DFT DISPERSION CORRECTION                            
                                                                               
                              DFTD3 V3.1  Rev 1                                
                          USING Becke-Johnson damping                          
-------------------------------------------------------------------------------
The PBE0 functional is recognized
Active option DFTDOPT                   ...         4   

molecular C6(AA) [au] = 351.014358 


            DFT-D V3
 parameters
 s6 scaling factor         :     1.0000 
 a1 scaling factor         :     0.4145 
 s8 scaling factor         :     1.2177 
 a2 scaling factor         :     4.8593 
 ad hoc parameters k1-k3   :    16.0000     1.3333    -4.0000 

 Edisp/kcal,au: -1.510609966091  -0.002407309957 
 E6   /kcal   :  -0.990555964 
 E8   /kcal   :  -0.520054003 
 % E8         :  34.426755699 

-------------------------   ----------------
Dispersion correction           -0.002407310
-------------------------   ----------------


-------------------------   --------------------
FINAL SINGLE POINT ENERGY      -153.371012726583
-------------------------   --------------------



           ************************************************************
           *        Program running with 8 parallel MPI-processes     *
           *              working on a common directory               *
           ************************************************************
------------------------------------------------------------------------------
                         ORCA SCF GRADIENT CALCULATION
------------------------------------------------------------------------------


------------------------
TD-DFT GRADIENT XC SETUP
------------------------

Building densities                     ... done
Calculating rho(r) on the grid         ... done
Building xc-kernel on the grid         ... done
Building xc 3rd derivative on the grid      ... done
                *** TD-DFT GRADIENT CALCULATION INITIALIZED ***

-------------------
TD-DFT/TDA GRADIENT
-------------------

Reference wavefunction             ... RHF
State of interest                  ... 1
Basis dimension                    ... 117
DFT-XC contribution needed         ... YES
RI-approximation                   ... ON
CIS-vectors being read from        ... ox_es1_A_orca0022.cis

 => Number of Vectors found: 1
 => Orbital Window: 3...11 -> 12...116

Reading the CIS file                     ... done
Norm of the CI vector                    ... 1.000000000
Making the CIS (pseudo)densities         ... done
Making operators G(D) and Q(T)           ... done
Transforming the Fock operators          ... done
Making the frozen-core relaxed density   ... done
Constructing the G(H) operator           ... done
Transforming the G(H) operator           ... done
Calculating the CIS Lagrangian           ... done
Solving the Z-vector equations           ... done
Finalizing the relaxed density           ... done
Storing the relaxed density              ... done
Constructing the G(Z) operator           ... done
Transforming the G(Z) operator           ... done
Making the W-matrix                      ... done
Finalizing the W-matrix                  ... done
Transforming the W-matrix                ... done
Nuclear repulsion gradient               ... done
One-Electron gradient                    ... done
Dispersion correction                    ... done
Prescreening matrices                    ... done
COSX-gradient                            ... done
Coulomb gradient (RI)                    ... done
Exchange-Correlation gradient            ... done

                 ---------------------------
                 EXCITED STATE GRADIENT DONE
                 ---------------------------

------------------
CARTESIAN GRADIENT
------------------

   1   O   :    0.073687374   -0.130788085    0.004208942
   2   C   :    0.011261590    0.033357690   -0.041086350
   3   C   :   -0.048552248    0.125418854   -0.031280772
   4   H   :   -0.021671572   -0.020105210    0.034782486
   5   H   :    0.023735995   -0.005305453    0.015524917
   6   H   :   -0.023388987   -0.006997133    0.044371450
   7   H   :   -0.015092776    0.004372104   -0.026495091

Difference to translation invariance:
           :   -0.0000206236   -0.0000472331    0.0000255827

Difference to rotation invariance:
           :    0.0002213428    0.0004061466    0.0000055116

Norm of the cartesian gradient     ...    0.2257795478
RMS gradient                       ...    0.0492691366
MAX gradient                       ...    0.1307880847

------------------------------------------------------------------------------
                  RELAXED CIS/TDA DENSITY POPULATION ANALYSIS
                                   IROOT 1
------------------------------------------------------------------------------
------------------------------------------------------------------------------
                           ORCA POPULATION ANALYSIS
------------------------------------------------------------------------------
Input electron density              ... ox_es1_A_orca0022.cisp
BaseName (.gbw .S,...)              ... ox_es1_A_orca0022

                    ********************************
                    * MULLIKEN POPULATION ANALYSIS *
                    ********************************

-----------------------
MULLIKEN ATOMIC CHARGES
-----------------------
   0 O :    0.178346
   1 C :   -0.062754
   2 C :   -0.728548
   3 H :    0.117540
   4 H :    0.136608
   5 H :    0.172154
   6 H :    0.186655
Sum of atomic charges:   -0.0000000

--------------------------------
MULLIKEN REDUCED ORBITAL CHARGES
--------------------------------
  0 O s       :     3.711350  s :     3.711350
      pz      :     1.129223  p :     4.068123
      px      :     1.496782
      py      :     1.442117
      dz2     :     0.003657  d :     0.040504
      dxz     :     0.003327
      dyz     :     0.007423
      dx2y2   :     0.012170
      dxy     :     0.013927
      f0      :     0.000128  f :     0.001678
      f+1     :     0.000004
      f-1     :     0.000187
      f+2     :     0.000100
      f-2     :     0.000241
      f+3     :     0.000359
      f-3     :     0.000659
  1 C s       :     3.157914  s :     3.157914
      pz      :     1.044318  p :     2.805506
      px      :     1.035225
      py      :     0.725963
      dz2     :     0.002919  d :     0.088022
      dxz     :     0.025037
      dyz     :     0.010848
      dx2y2   :     0.029742
      dxy     :     0.019476
      f0      :     0.001070  f :     0.011312
      f+1     :     0.001465
      f-1     :     0.000679
      f+2     :     0.000898
      f-2     :     0.001404
      f+3     :     0.002706
      f-3     :     0.003091
  2 C s       :     3.285848  s :     3.285848
      pz      :     1.101460  p :     3.342782
      px      :     0.882351
      py      :     1.358971
      dz2     :     0.008400  d :     0.089606
      dxz     :     0.019317
      dyz     :     0.005818
      dx2y2   :     0.032267
      dxy     :     0.023805
      f0      :     0.000960  f :     0.010312
      f+1     :     0.001280
      f-1     :     0.000787
      f+2     :     0.001108
      f-2     :     0.001019
      f+3     :     0.002673
      f-3     :     0.002485
  3 H s       :     0.861927  s :     0.861927
      pz      :     0.009186  p :     0.020533
      px      :     0.008202
      py      :     0.003144
  4 H s       :     0.839566  s :     0.839566
      pz      :     0.011951  p :     0.023826
      px      :     0.007321
      py      :     0.004554
  5 H s       :     0.799600  s :     0.799600
      pz      :     0.010497  p :     0.028246
      px      :     0.008311
      py      :     0.009437
  6 H s       :     0.785356  s :     0.785356
      pz      :     0.009854  p :     0.027990
      px      :     0.007299
      py      :     0.010836


                     *******************************
                     * LOEWDIN POPULATION ANALYSIS *
                     *******************************

----------------------
LOEWDIN ATOMIC CHARGES
----------------------
   0 O :    0.432333
   1 C :   -0.344543
   2 C :   -0.627493
   3 H :    0.150646
   4 H :    0.141928
   5 H :    0.117152
   6 H :    0.129977

-------------------------------
LOEWDIN REDUCED ORBITAL CHARGES
-------------------------------
  0 O s       :     3.431077  s :     3.431077
      pz      :     1.066487  p :     4.023784
      px      :     1.463500
      py      :     1.493797
      dz2     :     0.013273  d :     0.105983
      dxz     :     0.009629
      dyz     :     0.016450
      dx2y2   :     0.038177
      dxy     :     0.028453
      f0      :     0.000701  f :     0.006823
      f+1     :     0.000129
      f-1     :     0.000795
      f+2     :     0.000194
      f-2     :     0.001080
      f+3     :     0.001085
      f-3     :     0.002839
  1 C s       :     2.837814  s :     2.837814
      pz      :     1.023885  p :     2.967889
      px      :     1.092929
      py      :     0.851075
      dz2     :     0.061461  d :     0.457282
      dxz     :     0.124970
      dyz     :     0.045549
      dx2y2   :     0.117222
      dxy     :     0.108080
      f0      :     0.008659  f :     0.081557
      f+1     :     0.006982
      f-1     :     0.006915
      f+2     :     0.006393
      f-2     :     0.006400
      f+3     :     0.021504
      f-3     :     0.024705
  2 C s       :     2.804186  s :     2.804186
      pz      :     1.060535  p :     3.194530
      px      :     1.015772
      py      :     1.118223
      dz2     :     0.066100  d :     0.550295
      dxz     :     0.122175
      dyz     :     0.028567
      dx2y2   :     0.179039
      dxy     :     0.154413
      f0      :     0.006729  f :     0.078482
      f+1     :     0.006130
      f-1     :     0.009145
      f+2     :     0.006205
      f-2     :     0.004151
      f+3     :     0.026295
      f-3     :     0.019828
  3 H s       :     0.793637  s :     0.793637
      pz      :     0.026528  p :     0.055718
      px      :     0.021036
      py      :     0.008154
  4 H s       :     0.789826  s :     0.789826
      pz      :     0.035854  p :     0.068246
      px      :     0.019390
      py      :     0.013003
  5 H s       :     0.798713  s :     0.798713
      pz      :     0.034377  p :     0.084135
      px      :     0.023674
      py      :     0.026084
  6 H s       :     0.788472  s :     0.788472
      pz      :     0.032212  p :     0.081551
      px      :     0.020563
      py      :     0.028776


                      *****************************
                      * MAYER POPULATION ANALYSIS *
                      *****************************

  NA   - Mulliken gross atomic population
  ZA   - Total nuclear charge
  QA   - Mulliken gross atomic charge
  VA   - Mayer's total valence
  BVA  - Mayer's bonded valence
  FA   - Mayer's free valence

  ATOM       NA         ZA         QA         VA         BVA        FA
  0 O      7.8217     8.0000     0.1783     1.7645     1.1347     0.6299
  1 C      6.0628     6.0000    -0.0628     3.6243     3.4907     0.1336
  2 C      6.7285     6.0000    -0.7285     4.1100     3.2152     0.8948
  3 H      0.8825     1.0000     0.1175     1.0514     0.9423     0.1091
  4 H      0.8634     1.0000     0.1366     1.0090     0.9536     0.0554
  5 H      0.8278     1.0000     0.1722     0.9735     0.9314     0.0421
  6 H      0.8133     1.0000     0.1867     0.9760     0.9456     0.0304

  Mayer bond orders larger than 0.100000
B(  0-O ,  1-C ) :   0.8124 B(  0-O ,  2-C ) :   0.3095 B(  1-C ,  2-C ) :   0.9311 
B(  1-C ,  3-H ) :   0.8309 B(  1-C ,  4-H ) :   0.9140 B(  2-C ,  5-H ) :   0.9330 
B(  2-C ,  6-H ) :   0.9467 


-------
TIMINGS
-------

Total TD-DFT gradient time         ...        5.276 sec

Fock matrix formation       ....       0.883 sec  ( 16.7%)
  Coulomb formation         ....       0.720 sec  ( 81.5% of F)
  RI-J                      ....       0.295 sec  ( 33.4% of F)
  Chain of spheres X        ....       0.425 sec  ( 48.1% of F)
  XC integration            ....       0.163 sec  ( 18.5% of F)
Z-vector equation           ....       1.384 sec  ( 26.2%)
One electron gradient       ....       0.033 sec  (  0.6%)
Prescreening matrices       ....       0.162 sec  (  3.1%)
RI-J Coulomb gradient       ....       0.271 sec  (  5.1%)
COSX gradient               ....       0.355 sec  (  6.7%)
XC gradient                 ....       1.778 sec  ( 33.7%)

Maximum memory used throughout the entire SCFGRAD-calculation: 130.3 MB

                            ***************************************
                            *     ORCA property calculations      *
                            ***************************************

                                    ---------------------
                                    Active property flags
                                    ---------------------
   (+) Dipole Moment


------------------------------------------------------------------------------
                       ORCA ELECTRIC PROPERTIES CALCULATION
------------------------------------------------------------------------------

Dipole Moment Calculation                       ... on
Quadrupole Moment Calculation                   ... off
Polarizability Calculation                      ... off
GBWName                                         ... ox_es1_A_orca0022.gbw
Electron density                                ... ox_es1_A_orca0022.scfp
The origin for moment calculation is the CENTER OF MASS  = (-0.044394, -0.040772  0.011723)

-------------
DIPOLE MOMENT
-------------
                                X             Y             Z
Electronic contribution:     -0.00124       1.66999      -0.05203
Nuclear contribution   :      0.06577      -2.39819       0.04487
                        -----------------------------------------
Total Dipole Moment    :      0.06454      -0.72820      -0.00716
                        -----------------------------------------
Magnitude (a.u.)       :      0.73109
Magnitude (Debye)      :      1.85828



--------------------
Rotational spectrum 
--------------------
 
Rotational constants in cm-1:     0.868416     0.752919     0.476380 
Rotational constants in MHz : 26034.453186 22571.931460 14281.519196 

 Dipole components along the rotational axes: 
x,y,z [a.u.] :     0.181132     0.707617    -0.030983 
x,y,z [Debye]:     0.460401     1.798620    -0.078753 

 

                        *** CIS RELAXED DENSITY ***

------------------------------------------------------------------------------
                       ORCA ELECTRIC PROPERTIES CALCULATION
------------------------------------------------------------------------------

Dipole Moment Calculation                       ... on
Quadrupole Moment Calculation                   ... off
Polarizability Calculation                      ... off
GBWName                                         ... ox_es1_A_orca0022.gbw
Electron density                                ... ox_es1_A_orca0022.cisp
The origin for moment calculation is the CENTER OF MASS  = (-0.044394, -0.040772  0.011723)

-------------
DIPOLE MOMENT
-------------
                                X             Y             Z
Electronic contribution:     -0.63728       2.51168      -0.03815
Nuclear contribution   :      0.06577      -2.39819       0.04487
                        -----------------------------------------
Total Dipole Moment    :     -0.57151       0.11349       0.00672
                        -----------------------------------------
Magnitude (a.u.)       :      0.58271
Magnitude (Debye)      :      1.48113



--------------------
Rotational spectrum 
--------------------
 
Rotational constants in cm-1:     0.868416     0.752919     0.476380 
Rotational constants in MHz : 26034.453186 22571.931460 14281.519196 

 Dipole components along the rotational axes: 
x,y,z [a.u.] :    -0.582037    -0.020813    -0.018698 
x,y,z [Debye]:    -1.479421    -0.052903    -0.047526 

 

Timings for individual modules:

Sum of individual times         ...        8.087 sec (=   0.135 min)
GTO integral calculation        ...        0.313 sec (=   0.005 min)   3.9 %
SCF iterations                  ...        1.207 sec (=   0.020 min)  14.9 %
CIS module                      ...        1.083 sec (=   0.018 min)  13.4 %
SCF Gradient evaluation         ...        5.484 sec (=   0.091 min)  67.8 %
                             ****ORCA TERMINATED NORMALLY****
TOTAL RUN TIME: 0 days 0 hours 0 minutes 8 seconds 466 msec
