
                                 *****************
                                 * O   R   C   A *
                                 *****************

                                            #,                                       
                                            ###                                      
                                            ####                                     
                                            #####                                    
                                            ######                                   
                                           ########,                                 
                                     ,,################,,,,,                         
                               ,,#################################,,                 
                          ,,##########################################,,             
                       ,#########################################, ''#####,          
                    ,#############################################,,   '####,        
                  ,##################################################,,,,####,       
                ,###########''''           ''''###############################       
              ,#####''   ,,,,##########,,,,          '''####'''          '####       
            ,##' ,,,,###########################,,,                        '##       
           ' ,,###''''                  '''############,,,                           
         ,,##''                                '''############,,,,        ,,,,,,###''
      ,#''                                            '''#######################'''  
     '                                                          ''''####''''         
             ,#######,   #######,   ,#######,      ##                                
            ,#'     '#,  ##    ##  ,#'     '#,    #''#        ######   ,####,        
            ##       ##  ##   ,#'  ##            #'  '#       #        #'  '#        
            ##       ##  #######   ##           ,######,      #####,   #    #        
            '#,     ,#'  ##    ##  '#,     ,#' ,#      #,         ##   #,  ,#        
             '#######'   ##     ##  '#######'  #'      '#     #####' # '####'        



                  #######################################################
                  #                        -***-                        #
                  #          Department of theory and spectroscopy      #
                  #    Directorship and core code : Frank Neese         #
                  #        Max Planck Institute fuer Kohlenforschung    #
                  #                Kaiser Wilhelm Platz 1               #
                  #                 D-45470 Muelheim/Ruhr               #
                  #                      Germany                        #
                  #                                                     #
                  #                  All rights reserved                #
                  #                        -***-                        #
                  #######################################################


                         Program Version 5.0.2 -  RELEASE  -


 With contributions from (in alphabetic order):
   Daniel Aravena         : Magnetic Suceptibility
   Michael Atanasov       : Ab Initio Ligand Field Theory (pilot matlab implementation)
   Alexander A. Auer      : GIAO ZORA, VPT2 properties, NMR spectrum
   Ute Becker             : Parallelization
   Giovanni Bistoni       : ED, misc. LED, open-shell LED, HFLD
   Martin Brehm           : Molecular dynamics
   Dmytro Bykov           : SCF Hessian
   Vijay G. Chilkuri      : MRCI spin determinant printing, contributions to CSF-ICE
   Dipayan Datta          : RHF DLPNO-CCSD density
   Achintya Kumar Dutta   : EOM-CC, STEOM-CC
   Dmitry Ganyushin       : Spin-Orbit,Spin-Spin,Magnetic field MRCI
   Miquel Garcia          : C-PCM and meta-GGA Hessian, CC/C-PCM, Gaussian charge scheme
   Yang Guo               : DLPNO-NEVPT2, F12-NEVPT2, CIM, IAO-localization
   Andreas Hansen         : Spin unrestricted coupled pair/coupled cluster methods
   Benjamin Helmich-Paris : MC-RPA, TRAH-SCF, COSX integrals
   Lee Huntington         : MR-EOM, pCC
   Robert Izsak           : Overlap fitted RIJCOSX, COSX-SCS-MP3, EOM
   Marcus Kettner         : VPT2
   Christian Kollmar      : KDIIS, OOCD, Brueckner-CCSD(T), CCSD density, CASPT2, CASPT2-K
   Simone Kossmann        : Meta GGA functionals, TD-DFT gradient, OOMP2, MP2 Hessian
   Martin Krupicka        : Initial AUTO-CI
   Lucas Lang             : DCDCAS
   Marvin Lechner         : AUTO-CI (C++ implementation), FIC-MRCC
   Dagmar Lenk            : GEPOL surface, SMD
   Dimitrios Liakos       : Extrapolation schemes; Compound Job, initial MDCI parallelization
   Dimitrios Manganas     : Further ROCIS development; embedding schemes
   Dimitrios Pantazis     : SARC Basis sets
   Anastasios Papadopoulos: AUTO-CI, single reference methods and gradients
   Taras Petrenko         : DFT Hessian,TD-DFT gradient, ASA, ECA, R-Raman, ABS, FL, XAS/XES, NRVS
   Peter Pinski           : DLPNO-MP2, DLPNO-MP2 Gradient
   Christoph Reimann      : Effective Core Potentials
   Marius Retegan         : Local ZFS, SOC
   Christoph Riplinger    : Optimizer, TS searches, QM/MM, DLPNO-CCSD(T), (RO)-DLPNO pert. Triples
   Tobias Risthaus        : Range-separated hybrids, TD-DFT gradient, RPA, STAB
   Michael Roemelt        : Original ROCIS implementation
   Masaaki Saitow         : Open-shell DLPNO-CCSD energy and density
   Barbara Sandhoefer     : DKH picture change effects
   Avijit Sen             : IP-ROCIS
   Kantharuban Sivalingam : CASSCF convergence, NEVPT2, FIC-MRCI
   Bernardo de Souza      : ESD, SOC TD-DFT
   Georgi Stoychev        : AutoAux, RI-MP2 NMR, DLPNO-MP2 response
   Willem Van den Heuvel  : Paramagnetic NMR
   Boris Wezisla          : Elementary symmetry handling
   Frank Wennmohs         : Technical directorship


 We gratefully acknowledge several colleagues who have allowed us to
 interface, adapt or use parts of their codes:
   Stefan Grimme, W. Hujo, H. Kruse, P. Pracht,  : VdW corrections, initial TS optimization,
                  C. Bannwarth, S. Ehlert          DFT functionals, gCP, sTDA/sTD-DF
   Ed Valeev, F. Pavosevic, A. Kumar             : LibInt (2-el integral package), F12 methods
   Garnet Chan, S. Sharma, J. Yang, R. Olivares  : DMRG
   Ulf Ekstrom                                   : XCFun DFT Library
   Mihaly Kallay                                 : mrcc  (arbitrary order and MRCC methods)
   Jiri Pittner, Ondrej Demel                    : Mk-CCSD
   Frank Weinhold                                : gennbo (NPA and NBO analysis)
   Christopher J. Cramer and Donald G. Truhlar   : smd solvation model
   Lars Goerigk                                  : TD-DFT with DH, B97 family of functionals
   V. Asgeirsson, H. Jonsson                     : NEB implementation
   FAccTs GmbH                                   : IRC, NEB, NEB-TS, DLPNO-Multilevel, CI-OPT
                                                   MM, QMMM, 2- and 3-layer-ONIOM, Crystal-QMMM,
                                                   LR-CPCM, SF, NACMEs, symmetry and pop. for TD-DFT,
                                                   nearIR, NL-DFT gradient (VV10), updates on ESD,
                                                   ML-optimized integration grids
   S Lehtola, MJT Oliveira, MAL Marques          : LibXC Library
   Liviu Ungur et al                             : ANISO software


 Your calculation uses the libint2 library for the computation of 2-el integrals
 For citations please refer to: http://libint.valeyev.net

 Your ORCA version has been built with support for libXC version: 5.1.0
 For citations please refer to: https://tddft.org/programs/libxc/

 This ORCA versions uses:
   CBLAS   interface :  Fast vector & matrix operations
   LAPACKE interface :  Fast linear algebra routines
   SCALAPACK package :  Parallel linear algebra routines
   Shared memory     :  Shared parallel matrices
   BLAS/LAPACK       :  OpenBLAS 0.3.15  USE64BITINT DYNAMIC_ARCH NO_AFFINITY SkylakeX SINGLE_THREADED
        Core in use  :  SkylakeX
   Copyright (c) 2011-2014, The OpenBLAS Project


Your calculation utilizes the atom-pairwise dispersion correction
with the Becke-Johnson damping scheme (D3BJ)
Cite in your paper:
S.Grimme, S.Ehrlich, L.Goerigk, J Comput Chem, (2011), 32, 1456–1465 
S.Grimme, J.Antony, S.Ehrlich and H.Krieg, J.Chem.Phys., 132, (2010), 154104 
   

================================================================================

----- Orbital basis set information -----
Your calculation utilizes the basis: def2-TZVP
   F. Weigend and R. Ahlrichs, Phys. Chem. Chem. Phys. 7, 3297 (2005).

----- AuxJ basis set information -----
Your calculation utilizes the auxiliary basis: def2/J
   F. Weigend, Phys. Chem. Chem. Phys. 8, 1057 (2006).

================================================================================
                                        WARNINGS
                       Please study these warnings very carefully!
================================================================================

INFO   : Checking CIS options ...

WARNING: CIS/ROCIS methods need fully converged wavefunctions
  ===> : Setting SCFConvForced true
         You can overwrite this default with %scf ConvForced false 


INFO   : the flag for use of the SHARK integral package has been found!

================================================================================
                                       INPUT FILE
================================================================================
NAME = ox_es1_A_orca0034.inp
|  1> ! engrad PBE0 D3BJ def2-TZVP  
|  2> %pal nprocs 8 end
|  3> %maxcore 3000
|  4> 
|  5> %tddft
|  6>   nroots 1
|  7>   tda true
|  8>   Iroot 1
|  9>   end 
| 10> *xyz 0 1 
| 11> O   -0.0018816851212424184 0.8220894041008261 0.0057114924331019825
| 12> C   -0.7213745019269061 -0.4652011006106928 -0.002847281186053373
| 13> C   0.7442796284446029 -0.5325289096328313 -0.06740927110528565
| 14> H   -1.2266597252988642 -0.6597275380936028 0.910777053182366
| 15> H   -1.2629010733467303 -0.6508918247319165 -0.9469642040154681
| 16> H   1.2249075837298842 -0.6584785972451159 -0.9688948588807517
| 17> H   1.2842355077857237 -0.753399990211892 0.9714339518662821
| 18> *
| 19> 
| 20>                          ****END OF INPUT****
================================================================================

                     *******************************
                     * Energy+Gradient Calculation *
                     *******************************

---------------------------------
CARTESIAN COORDINATES (ANGSTROEM)
---------------------------------
  O     -0.001882    0.822089    0.005711
  C     -0.721375   -0.465201   -0.002847
  C      0.744280   -0.532529   -0.067409
  H     -1.226660   -0.659728    0.910777
  H     -1.262901   -0.650892   -0.946964
  H      1.224908   -0.658479   -0.968895
  H      1.284236   -0.753400    0.971434

----------------------------
CARTESIAN COORDINATES (A.U.)
----------------------------
  NO LB      ZA    FRAG     MASS         X           Y           Z
   0 O     8.0000    0    15.999   -0.003556    1.553524    0.010793
   1 C     6.0000    0    12.011   -1.363200   -0.879103   -0.005381
   2 C     6.0000    0    12.011    1.406485   -1.006334   -0.127385
   3 H     1.0000    0     1.008   -2.318051   -1.246704    1.721119
   4 H     1.0000    0     1.008   -2.386537   -1.230007   -1.789503
   5 H     1.0000    0     1.008    2.314740   -1.244344   -1.830946
   6 H     1.0000    0     1.008    2.426853   -1.423720    1.835744

--------------------------------
INTERNAL COORDINATES (ANGSTROEM)
--------------------------------
 O      0   0   0     0.000000000000     0.00000000     0.00000000
 C      1   0   0     1.474740658408     0.00000000     0.00000000
 C      2   1   0     1.468619526727    63.47295869     0.00000000
 H      2   1   3     1.062009000050   112.76902707   113.68381843
 H      2   1   3     1.104123560364   113.01976335   250.89550241
 H      3   2   1     1.029340964005   120.67016372   261.63884718
 H      3   2   1     1.191440987958   114.98928113    98.81871253

---------------------------
INTERNAL COORDINATES (A.U.)
---------------------------
 O      0   0   0     0.000000000000     0.00000000     0.00000000
 C      1   0   0     2.786855962950     0.00000000     0.00000000
 C      2   1   0     2.775288700444    63.47295869     0.00000000
 H      2   1   3     2.006906161855   112.76902707   113.68381843
 H      2   1   3     2.086491147098   113.01976335   250.89550241
 H      3   2   1     1.945172520395   120.67016372   261.63884718
 H      3   2   1     2.251497171968   114.98928113    98.81871253

---------------------
BASIS SET INFORMATION
---------------------
There are 3 groups of distinct atoms

 Group   1 Type O   : 11s6p2d1f contracted to 5s3p2d1f pattern {62111/411/11/1}
 Group   2 Type C   : 11s6p2d1f contracted to 5s3p2d1f pattern {62111/411/11/1}
 Group   3 Type H   : 5s1p contracted to 3s1p pattern {311/1}

Atom   0O    basis set group =>   1
Atom   1C    basis set group =>   2
Atom   2C    basis set group =>   2
Atom   3H    basis set group =>   3
Atom   4H    basis set group =>   3
Atom   5H    basis set group =>   3
Atom   6H    basis set group =>   3
---------------------------------
AUXILIARY/J BASIS SET INFORMATION
---------------------------------
There are 3 groups of distinct atoms

 Group   1 Type O   : 12s5p4d2f1g contracted to 6s4p3d1f1g pattern {711111/2111/211/2/1}
 Group   2 Type C   : 12s5p4d2f1g contracted to 6s4p3d1f1g pattern {711111/2111/211/2/1}
 Group   3 Type H   : 5s2p1d contracted to 3s1p1d pattern {311/2/1}

Atom   0O    basis set group =>   1
Atom   1C    basis set group =>   2
Atom   2C    basis set group =>   2
Atom   3H    basis set group =>   3
Atom   4H    basis set group =>   3
Atom   5H    basis set group =>   3
Atom   6H    basis set group =>   3

Checking for AutoStart:
The File: ox_es1_A_orca0034.gbw exists
Trying to determine its content:
     ... Fine, the file contains calculation information
     ... Fine, the calculation information was read
     ... Fine, the file contains a basis set
     ... Fine, the basis set was read
     ... Fine, the file contains a geometry
     ... Fine, the geometry was read
     ... Fine, the file contains a set of orbitals
     ... Fine, the orbitals can be read
     => possible old guess file was deleted
     => GBW file was renamed to GES file
     => GES file is set as startup file
     => Guess is set to MORead
     ... now leaving AutoStart



           ************************************************************
           *        Program running with 8 parallel MPI-processes     *
           *              working on a common directory               *
           ************************************************************
------------------------------------------------------------------------------
                           ORCA GTO INTEGRAL CALCULATION
                           -- RI-GTO INTEGRALS CHOSEN --
------------------------------------------------------------------------------
------------------------------------------------------------------------------
                   ___                                                        
                  /   \      - P O W E R E D   B Y -                         
                 /     \                                                     
                 |  |  |   _    _      __       _____    __    __             
                 |  |  |  | |  | |    /  \     |  _  \  |  |  /  |          
                  \  \/   | |  | |   /    \    | | | |  |  | /  /          
                 / \  \   | |__| |  /  /\  \   | |_| |  |  |/  /          
                |  |  |   |  __  | /  /__\  \  |    /   |      \           
                |  |  |   | |  | | |   __   |  |    \   |  |\   \          
                \     /   | |  | | |  |  |  |  | |\  \  |  | \   \       
                 \___/    |_|  |_| |__|  |__|  |_| \__\ |__|  \__/        
                                                                              
                      - O R C A' S   B I G   F R I E N D -                    
                                      &                                       
                       - I N T E G R A L  F E E D E R -                       
                                                                              
 v1 FN, 2020, v2 2021                                                         
------------------------------------------------------------------------------


Reading SHARK input file ox_es1_A_orca0034.SHARKINP.tmp ... ok
----------------------
SHARK INTEGRAL PACKAGE
----------------------

Number of atoms                             ...      7
Number of basis functions                   ...    117
Number of shells                            ...     49
Maximum angular momentum                    ...      3
Integral batch strategy                     ... SHARK/LIBINT Hybrid
RI-J (if used) integral strategy            ... SPLIT-RIJ (Revised 2003 algorithm where possible)
Printlevel                                  ...      1
Contraction scheme used                     ... SEGMENTED contraction
Coulomb Range Separation                    ... NOT USED
Exchange Range Separation                   ... NOT USED
Finite Nucleus Model                        ... NOT USED
Auxiliary Coulomb fitting basis             ... AVAILABLE
   # of basis functions in Aux-J            ...    191
   # of shells in Aux-J                     ...     65
   Maximum angular momentum in Aux-J        ...      4
Auxiliary J/K fitting basis                 ... NOT available
Auxiliary Correlation fitting basis         ... NOT available
Auxiliary 'external' fitting basis          ... NOT available
Integral threshold                          ...     2.500000e-11
Primitive cut-off                           ...     2.500000e-12
Primitive pair pre-selection threshold      ...     2.500000e-12

Calculating pre-screening integrals         ... done (  0.0 sec) Dimension = 49
Organizing shell pair data                  ... done (  0.0 sec)
Shell pair information
Total number of shell pairs                 ...      1225
Shell pairs after pre-screening             ...      1220
Total number of primitive shell pairs       ...      3648
Primitive shell pairs kept                  ...      3143
          la=0 lb=0:    373 shell pairs
          la=1 lb=0:    351 shell pairs
          la=1 lb=1:     91 shell pairs
          la=2 lb=0:    162 shell pairs
          la=2 lb=1:     78 shell pairs
          la=2 lb=2:     21 shell pairs
          la=3 lb=0:     81 shell pairs
          la=3 lb=1:     39 shell pairs
          la=3 lb=2:     18 shell pairs
          la=3 lb=3:      6 shell pairs

Calculating one electron integrals          ... done (  0.0 sec)
Calculating RI/J V-Matrix + Cholesky decomp.... done (  0.0 sec)
Calculating Nuclear repulsion               ... done (  0.0 sec) ENN=     73.084558570143 Eh

SHARK setup successfully completed in   0.1 seconds

Maximum memory used throughout the entire GTOINT-calculation: 14.9 MB


           ************************************************************
           *        Program running with 8 parallel MPI-processes     *
           *              working on a common directory               *
           ************************************************************
-------------------------------------------------------------------------------
                                 ORCA SCF
-------------------------------------------------------------------------------

------------
SCF SETTINGS
------------
Hamiltonian:
 Density Functional     Method          .... DFT(GTOs)
 Exchange Functional    Exchange        .... PBE
   PBE kappa parameter   XKappa         ....  0.804000
   PBE mue parameter    XMuePBE         ....  0.219520
 Correlation Functional Correlation     .... PBE
   PBE beta parameter  CBetaPBE         ....  0.066725
 LDA part of GGA corr.  LDAOpt          .... PW91-LDA
 Gradients option       PostSCFGGA      .... off
 Hybrid DFT is turned on
   Fraction HF Exchange ScalHFX         ....  0.250000
   Scaling of DF-GGA-X  ScalDFX         ....  0.750000
   Scaling of DF-GGA-C  ScalDFC         ....  1.000000
   Scaling of DF-LDA-C  ScalLDAC        ....  1.000000
   Perturbative correction              ....  0.000000
   Density functional embedding theory  .... OFF
   NL short-range parameter             ....  6.900000
 RI-approximation to the Coulomb term is turned on
   Number of AuxJ basis functions       .... 191
   RIJ-COSX (HFX calculated with COS-X)).... on


General Settings:
 Integral files         IntName         .... ox_es1_A_orca0034
 Hartree-Fock type      HFTyp           .... RHF
 Total Charge           Charge          ....    0
 Multiplicity           Mult            ....    1
 Number of Electrons    NEL             ....   24
 Basis Dimension        Dim             ....  117
 Nuclear Repulsion      ENuc            ....     73.0845585701 Eh

Convergence Acceleration:
 DIIS                   CNVDIIS         .... on
   Start iteration      DIISMaxIt       ....    12
   Startup error        DIISStart       ....  0.200000
   # of expansion vecs  DIISMaxEq       ....     5
   Bias factor          DIISBfac        ....   1.050
   Max. coefficient     DIISMaxC        ....  10.000
 Trust-Rad. Augm. Hess. CNVTRAH         .... auto
   Auto Start mean grad. ratio tolernc. ....  1.125000
   Auto Start start iteration           ....     1
   Auto Start num. interpolation iter.  ....    10
   Max. Number of Micro iterations      ....    16
   Max. Number of Macro iterations      .... Maxiter - #DIIS iter
   Number of Davidson start vectors     ....     2
   Converg. threshold I  (grad. norm)   ....   1.000e-05
   Converg. threshold II (energy diff.) ....   1.000e-08
   Grad. Scal. Fac. for Micro threshold ....   0.100
   Minimum threshold for Micro iter.    ....   0.010
   NR start threshold (gradient norm)   ....   0.001
   Initial trust radius                 ....   0.400
   Minimum AH scaling param. (alpha)    ....   1.000
   Maximum AH scaling param. (alpha)    .... 1000.000
   Orbital update algorithm             .... Taylor
   White noise on init. David. guess    .... on
   Maximum white noise                  ....   0.010
   Quad. conv. algorithm                .... NR
 SOSCF                  CNVSOSCF        .... on
   Start iteration      SOSCFMaxIt      ....   150
   Startup grad/error   SOSCFStart      ....  0.003300
 Level Shifting         CNVShift        .... on
   Level shift para.    LevelShift      ....    0.2500
   Turn off err/grad.   ShiftErr        ....    0.0010
 Zerner damping         CNVZerner       .... off
 Static damping         CNVDamp         .... on
   Fraction old density DampFac         ....    0.7000
   Max. Damping (<1)    DampMax         ....    0.9800
   Min. Damping (>=0)   DampMin         ....    0.0000
   Turn off err/grad.   DampErr         ....    0.1000
 Fernandez-Rico         CNVRico         .... off

SCF Procedure:
 Maximum # iterations   MaxIter         ....   125
 SCF integral mode      SCFMode         .... Direct
   Integral package                     .... SHARK and LIBINT hybrid scheme
 Reset frequency        DirectResetFreq ....    20
 Integral Threshold     Thresh          ....  2.500e-11 Eh
 Primitive CutOff       TCut            ....  2.500e-12 Eh

Convergence Tolerance:
 Convergence Check Mode ConvCheckMode   .... Total+1el-Energy
 Convergence forced     ConvForced      .... 1
 Energy Change          TolE            ....  1.000e-08 Eh
 1-El. energy change                    ....  1.000e-05 Eh
 Orbital Gradient       TolG            ....  1.000e-05
 Orbital Rotation angle TolX            ....  1.000e-05
 DIIS Error             TolErr          ....  5.000e-07


Diagonalization of the overlap matrix:
Smallest eigenvalue                        ... 4.212e-04
Time for diagonalization                   ...    0.001 sec
Threshold for overlap eigenvalues          ... 1.000e-08
Number of eigenvalues below threshold      ... 0
Time for construction of square roots      ...    0.001 sec
Total time needed                          ...    0.003 sec

---------------------
INITIAL GUESS: MOREAD
---------------------
Guess MOs are being read from file: ox_es1_A_orca0034.ges
Input Geometry matches current geometry (good)
Input basis set matches current basis set (good)
MOs were renormalized
MOs were reorthogonalized (Cholesky)
                      ------------------
                      INITIAL GUESS DONE (   0.0 sec)
                      ------------------
-------------------
DFT GRID GENERATION
-------------------

General Integration Accuracy     IntAcc      ... 4.388
Radial Grid Type                 RadialGrid  ... OptM3 with GC (2021)
Angular Grid (max. ang.)         AngularGrid ... 4 (Lebedev-302)
Angular grid pruning method      GridPruning ... 4 (adaptive)
Weight generation scheme         WeightScheme... Becke
Basis function cutoff            BFCut       ... 1.0000e-11
Integration weight cutoff        WCut        ... 1.0000e-14
Angular grids for H and He will be reduced by one unit
Partially contracted basis set               ... off
Rotationally invariant grid construction     ... off

Total number of grid points                  ...    31328
Total number of batches                      ...      493
Average number of points per batch           ...       63
Average number of grid points per atom       ...     4475
Time for grid setup =    0.120 sec

--------------------
COSX GRID GENERATION
--------------------

GRIDX 1
-------
General Integration Accuracy     IntAcc      ... 3.816
Radial Grid Type                 RadialGrid  ... OptM3 with GC (2021)
Angular Grid (max. ang.)         AngularGrid ... 1 (Lebedev-50)
Angular grid pruning method      GridPruning ... 4 (adaptive)
Weight generation scheme         WeightScheme... Becke
Basis function cutoff            BFCut       ... 1.0000e-11
Integration weight cutoff        WCut        ... 1.0000e-14
Angular grids for H and He will be reduced by one unit
Partially contracted basis set               ... on
Rotationally invariant grid construction     ... off

Total number of grid points                  ...     4039
Total number of batches                      ...       68
Average number of points per batch           ...       59
Average number of grid points per atom       ...      577
UseSFitting                                  ... on

GRIDX 2
-------
General Integration Accuracy     IntAcc      ... 4.020
Radial Grid Type                 RadialGrid  ... OptM3 with GC (2021)
Angular Grid (max. ang.)         AngularGrid ... 2 (Lebedev-110)
Angular grid pruning method      GridPruning ... 4 (adaptive)
Weight generation scheme         WeightScheme... Becke
Basis function cutoff            BFCut       ... 1.0000e-11
Integration weight cutoff        WCut        ... 1.0000e-14
Angular grids for H and He will be reduced by one unit
Partially contracted basis set               ... on
Rotationally invariant grid construction     ... off

Total number of grid points                  ...     8721
Total number of batches                      ...      141
Average number of points per batch           ...       61
Average number of grid points per atom       ...     1246
UseSFitting                                  ... on

GRIDX 3
-------
General Integration Accuracy     IntAcc      ... 4.338
Radial Grid Type                 RadialGrid  ... OptM3 with GC (2021)
Angular Grid (max. ang.)         AngularGrid ... 3 (Lebedev-194)
Angular grid pruning method      GridPruning ... 4 (adaptive)
Weight generation scheme         WeightScheme... Becke
Basis function cutoff            BFCut       ... 1.0000e-11
Integration weight cutoff        WCut        ... 1.0000e-14
Angular grids for H and He will be reduced by one unit
Partially contracted basis set               ... on
Rotationally invariant grid construction     ... off

Total number of grid points                  ...    19251
Total number of batches                      ...      305
Average number of points per batch           ...       63
Average number of grid points per atom       ...     2750
UseSFitting                                  ... on

Time for X-Grid setup             =    0.073 sec

--------------
SCF ITERATIONS
--------------
ITER       Energy         Delta-E        Max-DP      RMS-DP      [F,P]     Damp
               ***  Starting incremental Fock matrix formation  ***
                      *** Initiating the SOSCF procedure ***
                      *** Re-Reading the Fockian *** 
                      *** Removing any level shift *** 
ITER      Energy       Delta-E        Grad      Rot      Max-DP    RMS-DP
  0   -153.65597834 -153.6559783387  0.000001  0.000001  0.000001  0.000000
               *** Restarting incremental Fock matrix formation ***
                  ***Gradient check signals convergence***
              ***Rediagonalizing the Fockian in SOSCF/NRSCF***

               *****************************************************
               *                     SUCCESS                       *
               *           SCF CONVERGED AFTER   1 CYCLES          *
               *****************************************************

Old exchange energy                            =     -4.977333700 Eh
New exchange energy                            =     -4.977332295 Eh
Exchange energy change after final integration =      0.000001404 Eh
Total energy after final integration           =   -153.655976934 Eh
Final COS-X integration done in                =     0.261 sec

----------------
TOTAL SCF ENERGY
----------------

Total Energy       :         -153.65597693 Eh           -4181.19170 eV

Components:
Nuclear Repulsion  :           73.08455857 Eh            1988.73194 eV
Electronic Energy  :         -226.74053550 Eh           -6169.92364 eV
One Electron Energy:         -353.03034458 Eh           -9606.44406 eV
Two Electron Energy:          126.28980908 Eh            3436.52041 eV
Max COSX asymmetry :            0.00000284 Eh               0.00008 eV

Virial components:
Potential Energy   :         -306.39670633 Eh           -8337.47825 eV
Kinetic Energy     :          152.74072939 Eh            4156.28655 eV
Virial Ratio       :            2.00599216


DFT components:
N(Alpha)           :       12.000002126671 electrons
N(Beta)            :       12.000002126671 electrons
N(Total)           :       24.000004253342 electrons
E(X)               :      -14.912518371085 Eh       
E(C)               :       -0.784823596564 Eh       
E(XC)              :      -15.697341967649 Eh       
DFET-embed. en.    :        0.000000000000 Eh       

---------------
SCF CONVERGENCE
---------------

  Last Energy change         ...   -3.6948e-13  Tolerance :   1.0000e-08
  Last MAX-Density change    ...    6.6613e-16  Tolerance :   1.0000e-07
  Last RMS-Density change    ...    1.5876e-17  Tolerance :   5.0000e-09
  Last Orbital Gradient      ...    3.6411e-07  Tolerance :   1.0000e-05
  Last Orbital Rotation      ...    8.0587e-07  Tolerance :   1.0000e-05

             **** THE GBW FILE WAS UPDATED (ox_es1_A_orca0034.gbw) ****
             **** DENSITY ox_es1_A_orca0034.scfp WAS UPDATED ****
             **** ENERGY FILE WAS UPDATED (ox_es1_A_orca0034.en.tmp) ****
             **** THE GBW FILE WAS UPDATED (ox_es1_A_orca0034.gbw) ****
             **** DENSITY ox_es1_A_orca0034.scfp WAS UPDATED ****
----------------
ORBITAL ENERGIES
----------------

  NO   OCC          E(Eh)            E(eV) 
   0   2.0000     -19.218136      -522.9521 
   1   2.0000     -10.286669      -279.9145 
   2   2.0000     -10.278196      -279.6839 
   3   2.0000      -1.057179       -28.7673 
   4   2.0000      -0.712848       -19.3976 
   5   2.0000      -0.646871       -17.6022 
   6   2.0000      -0.524504       -14.2725 
   7   2.0000      -0.485779       -13.2187 
   8   2.0000      -0.404180       -10.9983 
   9   2.0000      -0.382183       -10.3997 
  10   2.0000      -0.338180        -9.2024 
  11   2.0000      -0.286235        -7.7889 
  12   0.0000       0.049953         1.3593 
  13   0.0000       0.057334         1.5601 
  14   0.0000       0.078346         2.1319 
  15   0.0000       0.087992         2.3944 
  16   0.0000       0.099813         2.7161 
  17   0.0000       0.150333         4.0908 
  18   0.0000       0.187109         5.0915 
  19   0.0000       0.201300         5.4776 
  20   0.0000       0.265566         7.2264 
  21   0.0000       0.274156         7.4602 
  22   0.0000       0.294719         8.0197 
  23   0.0000       0.298509         8.1228 
  24   0.0000       0.395386        10.7590 
  25   0.0000       0.406378        11.0581 
  26   0.0000       0.410732        11.1766 
  27   0.0000       0.421657        11.4739 
  28   0.0000       0.439925        11.9710 
  29   0.0000       0.471078        12.8187 
  30   0.0000       0.485861        13.2210 
  31   0.0000       0.512532        13.9467 
  32   0.0000       0.539774        14.6880 
  33   0.0000       0.684199        18.6180 
  34   0.0000       0.706166        19.2157 
  35   0.0000       0.728263        19.8170 
  36   0.0000       0.818768        22.2798 
  37   0.0000       0.848413        23.0865 
  38   0.0000       0.882323        24.0092 
  39   0.0000       0.933425        25.3998 
  40   0.0000       1.004684        27.3389 
  41   0.0000       1.032897        28.1065 
  42   0.0000       1.039566        28.2880 
  43   0.0000       1.087881        29.6027 
  44   0.0000       1.166249        31.7352 
  45   0.0000       1.357337        36.9350 
  46   0.0000       1.461986        39.7827 
  47   0.0000       1.491401        40.5831 
  48   0.0000       1.504292        40.9339 
  49   0.0000       1.513300        41.1790 
  50   0.0000       1.583666        43.0937 
  51   0.0000       1.627188        44.2780 
  52   0.0000       1.652769        44.9741 
  53   0.0000       1.677941        45.6591 
  54   0.0000       1.761615        47.9360 
  55   0.0000       1.822959        49.6052 
  56   0.0000       1.832387        49.8618 
  57   0.0000       1.854658        50.4678 
  58   0.0000       1.900833        51.7243 
  59   0.0000       1.951839        53.1122 
  60   0.0000       2.156417        58.6791 
  61   0.0000       2.160443        58.7886 
  62   0.0000       2.187513        59.5253 
  63   0.0000       2.220908        60.4340 
  64   0.0000       2.254367        61.3445 
  65   0.0000       2.408029        65.5258 
  66   0.0000       2.434081        66.2347 
  67   0.0000       2.455166        66.8085 
  68   0.0000       2.518630        68.5354 
  69   0.0000       2.548136        69.3383 
  70   0.0000       2.602005        70.8041 
  71   0.0000       2.660140        72.3861 
  72   0.0000       2.675403        72.8014 
  73   0.0000       2.708330        73.6974 
  74   0.0000       2.742896        74.6380 
  75   0.0000       2.777166        75.5705 
  76   0.0000       2.846034        77.4445 
  77   0.0000       2.952580        80.3438 
  78   0.0000       2.970156        80.8221 
  79   0.0000       3.022333        82.2419 
  80   0.0000       3.056913        83.1828 
  81   0.0000       3.077004        83.7295 
  82   0.0000       3.147626        85.6513 
  83   0.0000       3.221357        87.6576 
  84   0.0000       3.246538        88.3428 
  85   0.0000       3.312653        90.1419 
  86   0.0000       3.356259        91.3285 
  87   0.0000       3.380112        91.9775 
  88   0.0000       3.534528        96.1794 
  89   0.0000       3.579354        97.3992 
  90   0.0000       3.623314        98.5954 
  91   0.0000       3.668772        99.8324 
  92   0.0000       3.868934       105.2790 
  93   0.0000       3.983512       108.3969 
  94   0.0000       4.048567       110.1671 
  95   0.0000       4.082986       111.1037 
  96   0.0000       4.188340       113.9705 
  97   0.0000       4.323794       117.6564 
  98   0.0000       4.376425       119.0886 
  99   0.0000       4.618838       125.6850 
 100   0.0000       4.680993       127.3763 
 101   0.0000       4.779946       130.0689 
 102   0.0000       5.256702       143.0421 
 103   0.0000       5.383751       146.4993 
 104   0.0000       5.562202       151.3552 
 105   0.0000       5.653589       153.8420 
 106   0.0000       5.677234       154.4854 
 107   0.0000       5.759251       156.7172 
 108   0.0000       5.942845       161.7130 
 109   0.0000       6.538076       177.9101 
 110   0.0000       6.572589       178.8492 
 111   0.0000       6.750952       183.7027 
 112   0.0000       6.964384       189.5105 
 113   0.0000       7.171187       195.1379 
 114   0.0000      22.177676       603.4852 
 115   0.0000      22.333843       607.7348 
 116   0.0000      43.786357      1191.4873 

                    ********************************
                    * MULLIKEN POPULATION ANALYSIS *
                    ********************************

-----------------------
MULLIKEN ATOMIC CHARGES
-----------------------
   0 O :   -0.333717
   1 C :   -0.058674
   2 C :   -0.106246
   3 H :    0.120908
   4 H :    0.112505
   5 H :    0.137167
   6 H :    0.128058
Sum of atomic charges:   -0.0000000

--------------------------------
MULLIKEN REDUCED ORBITAL CHARGES
--------------------------------
  0 O s       :     3.879731  s :     3.879731
      pz      :     1.873285  p :     4.417610
      px      :     1.346371
      py      :     1.197953
      dz2     :     0.005100  d :     0.034641
      dxz     :     0.001881
      dyz     :     0.005176
      dx2y2   :     0.010103
      dxy     :     0.012381
      f0      :     0.000187  f :     0.001735
      f+1     :     0.000149
      f-1     :     0.000413
      f+2     :     0.000073
      f-2     :     0.000141
      f+3     :     0.000342
      f-3     :     0.000429
  1 C s       :     3.228527  s :     3.228527
      pz      :     1.038142  p :     2.708544
      px      :     0.904434
      py      :     0.765968
      dz2     :     0.006761  d :     0.110933
      dxz     :     0.024885
      dyz     :     0.029206
      dx2y2   :     0.028462
      dxy     :     0.021620
      f0      :     0.001439  f :     0.010670
      f+1     :     0.001402
      f-1     :     0.000547
      f+2     :     0.001317
      f-2     :     0.001350
      f+3     :     0.001798
      f-3     :     0.002818
  2 C s       :     3.256096  s :     3.256096
      pz      :     1.040429  p :     2.740548
      px      :     0.929058
      py      :     0.771061
      dz2     :     0.008775  d :     0.099871
      dxz     :     0.023198
      dyz     :     0.024803
      dx2y2   :     0.024055
      dxy     :     0.019040
      f0      :     0.001336  f :     0.009732
      f+1     :     0.001322
      f-1     :     0.000472
      f+2     :     0.001238
      f-2     :     0.001082
      f+3     :     0.001872
      f-3     :     0.002410
  3 H s       :     0.857065  s :     0.857065
      pz      :     0.011397  p :     0.022027
      px      :     0.006471
      py      :     0.004160
  4 H s       :     0.866829  s :     0.866829
      pz      :     0.010891  p :     0.020666
      px      :     0.006152
      py      :     0.003624
  5 H s       :     0.839404  s :     0.839404
      pz      :     0.012102  p :     0.023430
      px      :     0.006792
      py      :     0.004536
  6 H s       :     0.854035  s :     0.854035
      pz      :     0.010200  p :     0.017907
      px      :     0.004742
      py      :     0.002965


                     *******************************
                     * LOEWDIN POPULATION ANALYSIS *
                     *******************************

----------------------
LOEWDIN ATOMIC CHARGES
----------------------
   0 O :    0.026664
   1 C :   -0.284678
   2 C :   -0.224121
   3 H :    0.111886
   4 H :    0.121860
   5 H :    0.103944
   6 H :    0.144445

-------------------------------
LOEWDIN REDUCED ORBITAL CHARGES
-------------------------------
  0 O s       :     3.471925  s :     3.471925
      pz      :     1.781346  p :     4.425275
      px      :     1.338850
      py      :     1.305079
      dz2     :     0.010620  d :     0.071517
      dxz     :     0.005245
      dyz     :     0.010662
      dx2y2   :     0.024535
      dxy     :     0.020455
      f0      :     0.000402  f :     0.004619
      f+1     :     0.000177
      f-1     :     0.000784
      f+2     :     0.000149
      f-2     :     0.000603
      f+3     :     0.000913
      f-3     :     0.001590
  1 C s       :     2.835643  s :     2.835643
      pz      :     1.055362  p :     2.912123
      px      :     1.040751
      py      :     0.816011
      dz2     :     0.055626  d :     0.470367
      dxz     :     0.126548
      dyz     :     0.078281
      dx2y2   :     0.108987
      dxy     :     0.100925
      f0      :     0.009048  f :     0.066544
      f+1     :     0.005554
      f-1     :     0.005472
      f+2     :     0.008029
      f-2     :     0.005679
      f+3     :     0.014088
      f-3     :     0.018674
  2 C s       :     2.861280  s :     2.861280
      pz      :     1.052905  p :     2.903371
      px      :     1.055096
      py      :     0.795370
      dz2     :     0.053609  d :     0.403975
      dxz     :     0.114534
      dyz     :     0.061361
      dx2y2   :     0.091530
      dxy     :     0.082941
      f0      :     0.007911  f :     0.055495
      f+1     :     0.004824
      f-1     :     0.004543
      f+2     :     0.007139
      f-2     :     0.003709
      f+3     :     0.012140
      f-3     :     0.015230
  3 H s       :     0.822368  s :     0.822368
      pz      :     0.034913  p :     0.065746
      px      :     0.018088
      py      :     0.012745
  4 H s       :     0.819217  s :     0.819217
      pz      :     0.031840  p :     0.058923
      px      :     0.016461
      py      :     0.010621
  5 H s       :     0.823070  s :     0.823070
      pz      :     0.038486  p :     0.072986
      px      :     0.020227
      py      :     0.014273
  6 H s       :     0.807926  s :     0.807926
      pz      :     0.027796  p :     0.047630
      px      :     0.011968
      py      :     0.007866


                      *****************************
                      * MAYER POPULATION ANALYSIS *
                      *****************************

  NA   - Mulliken gross atomic population
  ZA   - Total nuclear charge
  QA   - Mulliken gross atomic charge
  VA   - Mayer's total valence
  BVA  - Mayer's bonded valence
  FA   - Mayer's free valence

  ATOM       NA         ZA         QA         VA         BVA        FA
  0 O      8.3337     8.0000    -0.3337     1.9682     1.9682     0.0000
  1 C      6.0587     6.0000    -0.0587     3.9934     3.9934    -0.0000
  2 C      6.1062     6.0000    -0.1062     3.9590     3.9590    -0.0000
  3 H      0.8791     1.0000     0.1209     0.9580     0.9580    -0.0000
  4 H      0.8875     1.0000     0.1125     0.9597     0.9597    -0.0000
  5 H      0.8628     1.0000     0.1372     0.9607     0.9607     0.0000
  6 H      0.8719     1.0000     0.1281     0.9634     0.9634    -0.0000

  Mayer bond orders larger than 0.100000
B(  0-O ,  1-C ) :   0.9963 B(  0-O ,  2-C ) :   0.9614 B(  1-C ,  2-C ) :   1.0809 
B(  1-C ,  3-H ) :   0.9523 B(  1-C ,  4-H ) :   0.9498 B(  2-C ,  5-H ) :   0.9546 
B(  2-C ,  6-H ) :   0.9450 

-------
TIMINGS
-------

Total SCF time: 0 days 0 hours 0 min 1 sec 

Total time                  ....       1.014 sec
Sum of individual times     ....       0.914 sec  ( 90.1%)

Fock matrix formation       ....       0.704 sec  ( 69.4%)
  Split-RI-J                ....       0.113 sec  ( 16.1% of F)
  Chain of spheres X        ....       0.518 sec  ( 73.6% of F)
  XC integration            ....       0.063 sec  (  8.9% of F)
    Basis function eval.    ....       0.017 sec  ( 27.9% of XC)
    Density eval.           ....       0.014 sec  ( 21.7% of XC)
    XC-Functional eval.     ....       0.004 sec  (  6.0% of XC)
    XC-Potential eval.      ....       0.021 sec  ( 32.9% of XC)
Diagonalization             ....       0.002 sec  (  0.2%)
Density matrix formation    ....       0.000 sec  (  0.0%)
Population analysis         ....       0.004 sec  (  0.4%)
Initial guess               ....       0.007 sec  (  0.7%)
Orbital Transformation      ....       0.000 sec  (  0.0%)
Orbital Orthonormalization  ....       0.001 sec  (  0.1%)
DIIS solution               ....       0.001 sec  (  0.1%)
SOSCF solution              ....       0.002 sec  (  0.2%)
Grid generation             ....       0.193 sec  ( 19.0%)

Maximum memory used throughout the entire SCF-calculation: 61.1 MB


           ************************************************************
           *        Program running with 8 parallel MPI-processes     *
           *              working on a common directory               *
           ************************************************************
------------------------------------------------------------------------------
                        ORCA TD-DFT/TDA CALCULATION
------------------------------------------------------------------------------

Input orbitals are from        ... ox_es1_A_orca0034.gbw
CI-vector output               ... ox_es1_A_orca0034.cis
Tamm-Dancoff approximation     ... operative
CIS-Integral strategy          ... AO-integrals
Integral handling              ... AO integral Direct
Max. core memory used          ... 3000 MB
Reference state                ... RHF
Generation of triplets         ... off
Follow IRoot                   ... off
Number of operators            ... 1
Orbital ranges used for CIS calculation:
 Operator 0:  Orbitals   3... 11  to  12...116
XAS localization array:
 Operator 0:  Orbitals  -1... -1

-------------------
XC-INTEGRATION GRID
-------------------

General Integration Accuracy     IntAcc      ... 3.467
Radial Grid Type                 RadialGrid  ... OptM3 with GC (2021)
Angular Grid (max. ang.)         AngularGrid ... 1 (Lebedev-50)
Angular grid pruning method      GridPruning ... 4 (adaptive)
Weight generation scheme         WeightScheme... Becke
Basis function cutoff            BFCut       ... 1.0000e-11
Integration weight cutoff        WCut        ... 1.0000e-14
Angular grids for H and He will be reduced by one unit
Partially contracted basis set               ... off
Rotationally invariant grid construction     ... off

Total number of grid points                  ...     4541
Total number of batches                      ...       75
Average number of points per batch           ...       60
Average number of grid points per atom       ...      649

---------------------
COSX-INTEGRATION GRID
---------------------

General Integration Accuracy     IntAcc      ... 3.067
Radial Grid Type                 RadialGrid  ... OptM3 with GC (2021)
Angular Grid (max. ang.)         AngularGrid ... 1 (Lebedev-50)
Angular grid pruning method      GridPruning ... 4 (adaptive)
Weight generation scheme         WeightScheme... Becke
Basis function cutoff            BFCut       ... 1.0000e-11
Integration weight cutoff        WCut        ... 1.0000e-14
Angular grids for H and He will be reduced by one unit
Partially contracted basis set               ... on
Rotationally invariant grid construction     ... off

Total number of grid points                  ...     2087
Total number of batches                      ...       38
Average number of points per batch           ...       54
Average number of grid points per atom       ...      298

---------------
TD-DFT XC SETUP
---------------

DFT calculation                         ... on
Name of the grid file                   ... ox_es1_A_orca0034.grid_cis.tmp
Exchange functional (TD-DFT)            ... PBE
   PBE kappa parameter  XKappa (TD-DFT) ...  0.804000
   PBE mue parameter   XMuePBE (TD-DFT) ...  0.219520
Correlation functional (TD-DFT)         ... PBE
   PBE beta parameter CBetaPBE (TD-DFT) ...  0.066725
 LDA part of GGA corr.  LDAOpt (TD-DFT) ... PW91-LDA
Hybrid DFT                              ... on
   Exchange mixing (TD-DFT)             ...  0.250
   GGA exch. scaling (TD-DFT)           ...  0.750
   GGA corr. scaling (TD-DFT)           ...  1.000

Building densities             ... done
Calculating rho(r) on the grid ... done
Building xc-kernel on the grid ... done
                    *** TD-DFT CALCULATION INITIALIZED ***

------------------------
DAVIDSON-DIAGONALIZATION
------------------------

Dimension of the eigenvalue problem            ...    945
Number of roots to be determined               ...      1
Maximum size of the expansion space            ...     10
Maximum number of iterations                   ...    100
Convergence tolerance for the residual         ...    2.500e-07
Convergence tolerance for the energies         ...    2.500e-07
Orthogonality tolerance                        ...    1.000e-14
Level Shift                                    ...    0.000e+00
Constructing the preconditioner                ... o.k.
Building the initial guess                     ... o.k.
Number of trial vectors determined             ...     10


                       ****Iteration    0****

   Memory handling for direct AO based CIS:
   Memory per vector needed      ...     1 MB
   Memory needed                 ...     1 MB
   Memory available              ...  3000 MB
   Number of vectors per batch   ...  3000
   Number of batches             ...     1
   Time for densities:            0.000
   Time for RI-J (Direct):        0.016
   Time for K (COSX):             0.055
   Time for XC-Integration:       0.016
   Time for Sigma-Completion:     0.000
   Size of expansion space: 3
   Lowest Energy          :     0.263630719802
   Maximum Energy change  :     0.263630719802 (vector 0)
   Maximum residual norm  :     0.004396173864

                       ****Iteration    1****
   Time for densities:            0.000
   Time for RI-J (Direct):        0.012
   Time for K (COSX):             0.049
   Time for XC-Integration:       0.007
   Time for Sigma-Completion:     0.000
   Size of expansion space: 4
   Lowest Energy          :     0.259449560857
   Maximum Energy change  :     0.004181158945 (vector 0)
   Maximum residual norm  :     0.000320858172

                       ****Iteration    2****
   Time for densities:            0.000
   Time for RI-J (Direct):        0.012
   Time for K (COSX):             0.049
   Time for XC-Integration:       0.007
   Time for Sigma-Completion:     0.000
   Size of expansion space: 5
   Lowest Energy          :     0.259116614826
   Maximum Energy change  :     0.000332946031 (vector 0)
   Maximum residual norm  :     0.000025397568

                       ****Iteration    3****
   Time for densities:            0.000
   Time for RI-J (Direct):        0.012
   Time for K (COSX):             0.049
   Time for XC-Integration:       0.007
   Time for Sigma-Completion:     0.000
   Size of expansion space: 6
   Lowest Energy          :     0.259063025060
   Maximum Energy change  :     0.000053589766 (vector 0)
   Maximum residual norm  :     0.000010379661

                       ****Iteration    4****
   Time for densities:            0.000
   Time for RI-J (Direct):        0.012
   Time for K (COSX):             0.049
   Time for XC-Integration:       0.007
   Time for Sigma-Completion:     0.000
   Size of expansion space: 7
   Lowest Energy          :     0.259047848065
   Maximum Energy change  :     0.000015176995 (vector 0)
   Maximum residual norm  :     0.000002632984

                       ****Iteration    5****
   Time for densities:            0.000
   Time for RI-J (Direct):        0.012
   Time for K (COSX):             0.049
   Time for XC-Integration:       0.007
   Time for Sigma-Completion:     0.000
   Size of expansion space: 8
   Lowest Energy          :     0.259045659227
   Maximum Energy change  :     0.000002188838 (vector 0)
   Maximum residual norm  :     0.000000429599

                       ****Iteration    6****
   Time for densities:            0.000
   Time for RI-J (Direct):        0.012
   Time for K (COSX):             0.049
   Time for XC-Integration:       0.007
   Time for Sigma-Completion:     0.000
   Size of expansion space: 9
   Lowest Energy          :     0.259045227413
   Maximum Energy change  :     0.000000431814 (vector 0)
   Maximum residual norm  :     0.000000034292

      *** CONVERGENCE OF RESIDUAL NORM REACHED ***

Storing the converged CI vectors               ... ox_es1_A_orca0034.cis1

                 *** DAVIDSON DONE ***

Total time for solving the CIS problem:     0.499sec

------------------------------------
TD-DFT/TDA EXCITED STATES (SINGLETS)
------------------------------------

the weight of the individual excitations are printed if larger than 1.0e-02

STATE  1:  E=   0.259045 au      7.049 eV    56853.9 cm**-1 <S**2> =   0.000000
    11a ->  12a  :     0.916191 (c= -0.95717886)
    11a ->  13a  :     0.053741 (c=  0.23182210)
    11a ->  15a  :     0.011520 (c=  0.10733286)


-----------------------------
TD-DFT/TDA-EXCITATION SPECTRA
-----------------------------

Center of mass = (  0.0114, -0.0676, -0.0337)
Calculating the Dipole integrals                  ... done
Transforming integrals                            ... done
Calculating the Linear Momentum integrals         ... done
Transforming integrals                            ... done
Calculating angular momentum integrals            ... done
Transforming integrals                            ... done

-----------------------------------------------------------------------------
         ABSORPTION SPECTRUM VIA TRANSITION ELECTRIC DIPOLE MOMENTS
-----------------------------------------------------------------------------
State   Energy    Wavelength  fosc         T2        TX        TY        TZ  
        (cm-1)      (nm)                 (au**2)    (au)      (au)      (au) 
-----------------------------------------------------------------------------
   1   56853.9    175.9   0.004295370   0.02487  -0.01197   0.02213  -0.15569

-----------------------------------------------------------------------------
         ABSORPTION SPECTRUM VIA TRANSITION VELOCITY DIPOLE MOMENTS
-----------------------------------------------------------------------------
State   Energy    Wavelength   fosc        P2         PX        PY        PZ  
        (cm-1)      (nm)                 (au**2)     (au)      (au)      (au) 
-----------------------------------------------------------------------------
   1   56853.9    175.9   0.021426937   0.00833   0.00544  -0.00455   0.09097

-------------------------------------------------------------------
                             CD SPECTRUM
-------------------------------------------------------------------
State  Energy     Wavelength     R         MX        MY        MZ   
       (cm-1)       (nm)     (1e40*cgs)   (au)      (au)      (au)  
-------------------------------------------------------------------
   1   56853.9    175.9      0.97315  -0.17705   0.13887   0.02009

-------------------------------------------------------------------
         CD SPECTRUM VIA TRANSITION VELOCITY DIPOLE MOMENTS        
-------------------------------------------------------------------
State  Energy     Wavelength     R         MX        MY        MZ   
       (cm-1)       (nm)     (1e40*cgs)   (au)      (au)      (au)  
-------------------------------------------------------------------
   1   56853.9    175.9      0.42290  -0.17705   0.13887   0.02009

Total run time:        0.778 sec

           *** ORCA-CIS/TD-DFT FINISHED WITHOUT ERROR ***

Maximum memory used throughout the entire CIS-calculation: 49.4 MB

-----------------------
CIS/TD-DFT TOTAL ENERGY
-----------------------

    E(SCF)  =   -153.655976934 Eh
    DE(CIS) =      0.259045227 Eh (Root  1)
    ----------------------------- ---------
    E(tot)  =   -153.396931707 Eh



-------------------------------------------------------------------------------
                          DFT DISPERSION CORRECTION                            
                                                                               
                              DFTD3 V3.1  Rev 1                                
                          USING Becke-Johnson damping                          
-------------------------------------------------------------------------------
The PBE0 functional is recognized
Active option DFTDOPT                   ...         4   

molecular C6(AA) [au] = 351.528043 


            DFT-D V3
 parameters
 s6 scaling factor         :     1.0000 
 a1 scaling factor         :     0.4145 
 s8 scaling factor         :     1.2177 
 a2 scaling factor         :     4.8593 
 ad hoc parameters k1-k3   :    16.0000     1.3333    -4.0000 

 Edisp/kcal,au: -1.511072844924  -0.002408047601 
 E6   /kcal   :  -0.990487088 
 E8   /kcal   :  -0.520585757 
 % E8         :  34.451400455 

-------------------------   ----------------
Dispersion correction           -0.002408048
-------------------------   ----------------


-------------------------   --------------------
FINAL SINGLE POINT ENERGY      -153.399339754625
-------------------------   --------------------



           ************************************************************
           *        Program running with 8 parallel MPI-processes     *
           *              working on a common directory               *
           ************************************************************
------------------------------------------------------------------------------
                         ORCA SCF GRADIENT CALCULATION
------------------------------------------------------------------------------


------------------------
TD-DFT GRADIENT XC SETUP
------------------------

Building densities                     ... done
Calculating rho(r) on the grid         ... done
Building xc-kernel on the grid         ... done
Building xc 3rd derivative on the grid      ... done
                *** TD-DFT GRADIENT CALCULATION INITIALIZED ***

-------------------
TD-DFT/TDA GRADIENT
-------------------

Reference wavefunction             ... RHF
State of interest                  ... 1
Basis dimension                    ... 117
DFT-XC contribution needed         ... YES
RI-approximation                   ... ON
CIS-vectors being read from        ... ox_es1_A_orca0034.cis

 => Number of Vectors found: 1
 => Orbital Window: 3...11 -> 12...116

Reading the CIS file                     ... done
Norm of the CI vector                    ... 1.000000000
Making the CIS (pseudo)densities         ... done
Making operators G(D) and Q(T)           ... done
Transforming the Fock operators          ... done
Making the frozen-core relaxed density   ... done
Constructing the G(H) operator           ... done
Transforming the G(H) operator           ... done
Calculating the CIS Lagrangian           ... done
Solving the Z-vector equations           ... done
Finalizing the relaxed density           ... done
Storing the relaxed density              ... done
Constructing the G(Z) operator           ... done
Transforming the G(Z) operator           ... done
Making the W-matrix                      ... done
Finalizing the W-matrix                  ... done
Transforming the W-matrix                ... done
Nuclear repulsion gradient               ... done
One-Electron gradient                    ... done
Dispersion correction                    ... done
Prescreening matrices                    ... done
COSX-gradient                            ... done
Coulomb gradient (RI)                    ... done
Exchange-Correlation gradient            ... done

                 ---------------------------
                 EXCITED STATE GRADIENT DONE
                 ---------------------------

------------------
CARTESIAN GRADIENT
------------------

   1   O   :    0.091169586   -0.117382642   -0.006402772
   2   C   :   -0.051057375   -0.012948519    0.030137418
   3   C   :   -0.046698721    0.151218551   -0.084887342
   4   H   :    0.011306208    0.000061083   -0.013651397
   5   H   :    0.001392571   -0.008929195   -0.010797018
   6   H   :   -0.024036041    0.002765952    0.032646258
   7   H   :    0.017882726   -0.014835078    0.052957573

Difference to translation invariance:
           :   -0.0000410469   -0.0000498483    0.0000027205

Difference to rotation invariance:
           :   -0.0000619874   -0.0000350974    0.0001695056

Norm of the cartesian gradient     ...    0.2521428463
RMS gradient                       ...    0.0550220800
MAX gradient                       ...    0.1512185508

------------------------------------------------------------------------------
                  RELAXED CIS/TDA DENSITY POPULATION ANALYSIS
                                   IROOT 1
------------------------------------------------------------------------------
------------------------------------------------------------------------------
                           ORCA POPULATION ANALYSIS
------------------------------------------------------------------------------
Input electron density              ... ox_es1_A_orca0034.cisp
BaseName (.gbw .S,...)              ... ox_es1_A_orca0034

                    ********************************
                    * MULLIKEN POPULATION ANALYSIS *
                    ********************************

-----------------------
MULLIKEN ATOMIC CHARGES
-----------------------
   0 O :    0.127959
   1 C :   -0.135395
   2 C :   -0.667604
   3 H :    0.161254
   4 H :    0.159740
   5 H :    0.178126
   6 H :    0.175920
Sum of atomic charges:   -0.0000000

--------------------------------
MULLIKEN REDUCED ORBITAL CHARGES
--------------------------------
  0 O s       :     3.748886  s :     3.748886
      pz      :     1.068004  p :     4.092512
      px      :     1.554431
      py      :     1.470076
      dz2     :     0.002789  d :     0.029614
      dxz     :     0.002253
      dyz     :     0.004962
      dx2y2   :     0.008866
      dxy     :     0.010743
      f0      :     0.000033  f :     0.001029
      f+1     :    -0.000038
      f-1     :     0.000082
      f+2     :     0.000071
      f-2     :     0.000155
      f+3     :     0.000290
      f-3     :     0.000436
  1 C s       :     3.233925  s :     3.233925
      pz      :     1.047874  p :     2.804702
      px      :     0.988500
      py      :     0.768328
      dz2     :     0.008547  d :     0.087066
      dxz     :     0.022299
      dyz     :     0.009584
      dx2y2   :     0.027781
      dxy     :     0.018854
      f0      :     0.000864  f :     0.009701
      f+1     :     0.001515
      f-1     :     0.000474
      f+2     :     0.000804
      f-2     :     0.000844
      f+3     :     0.002586
      f-3     :     0.002614
  2 C s       :     3.317925  s :     3.317925
      pz      :     1.066289  p :     3.257967
      px      :     0.870816
      py      :     1.320862
      dz2     :     0.010858  d :     0.082597
      dxz     :     0.014106
      dyz     :     0.004166
      dx2y2   :     0.034006
      dxy     :     0.019460
      f0      :     0.000896  f :     0.009116
      f+1     :     0.001214
      f-1     :     0.000774
      f+2     :     0.000894
      f-2     :     0.000641
      f+3     :     0.002696
      f-3     :     0.002001
  3 H s       :     0.816003  s :     0.816003
      pz      :     0.011739  p :     0.022742
      px      :     0.007073
      py      :     0.003931
  4 H s       :     0.818782  s :     0.818782
      pz      :     0.011256  p :     0.021478
      px      :     0.006739
      py      :     0.003483
  5 H s       :     0.793818  s :     0.793818
      pz      :     0.011163  p :     0.028056
      px      :     0.006623
      py      :     0.010270
  6 H s       :     0.802736  s :     0.802736
      pz      :     0.009500  p :     0.021344
      px      :     0.004784
      py      :     0.007060


                     *******************************
                     * LOEWDIN POPULATION ANALYSIS *
                     *******************************

----------------------
LOEWDIN ATOMIC CHARGES
----------------------
   0 O :    0.315141
   1 C :   -0.297482
   2 C :   -0.570255
   3 H :    0.133908
   4 H :    0.148878
   5 H :    0.109567
   6 H :    0.160242

-------------------------------
LOEWDIN REDUCED ORBITAL CHARGES
-------------------------------
  0 O s       :     3.534472  s :     3.534472
      pz      :     1.025722  p :     4.061223
      px      :     1.523260
      py      :     1.512241
      dz2     :     0.013028  d :     0.084644
      dxz     :     0.006127
      dyz     :     0.011054
      dx2y2   :     0.028816
      dxy     :     0.025619
      f0      :     0.000426  f :     0.004520
      f+1     :     0.000070
      f-1     :     0.000663
      f+2     :     0.000153
      f-2     :     0.000649
      f+3     :     0.000908
      f-3     :     0.001650
  1 C s       :     2.841766  s :     2.841766
      pz      :     1.042275  p :     2.965706
      px      :     1.095904
      py      :     0.827527
      dz2     :     0.064812  d :     0.422423
      dxz     :     0.116578
      dyz     :     0.033620
      dx2y2   :     0.112069
      dxy     :     0.095344
      f0      :     0.006586  f :     0.067587
      f+1     :     0.005755
      f-1     :     0.005992
      f+2     :     0.005637
      f-2     :     0.003756
      f+3     :     0.021761
      f-3     :     0.018100
  2 C s       :     2.863897  s :     2.863897
      pz      :     1.044921  p :     3.164568
      px      :     1.026254
      py      :     1.093393
      dz2     :     0.078746  d :     0.477705
      dxz     :     0.098403
      dyz     :     0.023211
      dx2y2   :     0.149368
      dxy     :     0.127977
      f0      :     0.006234  f :     0.064084
      f+1     :     0.004889
      f-1     :     0.007713
      f+2     :     0.005015
      f-2     :     0.002479
      f+3     :     0.023170
      f-3     :     0.014584
  3 H s       :     0.798355  s :     0.798355
      pz      :     0.035774  p :     0.067738
      px      :     0.020111
      py      :     0.011852
  4 H s       :     0.790105  s :     0.790105
      pz      :     0.032739  p :     0.061016
      px      :     0.018321
      py      :     0.009956
  5 H s       :     0.806078  s :     0.806078
      pz      :     0.036555  p :     0.084355
      px      :     0.019824
      py      :     0.027975
  6 H s       :     0.783981  s :     0.783981
      pz      :     0.026112  p :     0.055777
      px      :     0.011917
      py      :     0.017747


                      *****************************
                      * MAYER POPULATION ANALYSIS *
                      *****************************

  NA   - Mulliken gross atomic population
  ZA   - Total nuclear charge
  QA   - Mulliken gross atomic charge
  VA   - Mayer's total valence
  BVA  - Mayer's bonded valence
  FA   - Mayer's free valence

  ATOM       NA         ZA         QA         VA         BVA        FA
  0 O      7.8720     8.0000     0.1280     1.7281     0.9620     0.7661
  1 C      6.1354     6.0000    -0.1354     3.9373     3.7982     0.1391
  2 C      6.6676     6.0000    -0.6676     4.0620     3.1652     0.8968
  3 H      0.8387     1.0000     0.1613     0.9638     0.9431     0.0207
  4 H      0.8403     1.0000     0.1597     0.9662     0.9413     0.0248
  5 H      0.8219     1.0000     0.1781     0.9771     0.9614     0.0157
  6 H      0.8241     1.0000     0.1759     0.9684     0.9481     0.0203

  Mayer bond orders larger than 0.100000
B(  0-O ,  1-C ) :   0.8275 B(  0-O ,  2-C ) :   0.1320 B(  1-C ,  2-C ) :   1.1235 
B(  1-C ,  3-H ) :   0.9290 B(  1-C ,  4-H ) :   0.9217 B(  2-C ,  5-H ) :   0.9590 
B(  2-C ,  6-H ) :   0.9370 


-------
TIMINGS
-------

Total TD-DFT gradient time         ...        5.094 sec

Fock matrix formation       ....       0.845 sec  ( 16.6%)
  Coulomb formation         ....       0.689 sec  ( 81.5% of F)
  RI-J                      ....       0.308 sec  ( 36.5% of F)
  Chain of spheres X        ....       0.380 sec  ( 45.0% of F)
  XC integration            ....       0.156 sec  ( 18.5% of F)
Z-vector equation           ....       1.410 sec  ( 27.7%)
One electron gradient       ....       0.032 sec  (  0.6%)
Prescreening matrices       ....       0.157 sec  (  3.1%)
RI-J Coulomb gradient       ....       0.266 sec  (  5.2%)
COSX gradient               ....       0.364 sec  (  7.2%)
XC gradient                 ....       1.675 sec  ( 32.9%)

Maximum memory used throughout the entire SCFGRAD-calculation: 130.3 MB

                            ***************************************
                            *     ORCA property calculations      *
                            ***************************************

                                    ---------------------
                                    Active property flags
                                    ---------------------
   (+) Dipole Moment


------------------------------------------------------------------------------
                       ORCA ELECTRIC PROPERTIES CALCULATION
------------------------------------------------------------------------------

Dipole Moment Calculation                       ... on
Quadrupole Moment Calculation                   ... off
Polarizability Calculation                      ... off
GBWName                                         ... ox_es1_A_orca0034.gbw
Electron density                                ... ox_es1_A_orca0034.scfp
The origin for moment calculation is the CENTER OF MASS  = ( 0.011357, -0.067580 -0.033734)

-------------
DIPOLE MOMENT
-------------
                                X             Y             Z
Electronic contribution:      0.00581       1.52765      -0.07009
Nuclear contribution   :     -0.00430      -2.40729       0.03577
                        -----------------------------------------
Total Dipole Moment    :      0.00151      -0.87965      -0.03432
                        -----------------------------------------
Magnitude (a.u.)       :      0.88032
Magnitude (Debye)      :      2.23759



--------------------
Rotational spectrum 
--------------------
 
Rotational constants in cm-1:     0.778890     0.716421     0.445256 
Rotational constants in MHz : 23350.541004 21477.775445 13348.440872 

 Dipole components along the rotational axes: 
x,y,z [a.u.] :    -0.522621    -0.708307    -0.011275 
x,y,z [Debye]:    -1.328396    -1.800373    -0.028659 

 

                        *** CIS RELAXED DENSITY ***

------------------------------------------------------------------------------
                       ORCA ELECTRIC PROPERTIES CALCULATION
------------------------------------------------------------------------------

Dipole Moment Calculation                       ... on
Quadrupole Moment Calculation                   ... off
Polarizability Calculation                      ... off
GBWName                                         ... ox_es1_A_orca0034.gbw
Electron density                                ... ox_es1_A_orca0034.cisp
The origin for moment calculation is the CENTER OF MASS  = ( 0.011357, -0.067580 -0.033734)

-------------
DIPOLE MOMENT
-------------
                                X             Y             Z
Electronic contribution:     -0.65714       2.34670      -0.00705
Nuclear contribution   :     -0.00430      -2.40729       0.03577
                        -----------------------------------------
Total Dipole Moment    :     -0.66144      -0.06060       0.02872
                        -----------------------------------------
Magnitude (a.u.)       :      0.66483
Magnitude (Debye)      :      1.68986



--------------------
Rotational spectrum 
--------------------
 
Rotational constants in cm-1:     0.778890     0.716421     0.445256 
Rotational constants in MHz : 23350.541004 21477.775445 13348.440872 

 Dipole components along the rotational axes: 
x,y,z [a.u.] :     0.498081    -0.440166     0.012864 
x,y,z [Debye]:     1.266022    -1.118814     0.032697 

 

Timings for individual modules:

Sum of individual times         ...        7.849 sec (=   0.131 min)
GTO integral calculation        ...        0.332 sec (=   0.006 min)   4.2 %
SCF iterations                  ...        1.230 sec (=   0.020 min)  15.7 %
CIS module                      ...        0.997 sec (=   0.017 min)  12.7 %
SCF Gradient evaluation         ...        5.290 sec (=   0.088 min)  67.4 %
                             ****ORCA TERMINATED NORMALLY****
TOTAL RUN TIME: 0 days 0 hours 0 minutes 8 seconds 242 msec
