
                                 *****************
                                 * O   R   C   A *
                                 *****************

                                            #,                                       
                                            ###                                      
                                            ####                                     
                                            #####                                    
                                            ######                                   
                                           ########,                                 
                                     ,,################,,,,,                         
                               ,,#################################,,                 
                          ,,##########################################,,             
                       ,#########################################, ''#####,          
                    ,#############################################,,   '####,        
                  ,##################################################,,,,####,       
                ,###########''''           ''''###############################       
              ,#####''   ,,,,##########,,,,          '''####'''          '####       
            ,##' ,,,,###########################,,,                        '##       
           ' ,,###''''                  '''############,,,                           
         ,,##''                                '''############,,,,        ,,,,,,###''
      ,#''                                            '''#######################'''  
     '                                                          ''''####''''         
             ,#######,   #######,   ,#######,      ##                                
            ,#'     '#,  ##    ##  ,#'     '#,    #''#        ######   ,####,        
            ##       ##  ##   ,#'  ##            #'  '#       #        #'  '#        
            ##       ##  #######   ##           ,######,      #####,   #    #        
            '#,     ,#'  ##    ##  '#,     ,#' ,#      #,         ##   #,  ,#        
             '#######'   ##     ##  '#######'  #'      '#     #####' # '####'        



                  #######################################################
                  #                        -***-                        #
                  #          Department of theory and spectroscopy      #
                  #    Directorship and core code : Frank Neese         #
                  #        Max Planck Institute fuer Kohlenforschung    #
                  #                Kaiser Wilhelm Platz 1               #
                  #                 D-45470 Muelheim/Ruhr               #
                  #                      Germany                        #
                  #                                                     #
                  #                  All rights reserved                #
                  #                        -***-                        #
                  #######################################################


                         Program Version 5.0.2 -  RELEASE  -


 With contributions from (in alphabetic order):
   Daniel Aravena         : Magnetic Suceptibility
   Michael Atanasov       : Ab Initio Ligand Field Theory (pilot matlab implementation)
   Alexander A. Auer      : GIAO ZORA, VPT2 properties, NMR spectrum
   Ute Becker             : Parallelization
   Giovanni Bistoni       : ED, misc. LED, open-shell LED, HFLD
   Martin Brehm           : Molecular dynamics
   Dmytro Bykov           : SCF Hessian
   Vijay G. Chilkuri      : MRCI spin determinant printing, contributions to CSF-ICE
   Dipayan Datta          : RHF DLPNO-CCSD density
   Achintya Kumar Dutta   : EOM-CC, STEOM-CC
   Dmitry Ganyushin       : Spin-Orbit,Spin-Spin,Magnetic field MRCI
   Miquel Garcia          : C-PCM and meta-GGA Hessian, CC/C-PCM, Gaussian charge scheme
   Yang Guo               : DLPNO-NEVPT2, F12-NEVPT2, CIM, IAO-localization
   Andreas Hansen         : Spin unrestricted coupled pair/coupled cluster methods
   Benjamin Helmich-Paris : MC-RPA, TRAH-SCF, COSX integrals
   Lee Huntington         : MR-EOM, pCC
   Robert Izsak           : Overlap fitted RIJCOSX, COSX-SCS-MP3, EOM
   Marcus Kettner         : VPT2
   Christian Kollmar      : KDIIS, OOCD, Brueckner-CCSD(T), CCSD density, CASPT2, CASPT2-K
   Simone Kossmann        : Meta GGA functionals, TD-DFT gradient, OOMP2, MP2 Hessian
   Martin Krupicka        : Initial AUTO-CI
   Lucas Lang             : DCDCAS
   Marvin Lechner         : AUTO-CI (C++ implementation), FIC-MRCC
   Dagmar Lenk            : GEPOL surface, SMD
   Dimitrios Liakos       : Extrapolation schemes; Compound Job, initial MDCI parallelization
   Dimitrios Manganas     : Further ROCIS development; embedding schemes
   Dimitrios Pantazis     : SARC Basis sets
   Anastasios Papadopoulos: AUTO-CI, single reference methods and gradients
   Taras Petrenko         : DFT Hessian,TD-DFT gradient, ASA, ECA, R-Raman, ABS, FL, XAS/XES, NRVS
   Peter Pinski           : DLPNO-MP2, DLPNO-MP2 Gradient
   Christoph Reimann      : Effective Core Potentials
   Marius Retegan         : Local ZFS, SOC
   Christoph Riplinger    : Optimizer, TS searches, QM/MM, DLPNO-CCSD(T), (RO)-DLPNO pert. Triples
   Tobias Risthaus        : Range-separated hybrids, TD-DFT gradient, RPA, STAB
   Michael Roemelt        : Original ROCIS implementation
   Masaaki Saitow         : Open-shell DLPNO-CCSD energy and density
   Barbara Sandhoefer     : DKH picture change effects
   Avijit Sen             : IP-ROCIS
   Kantharuban Sivalingam : CASSCF convergence, NEVPT2, FIC-MRCI
   Bernardo de Souza      : ESD, SOC TD-DFT
   Georgi Stoychev        : AutoAux, RI-MP2 NMR, DLPNO-MP2 response
   Willem Van den Heuvel  : Paramagnetic NMR
   Boris Wezisla          : Elementary symmetry handling
   Frank Wennmohs         : Technical directorship


 We gratefully acknowledge several colleagues who have allowed us to
 interface, adapt or use parts of their codes:
   Stefan Grimme, W. Hujo, H. Kruse, P. Pracht,  : VdW corrections, initial TS optimization,
                  C. Bannwarth, S. Ehlert          DFT functionals, gCP, sTDA/sTD-DF
   Ed Valeev, F. Pavosevic, A. Kumar             : LibInt (2-el integral package), F12 methods
   Garnet Chan, S. Sharma, J. Yang, R. Olivares  : DMRG
   Ulf Ekstrom                                   : XCFun DFT Library
   Mihaly Kallay                                 : mrcc  (arbitrary order and MRCC methods)
   Jiri Pittner, Ondrej Demel                    : Mk-CCSD
   Frank Weinhold                                : gennbo (NPA and NBO analysis)
   Christopher J. Cramer and Donald G. Truhlar   : smd solvation model
   Lars Goerigk                                  : TD-DFT with DH, B97 family of functionals
   V. Asgeirsson, H. Jonsson                     : NEB implementation
   FAccTs GmbH                                   : IRC, NEB, NEB-TS, DLPNO-Multilevel, CI-OPT
                                                   MM, QMMM, 2- and 3-layer-ONIOM, Crystal-QMMM,
                                                   LR-CPCM, SF, NACMEs, symmetry and pop. for TD-DFT,
                                                   nearIR, NL-DFT gradient (VV10), updates on ESD,
                                                   ML-optimized integration grids
   S Lehtola, MJT Oliveira, MAL Marques          : LibXC Library
   Liviu Ungur et al                             : ANISO software


 Your calculation uses the libint2 library for the computation of 2-el integrals
 For citations please refer to: http://libint.valeyev.net

 Your ORCA version has been built with support for libXC version: 5.1.0
 For citations please refer to: https://tddft.org/programs/libxc/

 This ORCA versions uses:
   CBLAS   interface :  Fast vector & matrix operations
   LAPACKE interface :  Fast linear algebra routines
   SCALAPACK package :  Parallel linear algebra routines
   Shared memory     :  Shared parallel matrices
   BLAS/LAPACK       :  OpenBLAS 0.3.15  USE64BITINT DYNAMIC_ARCH NO_AFFINITY SkylakeX SINGLE_THREADED
        Core in use  :  SkylakeX
   Copyright (c) 2011-2014, The OpenBLAS Project


Your calculation utilizes the atom-pairwise dispersion correction
with the Becke-Johnson damping scheme (D3BJ)
Cite in your paper:
S.Grimme, S.Ehrlich, L.Goerigk, J Comput Chem, (2011), 32, 1456–1465 
S.Grimme, J.Antony, S.Ehrlich and H.Krieg, J.Chem.Phys., 132, (2010), 154104 
   

================================================================================

----- Orbital basis set information -----
Your calculation utilizes the basis: def2-TZVP
   F. Weigend and R. Ahlrichs, Phys. Chem. Chem. Phys. 7, 3297 (2005).

----- AuxJ basis set information -----
Your calculation utilizes the auxiliary basis: def2/J
   F. Weigend, Phys. Chem. Chem. Phys. 8, 1057 (2006).

================================================================================
                                        WARNINGS
                       Please study these warnings very carefully!
================================================================================

INFO   : Checking CIS options ...

WARNING: CIS/ROCIS methods need fully converged wavefunctions
  ===> : Setting SCFConvForced true
         You can overwrite this default with %scf ConvForced false 


INFO   : the flag for use of the SHARK integral package has been found!

================================================================================
                                       INPUT FILE
================================================================================
NAME = ox_es1_E_orca0007.inp
|  1> ! engrad PBE0 D3BJ def2-TZVP  
|  2> %pal nprocs 8 end
|  3> %maxcore 3000
|  4> 
|  5> %tddft
|  6>   nroots 1
|  7>   tda true
|  8>   Iroot 1
|  9>   end 
| 10> *xyz 0 1 
| 11> O   -0.9720642135052606 1.0336636943516813 -0.029304202515011677
| 12> C   -0.7473255550960107 -0.547893472121608 -0.002815920167265067
| 13> C   0.7977210328529762 -0.45946670354499464 -0.0795783903989652
| 14> H   -1.3536037655378748 -0.7293974173636603 0.9178510624101837
| 15> H   -1.2144657683553732 -0.7207085992371328 -0.8810982708147088
| 16> H   1.3120554328370384 -0.6506988044171761 -0.9947967974298769
| 17> H   1.2630774172247485 -0.7101075273864327 0.8911740299132366
| 18> *
| 19> 
| 20>                          ****END OF INPUT****
================================================================================

                     *******************************
                     * Energy+Gradient Calculation *
                     *******************************

---------------------------------
CARTESIAN COORDINATES (ANGSTROEM)
---------------------------------
  O     -0.972064    1.033664   -0.029304
  C     -0.747326   -0.547893   -0.002816
  C      0.797721   -0.459467   -0.079578
  H     -1.353604   -0.729397    0.917851
  H     -1.214466   -0.720709   -0.881098
  H      1.312055   -0.650699   -0.994797
  H      1.263077   -0.710108    0.891174

----------------------------
CARTESIAN COORDINATES (A.U.)
----------------------------
  NO LB      ZA    FRAG     MASS         X           Y           Z
   0 O     8.0000    0    15.999   -1.836935    1.953341   -0.055377
   1 C     6.0000    0    12.011   -1.412241   -1.035369   -0.005321
   2 C     6.0000    0    12.011    1.507474   -0.868266   -0.150381
   3 H     1.0000    0     1.008   -2.557940   -1.378361    1.734487
   4 H     1.0000    0     1.008   -2.295008   -1.361942   -1.665034
   5 H     1.0000    0     1.008    2.479425   -1.229643   -1.879894
   6 H     1.0000    0     1.008    2.386870   -1.341909    1.684075

--------------------------------
INTERNAL COORDINATES (ANGSTROEM)
--------------------------------
 O      0   0   0     0.000000000000     0.00000000     0.00000000
 C      1   0   0     1.597664597000     0.00000000     0.00000000
 C      2   1   0     1.549477566527    94.75814999     0.00000000
 H      2   1   3     1.117203939934    95.63271302   127.18225882
 H      2   1   3     1.009685562174    95.15953612   243.97561490
 H      3   2   1     1.067114953498   120.85516823   257.27559572
 H      3   2   1     1.105322418389   111.30668832   106.78496867

---------------------------
INTERNAL COORDINATES (A.U.)
---------------------------
 O      0   0   0     0.000000000000     0.00000000     0.00000000
 C      1   0   0     3.019148542192     0.00000000     0.00000000
 C      2   1   0     2.928088251390    94.75814999     0.00000000
 H      2   1   3     2.111209482212    95.63271302   127.18225882
 H      2   1   3     1.908029193883    95.15953612   243.97561490
 H      3   2   1     2.016555015523   120.85516823   257.27559572
 H      3   2   1     2.088756660439   111.30668832   106.78496867

---------------------
BASIS SET INFORMATION
---------------------
There are 3 groups of distinct atoms

 Group   1 Type O   : 11s6p2d1f contracted to 5s3p2d1f pattern {62111/411/11/1}
 Group   2 Type C   : 11s6p2d1f contracted to 5s3p2d1f pattern {62111/411/11/1}
 Group   3 Type H   : 5s1p contracted to 3s1p pattern {311/1}

Atom   0O    basis set group =>   1
Atom   1C    basis set group =>   2
Atom   2C    basis set group =>   2
Atom   3H    basis set group =>   3
Atom   4H    basis set group =>   3
Atom   5H    basis set group =>   3
Atom   6H    basis set group =>   3
---------------------------------
AUXILIARY/J BASIS SET INFORMATION
---------------------------------
There are 3 groups of distinct atoms

 Group   1 Type O   : 12s5p4d2f1g contracted to 6s4p3d1f1g pattern {711111/2111/211/2/1}
 Group   2 Type C   : 12s5p4d2f1g contracted to 6s4p3d1f1g pattern {711111/2111/211/2/1}
 Group   3 Type H   : 5s2p1d contracted to 3s1p1d pattern {311/2/1}

Atom   0O    basis set group =>   1
Atom   1C    basis set group =>   2
Atom   2C    basis set group =>   2
Atom   3H    basis set group =>   3
Atom   4H    basis set group =>   3
Atom   5H    basis set group =>   3
Atom   6H    basis set group =>   3

Checking for AutoStart:
The File: ox_es1_E_orca0007.gbw exists
Trying to determine its content:
     ... Fine, the file contains calculation information
     ... Fine, the calculation information was read
     ... Fine, the file contains a basis set
     ... Fine, the basis set was read
     ... Fine, the file contains a geometry
     ... Fine, the geometry was read
     ... Fine, the file contains a set of orbitals
     ... Fine, the orbitals can be read
     => possible old guess file was deleted
     => GBW file was renamed to GES file
     => GES file is set as startup file
     => Guess is set to MORead
     ... now leaving AutoStart



           ************************************************************
           *        Program running with 8 parallel MPI-processes     *
           *              working on a common directory               *
           ************************************************************
------------------------------------------------------------------------------
                           ORCA GTO INTEGRAL CALCULATION
                           -- RI-GTO INTEGRALS CHOSEN --
------------------------------------------------------------------------------
------------------------------------------------------------------------------
                   ___                                                        
                  /   \      - P O W E R E D   B Y -                         
                 /     \                                                     
                 |  |  |   _    _      __       _____    __    __             
                 |  |  |  | |  | |    /  \     |  _  \  |  |  /  |          
                  \  \/   | |  | |   /    \    | | | |  |  | /  /          
                 / \  \   | |__| |  /  /\  \   | |_| |  |  |/  /          
                |  |  |   |  __  | /  /__\  \  |    /   |      \           
                |  |  |   | |  | | |   __   |  |    \   |  |\   \          
                \     /   | |  | | |  |  |  |  | |\  \  |  | \   \       
                 \___/    |_|  |_| |__|  |__|  |_| \__\ |__|  \__/        
                                                                              
                      - O R C A' S   B I G   F R I E N D -                    
                                      &                                       
                       - I N T E G R A L  F E E D E R -                       
                                                                              
 v1 FN, 2020, v2 2021                                                         
------------------------------------------------------------------------------


Reading SHARK input file ox_es1_E_orca0007.SHARKINP.tmp ... ok
----------------------
SHARK INTEGRAL PACKAGE
----------------------

Number of atoms                             ...      7
Number of basis functions                   ...    117
Number of shells                            ...     49
Maximum angular momentum                    ...      3
Integral batch strategy                     ... SHARK/LIBINT Hybrid
RI-J (if used) integral strategy            ... SPLIT-RIJ (Revised 2003 algorithm where possible)
Printlevel                                  ...      1
Contraction scheme used                     ... SEGMENTED contraction
Coulomb Range Separation                    ... NOT USED
Exchange Range Separation                   ... NOT USED
Finite Nucleus Model                        ... NOT USED
Auxiliary Coulomb fitting basis             ... AVAILABLE
   # of basis functions in Aux-J            ...    191
   # of shells in Aux-J                     ...     65
   Maximum angular momentum in Aux-J        ...      4
Auxiliary J/K fitting basis                 ... NOT available
Auxiliary Correlation fitting basis         ... NOT available
Auxiliary 'external' fitting basis          ... NOT available
Integral threshold                          ...     2.500000e-11
Primitive cut-off                           ...     2.500000e-12
Primitive pair pre-selection threshold      ...     2.500000e-12

Calculating pre-screening integrals         ... done (  0.0 sec) Dimension = 49
Organizing shell pair data                  ... done (  0.0 sec)
Shell pair information
Total number of shell pairs                 ...      1225
Shell pairs after pre-screening             ...      1213
Total number of primitive shell pairs       ...      3648
Primitive shell pairs kept                  ...      3071
          la=0 lb=0:    367 shell pairs
          la=1 lb=0:    351 shell pairs
          la=1 lb=1:     91 shell pairs
          la=2 lb=0:    161 shell pairs
          la=2 lb=1:     78 shell pairs
          la=2 lb=2:     21 shell pairs
          la=3 lb=0:     81 shell pairs
          la=3 lb=1:     39 shell pairs
          la=3 lb=2:     18 shell pairs
          la=3 lb=3:      6 shell pairs

Calculating one electron integrals          ... done (  0.0 sec)
Calculating RI/J V-Matrix + Cholesky decomp.... done (  0.0 sec)
Calculating Nuclear repulsion               ... done (  0.0 sec) ENN=     64.991842893664 Eh

SHARK setup successfully completed in   0.1 seconds

Maximum memory used throughout the entire GTOINT-calculation: 14.9 MB


           ************************************************************
           *        Program running with 8 parallel MPI-processes     *
           *              working on a common directory               *
           ************************************************************
-------------------------------------------------------------------------------
                                 ORCA SCF
-------------------------------------------------------------------------------

------------
SCF SETTINGS
------------
Hamiltonian:
 Density Functional     Method          .... DFT(GTOs)
 Exchange Functional    Exchange        .... PBE
   PBE kappa parameter   XKappa         ....  0.804000
   PBE mue parameter    XMuePBE         ....  0.219520
 Correlation Functional Correlation     .... PBE
   PBE beta parameter  CBetaPBE         ....  0.066725
 LDA part of GGA corr.  LDAOpt          .... PW91-LDA
 Gradients option       PostSCFGGA      .... off
 Hybrid DFT is turned on
   Fraction HF Exchange ScalHFX         ....  0.250000
   Scaling of DF-GGA-X  ScalDFX         ....  0.750000
   Scaling of DF-GGA-C  ScalDFC         ....  1.000000
   Scaling of DF-LDA-C  ScalLDAC        ....  1.000000
   Perturbative correction              ....  0.000000
   Density functional embedding theory  .... OFF
   NL short-range parameter             ....  6.900000
 RI-approximation to the Coulomb term is turned on
   Number of AuxJ basis functions       .... 191
   RIJ-COSX (HFX calculated with COS-X)).... on


General Settings:
 Integral files         IntName         .... ox_es1_E_orca0007
 Hartree-Fock type      HFTyp           .... RHF
 Total Charge           Charge          ....    0
 Multiplicity           Mult            ....    1
 Number of Electrons    NEL             ....   24
 Basis Dimension        Dim             ....  117
 Nuclear Repulsion      ENuc            ....     64.9918428937 Eh

Convergence Acceleration:
 DIIS                   CNVDIIS         .... on
   Start iteration      DIISMaxIt       ....    12
   Startup error        DIISStart       ....  0.200000
   # of expansion vecs  DIISMaxEq       ....     5
   Bias factor          DIISBfac        ....   1.050
   Max. coefficient     DIISMaxC        ....  10.000
 Trust-Rad. Augm. Hess. CNVTRAH         .... auto
   Auto Start mean grad. ratio tolernc. ....  1.125000
   Auto Start start iteration           ....     1
   Auto Start num. interpolation iter.  ....    10
   Max. Number of Micro iterations      ....    16
   Max. Number of Macro iterations      .... Maxiter - #DIIS iter
   Number of Davidson start vectors     ....     2
   Converg. threshold I  (grad. norm)   ....   1.000e-05
   Converg. threshold II (energy diff.) ....   1.000e-08
   Grad. Scal. Fac. for Micro threshold ....   0.100
   Minimum threshold for Micro iter.    ....   0.010
   NR start threshold (gradient norm)   ....   0.001
   Initial trust radius                 ....   0.400
   Minimum AH scaling param. (alpha)    ....   1.000
   Maximum AH scaling param. (alpha)    .... 1000.000
   Orbital update algorithm             .... Taylor
   White noise on init. David. guess    .... on
   Maximum white noise                  ....   0.010
   Quad. conv. algorithm                .... NR
 SOSCF                  CNVSOSCF        .... on
   Start iteration      SOSCFMaxIt      ....   150
   Startup grad/error   SOSCFStart      ....  0.003300
 Level Shifting         CNVShift        .... on
   Level shift para.    LevelShift      ....    0.2500
   Turn off err/grad.   ShiftErr        ....    0.0010
 Zerner damping         CNVZerner       .... off
 Static damping         CNVDamp         .... on
   Fraction old density DampFac         ....    0.7000
   Max. Damping (<1)    DampMax         ....    0.9800
   Min. Damping (>=0)   DampMin         ....    0.0000
   Turn off err/grad.   DampErr         ....    0.1000
 Fernandez-Rico         CNVRico         .... off

SCF Procedure:
 Maximum # iterations   MaxIter         ....   125
 SCF integral mode      SCFMode         .... Direct
   Integral package                     .... SHARK and LIBINT hybrid scheme
 Reset frequency        DirectResetFreq ....    20
 Integral Threshold     Thresh          ....  2.500e-11 Eh
 Primitive CutOff       TCut            ....  2.500e-12 Eh

Convergence Tolerance:
 Convergence Check Mode ConvCheckMode   .... Total+1el-Energy
 Convergence forced     ConvForced      .... 1
 Energy Change          TolE            ....  1.000e-08 Eh
 1-El. energy change                    ....  1.000e-05 Eh
 Orbital Gradient       TolG            ....  1.000e-05
 Orbital Rotation angle TolX            ....  1.000e-05
 DIIS Error             TolErr          ....  5.000e-07


Diagonalization of the overlap matrix:
Smallest eigenvalue                        ... 7.662e-04
Time for diagonalization                   ...    0.002 sec
Threshold for overlap eigenvalues          ... 1.000e-08
Number of eigenvalues below threshold      ... 0
Time for construction of square roots      ...    0.001 sec
Total time needed                          ...    0.003 sec

---------------------
INITIAL GUESS: MOREAD
---------------------
Guess MOs are being read from file: ox_es1_E_orca0007.ges
Input Geometry matches current geometry (good)
Input basis set matches current basis set (good)
MOs were renormalized
MOs were reorthogonalized (Cholesky)
                      ------------------
                      INITIAL GUESS DONE (   0.0 sec)
                      ------------------
-------------------
DFT GRID GENERATION
-------------------

General Integration Accuracy     IntAcc      ... 4.388
Radial Grid Type                 RadialGrid  ... OptM3 with GC (2021)
Angular Grid (max. ang.)         AngularGrid ... 4 (Lebedev-302)
Angular grid pruning method      GridPruning ... 4 (adaptive)
Weight generation scheme         WeightScheme... Becke
Basis function cutoff            BFCut       ... 1.0000e-11
Integration weight cutoff        WCut        ... 1.0000e-14
Angular grids for H and He will be reduced by one unit
Partially contracted basis set               ... off
Rotationally invariant grid construction     ... off

Total number of grid points                  ...    31346
Total number of batches                      ...      493
Average number of points per batch           ...       63
Average number of grid points per atom       ...     4478
Time for grid setup =    0.135 sec

--------------------
COSX GRID GENERATION
--------------------

GRIDX 1
-------
General Integration Accuracy     IntAcc      ... 3.816
Radial Grid Type                 RadialGrid  ... OptM3 with GC (2021)
Angular Grid (max. ang.)         AngularGrid ... 1 (Lebedev-50)
Angular grid pruning method      GridPruning ... 4 (adaptive)
Weight generation scheme         WeightScheme... Becke
Basis function cutoff            BFCut       ... 1.0000e-11
Integration weight cutoff        WCut        ... 1.0000e-14
Angular grids for H and He will be reduced by one unit
Partially contracted basis set               ... on
Rotationally invariant grid construction     ... off

Total number of grid points                  ...     4039
Total number of batches                      ...       68
Average number of points per batch           ...       59
Average number of grid points per atom       ...      577
UseSFitting                                  ... on

GRIDX 2
-------
General Integration Accuracy     IntAcc      ... 4.020
Radial Grid Type                 RadialGrid  ... OptM3 with GC (2021)
Angular Grid (max. ang.)         AngularGrid ... 2 (Lebedev-110)
Angular grid pruning method      GridPruning ... 4 (adaptive)
Weight generation scheme         WeightScheme... Becke
Basis function cutoff            BFCut       ... 1.0000e-11
Integration weight cutoff        WCut        ... 1.0000e-14
Angular grids for H and He will be reduced by one unit
Partially contracted basis set               ... on
Rotationally invariant grid construction     ... off

Total number of grid points                  ...     8738
Total number of batches                      ...      140
Average number of points per batch           ...       62
Average number of grid points per atom       ...     1248
UseSFitting                                  ... on

GRIDX 3
-------
General Integration Accuracy     IntAcc      ... 4.338
Radial Grid Type                 RadialGrid  ... OptM3 with GC (2021)
Angular Grid (max. ang.)         AngularGrid ... 3 (Lebedev-194)
Angular grid pruning method      GridPruning ... 4 (adaptive)
Weight generation scheme         WeightScheme... Becke
Basis function cutoff            BFCut       ... 1.0000e-11
Integration weight cutoff        WCut        ... 1.0000e-14
Angular grids for H and He will be reduced by one unit
Partially contracted basis set               ... on
Rotationally invariant grid construction     ... off

Total number of grid points                  ...    19287
Total number of batches                      ...      307
Average number of points per batch           ...       62
Average number of grid points per atom       ...     2755
UseSFitting                                  ... on

Time for X-Grid setup             =    0.083 sec

--------------
SCF ITERATIONS
--------------
ITER       Energy         Delta-E        Max-DP      RMS-DP      [F,P]     Damp
               ***  Starting incremental Fock matrix formation  ***
                      *** Initiating the SOSCF procedure ***
                      *** Re-Reading the Fockian *** 
                      *** Removing any level shift *** 
ITER      Energy       Delta-E        Grad      Rot      Max-DP    RMS-DP
  0   -153.51986976 -153.5198697555  0.000001  0.000001  0.000001  0.000000
               *** Restarting incremental Fock matrix formation ***
                 **** Energy Check signals convergence ****
              ***Rediagonalizing the Fockian in SOSCF/NRSCF***

               *****************************************************
               *                     SUCCESS                       *
               *           SCF CONVERGED AFTER   1 CYCLES          *
               *****************************************************

Old exchange energy                            =     -4.931106451 Eh
New exchange energy                            =     -4.931110023 Eh
Exchange energy change after final integration =     -0.000003572 Eh
Total energy after final integration           =   -153.519873327 Eh
Final COS-X integration done in                =     0.303 sec

----------------
TOTAL SCF ENERGY
----------------

Total Energy       :         -153.51987333 Eh           -4177.48813 eV

Components:
Nuclear Repulsion  :           64.99184289 Eh            1768.51795 eV
Electronic Energy  :         -218.51171622 Eh           -5946.00609 eV
One Electron Energy:         -336.93537157 Eh           -9168.47758 eV
Two Electron Energy:          118.42365535 Eh            3222.47149 eV
Max COSX asymmetry :            0.00000129 Eh               0.00004 eV

Virial components:
Potential Energy   :         -306.00358157 Eh           -8326.78078 eV
Kinetic Energy     :          152.48370825 Eh            4149.29265 eV
Virial Ratio       :            2.00679525


DFT components:
N(Alpha)           :       12.000002060922 electrons
N(Beta)            :       12.000002060922 electrons
N(Total)           :       24.000004121844 electrons
E(X)               :      -14.821896978740 Eh       
E(C)               :       -0.762644939403 Eh       
E(XC)              :      -15.584541918143 Eh       
DFET-embed. en.    :        0.000000000000 Eh       

---------------
SCF CONVERGENCE
---------------

  Last Energy change         ...    1.1198e-11  Tolerance :   1.0000e-08
  Last MAX-Density change    ...    4.4409e-16  Tolerance :   1.0000e-07
  Last RMS-Density change    ...    1.9117e-17  Tolerance :   5.0000e-09
  Last Orbital Gradient      ...    2.8053e-07  Tolerance :   1.0000e-05
  Last Orbital Rotation      ...    2.1764e-06  Tolerance :   1.0000e-05

             **** THE GBW FILE WAS UPDATED (ox_es1_E_orca0007.gbw) ****
             **** DENSITY ox_es1_E_orca0007.scfp WAS UPDATED ****
             **** ENERGY FILE WAS UPDATED (ox_es1_E_orca0007.en.tmp) ****
             **** THE GBW FILE WAS UPDATED (ox_es1_E_orca0007.gbw) ****
             **** DENSITY ox_es1_E_orca0007.scfp WAS UPDATED ****
----------------
ORBITAL ENERGIES
----------------

  NO   OCC          E(Eh)            E(eV) 
   0   2.0000     -19.203758      -522.5608 
   1   2.0000     -10.328506      -281.0529 
   2   2.0000     -10.281525      -279.7745 
   3   2.0000      -0.939397       -25.5623 
   4   2.0000      -0.767511       -20.8850 
   5   2.0000      -0.643512       -17.5108 
   6   2.0000      -0.518659       -14.1134 
   7   2.0000      -0.461455       -12.5568 
   8   2.0000      -0.430614       -11.7176 
   9   2.0000      -0.367928       -10.0118 
  10   2.0000      -0.272813        -7.4236 
  11   2.0000      -0.261239        -7.1087 
  12   0.0000      -0.143919        -3.9162 
  13   0.0000       0.051264         1.3950 
  14   0.0000       0.066152         1.8001 
  15   0.0000       0.084986         2.3126 
  16   0.0000       0.093850         2.5538 
  17   0.0000       0.143491         3.9046 
  18   0.0000       0.177191         4.8216 
  19   0.0000       0.189893         5.1673 
  20   0.0000       0.226139         6.1536 
  21   0.0000       0.246253         6.7009 
  22   0.0000       0.261943         7.1278 
  23   0.0000       0.295800         8.0491 
  24   0.0000       0.338134         9.2011 
  25   0.0000       0.363572         9.8933 
  26   0.0000       0.399411        10.8685 
  27   0.0000       0.425782        11.5861 
  28   0.0000       0.443215        12.0605 
  29   0.0000       0.472593        12.8599 
  30   0.0000       0.505419        13.7531 
  31   0.0000       0.536895        14.6096 
  32   0.0000       0.561809        15.2876 
  33   0.0000       0.598879        16.2963 
  34   0.0000       0.664832        18.0910 
  35   0.0000       0.699940        19.0463 
  36   0.0000       0.768338        20.9076 
  37   0.0000       0.825914        22.4743 
  38   0.0000       0.879774        23.9399 
  39   0.0000       0.909723        24.7548 
  40   0.0000       0.920675        25.0528 
  41   0.0000       1.017593        27.6901 
  42   0.0000       1.056072        28.7372 
  43   0.0000       1.059992        28.8439 
  44   0.0000       1.148581        31.2545 
  45   0.0000       1.326666        36.1004 
  46   0.0000       1.394837        37.9554 
  47   0.0000       1.448063        39.4038 
  48   0.0000       1.490790        40.5665 
  49   0.0000       1.510054        41.0907 
  50   0.0000       1.569841        42.7175 
  51   0.0000       1.577136        42.9161 
  52   0.0000       1.593262        43.3549 
  53   0.0000       1.677039        45.6345 
  54   0.0000       1.707557        46.4650 
  55   0.0000       1.746026        47.5118 
  56   0.0000       1.778804        48.4037 
  57   0.0000       1.795782        48.8657 
  58   0.0000       1.845093        50.2075 
  59   0.0000       1.859897        50.6104 
  60   0.0000       2.003199        54.5098 
  61   0.0000       2.044772        55.6411 
  62   0.0000       2.121433        57.7271 
  63   0.0000       2.136378        58.1338 
  64   0.0000       2.266586        61.6770 
  65   0.0000       2.312575        62.9284 
  66   0.0000       2.337010        63.5933 
  67   0.0000       2.450675        66.6863 
  68   0.0000       2.481532        67.5259 
  69   0.0000       2.493480        67.8510 
  70   0.0000       2.557408        69.5906 
  71   0.0000       2.563366        69.7527 
  72   0.0000       2.605156        70.8899 
  73   0.0000       2.655705        72.2654 
  74   0.0000       2.727825        74.2279 
  75   0.0000       2.782714        75.7215 
  76   0.0000       2.855100        77.6912 
  77   0.0000       2.911104        79.2152 
  78   0.0000       2.920089        79.4597 
  79   0.0000       2.951998        80.3280 
  80   0.0000       3.044483        82.8446 
  81   0.0000       3.083968        83.9190 
  82   0.0000       3.087101        84.0043 
  83   0.0000       3.117282        84.8256 
  84   0.0000       3.156023        85.8798 
  85   0.0000       3.219214        87.5993 
  86   0.0000       3.262233        88.7699 
  87   0.0000       3.309671        90.0607 
  88   0.0000       3.341902        90.9378 
  89   0.0000       3.411767        92.8389 
  90   0.0000       3.446085        93.7727 
  91   0.0000       3.614755        98.3625 
  92   0.0000       3.644179        99.1631 
  93   0.0000       3.773363       102.6784 
  94   0.0000       3.931437       106.9798 
  95   0.0000       3.985906       108.4620 
  96   0.0000       4.144255       112.7709 
  97   0.0000       4.156717       113.1100 
  98   0.0000       4.386486       119.3624 
  99   0.0000       4.422781       120.3500 
 100   0.0000       4.561465       124.1238 
 101   0.0000       4.707099       128.0867 
 102   0.0000       5.200341       141.5085 
 103   0.0000       5.228374       142.2713 
 104   0.0000       5.279694       143.6678 
 105   0.0000       5.304416       144.3405 
 106   0.0000       5.522840       150.2841 
 107   0.0000       5.525170       150.3475 
 108   0.0000       5.705217       155.2468 
 109   0.0000       6.334887       172.3811 
 110   0.0000       6.358463       173.0226 
 111   0.0000       6.654636       181.0818 
 112   0.0000       6.674238       181.6153 
 113   0.0000       7.002964       190.5603 
 114   0.0000      21.982074       598.1626 
 115   0.0000      22.247910       605.3964 
 116   0.0000      43.591051      1186.1728 

                    ********************************
                    * MULLIKEN POPULATION ANALYSIS *
                    ********************************

-----------------------
MULLIKEN ATOMIC CHARGES
-----------------------
   0 O :   -0.400965
   1 C :   -0.078797
   2 C :   -0.148386
   3 H :    0.154108
   4 H :    0.137015
   5 H :    0.173004
   6 H :    0.164022
Sum of atomic charges:    0.0000000

--------------------------------
MULLIKEN REDUCED ORBITAL CHARGES
--------------------------------
  0 O s       :     3.939548  s :     3.939548
      pz      :     1.950510  p :     4.446044
      px      :     1.233449
      py      :     1.262085
      dz2     :     0.002245  d :     0.014651
      dxz     :     0.000084
      dyz     :     0.002988
      dx2y2   :     0.005793
      dxy     :     0.003541
      f0      :     0.000083  f :     0.000722
      f+1     :     0.000040
      f-1     :     0.000191
      f+2     :     0.000075
      f-2     :     0.000016
      f+3     :     0.000141
      f-3     :     0.000176
  1 C s       :     3.212795  s :     3.212795
      pz      :     1.088898  p :     2.736224
      px      :     0.902390
      py      :     0.744936
      dz2     :     0.012241  d :     0.122685
      dxz     :     0.016564
      dyz     :     0.030832
      dx2y2   :     0.020205
      dxy     :     0.042843
      f0      :     0.001127  f :     0.007093
      f+1     :     0.001183
      f-1     :     0.000517
      f+2     :     0.001724
      f-2     :     0.000149
      f+3     :     0.001885
      f-3     :     0.000508
  2 C s       :     3.317905  s :     3.317905
      pz      :     1.044796  p :     2.782667
      px      :     0.995025
      py      :     0.742846
      dz2     :     0.006154  d :     0.043919
      dxz     :     0.018691
      dyz     :     0.003251
      dx2y2   :     0.005134
      dxy     :     0.010689
      f0      :     0.000527  f :     0.003895
      f+1     :     0.001053
      f-1     :     0.000108
      f+2     :     0.000536
      f-2     :     0.000139
      f+3     :     0.000680
      f-3     :     0.000852
  3 H s       :     0.825233  s :     0.825233
      pz      :     0.009848  p :     0.020659
      px      :     0.006711
      py      :     0.004100
  4 H s       :     0.839026  s :     0.839026
      pz      :     0.011391  p :     0.023959
      px      :     0.006952
      py      :     0.005616
  5 H s       :     0.803350  s :     0.803350
      pz      :     0.011919  p :     0.023646
      px      :     0.007137
      py      :     0.004591
  6 H s       :     0.813496  s :     0.813496
      pz      :     0.011964  p :     0.022482
      px      :     0.006080
      py      :     0.004439


                     *******************************
                     * LOEWDIN POPULATION ANALYSIS *
                     *******************************

----------------------
LOEWDIN ATOMIC CHARGES
----------------------
   0 O :   -0.181832
   1 C :   -0.299235
   2 C :   -0.013409
   3 H :    0.133914
   4 H :    0.099899
   5 H :    0.123192
   6 H :    0.137472

-------------------------------
LOEWDIN REDUCED ORBITAL CHARGES
-------------------------------
  0 O s       :     3.694979  s :     3.694979
      pz      :     1.905557  p :     4.453542
      px      :     1.204670
      py      :     1.343315
      dz2     :     0.004873  d :     0.031618
      dxz     :     0.000072
      dyz     :     0.006907
      dx2y2   :     0.012733
      dxy     :     0.007033
      f0      :     0.000154  f :     0.001693
      f+1     :     0.000049
      f-1     :     0.000347
      f+2     :     0.000274
      f-2     :     0.000015
      f+3     :     0.000422
      f-3     :     0.000432
  1 C s       :     2.870432  s :     2.870432
      pz      :     1.096357  p :     2.944281
      px      :     1.029825
      py      :     0.818098
      dz2     :     0.060554  d :     0.441325
      dxz     :     0.084431
      dyz     :     0.075168
      dx2y2   :     0.102270
      dxy     :     0.118902
      f0      :     0.006047  f :     0.043197
      f+1     :     0.005014
      f-1     :     0.004536
      f+2     :     0.008715
      f-2     :     0.001382
      f+3     :     0.011045
      f-3     :     0.006458
  2 C s       :     2.940892  s :     2.940892
      pz      :     1.087503  p :     2.867178
      px      :     1.091584
      py      :     0.688092
      dz2     :     0.031374  d :     0.186912
      dxz     :     0.083915
      dyz     :     0.008811
      dx2y2   :     0.032417
      dxy     :     0.030395
      f0      :     0.003093  f :     0.018427
      f+1     :     0.002912
      f-1     :     0.000952
      f+2     :     0.003008
      f-2     :     0.001267
      f+3     :     0.003549
      f-3     :     0.003648
  3 H s       :     0.806525  s :     0.806525
      pz      :     0.029680  p :     0.059562
      px      :     0.018562
      py      :     0.011319
  4 H s       :     0.822599  s :     0.822599
      pz      :     0.038389  p :     0.077502
      px      :     0.021792
      py      :     0.017322
  5 H s       :     0.805650  s :     0.805650
      pz      :     0.037319  p :     0.071158
      px      :     0.020694
      py      :     0.013145
  6 H s       :     0.798236  s :     0.798236
      pz      :     0.035352  p :     0.064292
      px      :     0.016719
      py      :     0.012221


                      *****************************
                      * MAYER POPULATION ANALYSIS *
                      *****************************

  NA   - Mulliken gross atomic population
  ZA   - Total nuclear charge
  QA   - Mulliken gross atomic charge
  VA   - Mayer's total valence
  BVA  - Mayer's bonded valence
  FA   - Mayer's free valence

  ATOM       NA         ZA         QA         VA         BVA        FA
  0 O      8.4010     8.0000    -0.4010     1.7395     1.7395     0.0000
  1 C      6.0788     6.0000    -0.0788     3.9513     3.9513     0.0000
  2 C      6.1484     6.0000    -0.1484     3.8057     3.8057    -0.0000
  3 H      0.8459     1.0000     0.1541     0.9690     0.9690    -0.0000
  4 H      0.8630     1.0000     0.1370     0.9818     0.9818     0.0000
  5 H      0.8270     1.0000     0.1730     0.9558     0.9558     0.0000
  6 H      0.8360     1.0000     0.1640     0.9597     0.9597    -0.0000

  Mayer bond orders larger than 0.100000
B(  0-O ,  1-C ) :   0.9074 B(  0-O ,  2-C ) :   0.8245 B(  1-C ,  2-C ) :   1.0948 
B(  1-C ,  3-H ) :   0.9594 B(  1-C ,  4-H ) :   0.9812 B(  2-C ,  5-H ) :   0.9391 
B(  2-C ,  6-H ) :   0.9466 

-------
TIMINGS
-------

Total SCF time: 0 days 0 hours 0 min 1 sec 

Total time                  ....       1.136 sec
Sum of individual times     ....       1.041 sec  ( 91.7%)

Fock matrix formation       ....       0.806 sec  ( 70.9%)
  Split-RI-J                ....       0.131 sec  ( 16.3% of F)
  Chain of spheres X        ....       0.602 sec  ( 74.8% of F)
  XC integration            ....       0.070 sec  (  8.7% of F)
    Basis function eval.    ....       0.021 sec  ( 29.6% of XC)
    Density eval.           ....       0.015 sec  ( 22.0% of XC)
    XC-Functional eval.     ....       0.004 sec  (  6.2% of XC)
    XC-Potential eval.      ....       0.022 sec  ( 30.9% of XC)
Diagonalization             ....       0.003 sec  (  0.2%)
Density matrix formation    ....       0.001 sec  (  0.0%)
Population analysis         ....       0.003 sec  (  0.2%)
Initial guess               ....       0.008 sec  (  0.7%)
Orbital Transformation      ....       0.000 sec  (  0.0%)
Orbital Orthonormalization  ....       0.001 sec  (  0.1%)
DIIS solution               ....       0.001 sec  (  0.1%)
SOSCF solution              ....       0.003 sec  (  0.2%)
Grid generation             ....       0.218 sec  ( 19.2%)

Maximum memory used throughout the entire SCF-calculation: 61.1 MB


           ************************************************************
           *        Program running with 8 parallel MPI-processes     *
           *              working on a common directory               *
           ************************************************************
------------------------------------------------------------------------------
                        ORCA TD-DFT/TDA CALCULATION
------------------------------------------------------------------------------

Input orbitals are from        ... ox_es1_E_orca0007.gbw
CI-vector output               ... ox_es1_E_orca0007.cis
Tamm-Dancoff approximation     ... operative
CIS-Integral strategy          ... AO-integrals
Integral handling              ... AO integral Direct
Max. core memory used          ... 3000 MB
Reference state                ... RHF
Generation of triplets         ... off
Follow IRoot                   ... off
Number of operators            ... 1
Orbital ranges used for CIS calculation:
 Operator 0:  Orbitals   3... 11  to  12...116
XAS localization array:
 Operator 0:  Orbitals  -1... -1

-------------------
XC-INTEGRATION GRID
-------------------

General Integration Accuracy     IntAcc      ... 3.467
Radial Grid Type                 RadialGrid  ... OptM3 with GC (2021)
Angular Grid (max. ang.)         AngularGrid ... 1 (Lebedev-50)
Angular grid pruning method      GridPruning ... 4 (adaptive)
Weight generation scheme         WeightScheme... Becke
Basis function cutoff            BFCut       ... 1.0000e-11
Integration weight cutoff        WCut        ... 1.0000e-14
Angular grids for H and He will be reduced by one unit
Partially contracted basis set               ... off
Rotationally invariant grid construction     ... off

Total number of grid points                  ...     4545
Total number of batches                      ...       74
Average number of points per batch           ...       61
Average number of grid points per atom       ...      649

---------------------
COSX-INTEGRATION GRID
---------------------

General Integration Accuracy     IntAcc      ... 3.067
Radial Grid Type                 RadialGrid  ... OptM3 with GC (2021)
Angular Grid (max. ang.)         AngularGrid ... 1 (Lebedev-50)
Angular grid pruning method      GridPruning ... 4 (adaptive)
Weight generation scheme         WeightScheme... Becke
Basis function cutoff            BFCut       ... 1.0000e-11
Integration weight cutoff        WCut        ... 1.0000e-14
Angular grids for H and He will be reduced by one unit
Partially contracted basis set               ... on
Rotationally invariant grid construction     ... off

Total number of grid points                  ...     2088
Total number of batches                      ...       37
Average number of points per batch           ...       56
Average number of grid points per atom       ...      298

---------------
TD-DFT XC SETUP
---------------

DFT calculation                         ... on
Name of the grid file                   ... ox_es1_E_orca0007.grid_cis.tmp
Exchange functional (TD-DFT)            ... PBE
   PBE kappa parameter  XKappa (TD-DFT) ...  0.804000
   PBE mue parameter   XMuePBE (TD-DFT) ...  0.219520
Correlation functional (TD-DFT)         ... PBE
   PBE beta parameter CBetaPBE (TD-DFT) ...  0.066725
 LDA part of GGA corr.  LDAOpt (TD-DFT) ... PW91-LDA
Hybrid DFT                              ... on
   Exchange mixing (TD-DFT)             ...  0.250
   GGA exch. scaling (TD-DFT)           ...  0.750
   GGA corr. scaling (TD-DFT)           ...  1.000

Building densities             ... done
Calculating rho(r) on the grid ... done
Building xc-kernel on the grid ... done
                    *** TD-DFT CALCULATION INITIALIZED ***

------------------------
DAVIDSON-DIAGONALIZATION
------------------------

Dimension of the eigenvalue problem            ...    945
Number of roots to be determined               ...      1
Maximum size of the expansion space            ...     10
Maximum number of iterations                   ...    100
Convergence tolerance for the residual         ...    2.500e-07
Convergence tolerance for the energies         ...    2.500e-07
Orthogonality tolerance                        ...    1.000e-14
Level Shift                                    ...    0.000e+00
Constructing the preconditioner                ... o.k.
Building the initial guess                     ... o.k.
Number of trial vectors determined             ...     10


                       ****Iteration    0****

   Memory handling for direct AO based CIS:
   Memory per vector needed      ...     1 MB
   Memory needed                 ...     1 MB
   Memory available              ...  3000 MB
   Number of vectors per batch   ...  3000
   Number of batches             ...     1
   Time for densities:            0.001
   Time for RI-J (Direct):        0.016
   Time for K (COSX):             0.063
   Time for XC-Integration:       0.017
   Time for Sigma-Completion:     0.000
   Size of expansion space: 3
   Lowest Energy          :     0.034267066732
   Maximum Energy change  :     0.034267066732 (vector 0)
   Maximum residual norm  :     0.002802931481

                       ****Iteration    1****
   Time for densities:            0.000
   Time for RI-J (Direct):        0.014
   Time for K (COSX):             0.058
   Time for XC-Integration:       0.007
   Time for Sigma-Completion:     0.000
   Size of expansion space: 4
   Lowest Energy          :     0.032285121296
   Maximum Energy change  :     0.001981945435 (vector 0)
   Maximum residual norm  :     0.000045494322

                       ****Iteration    2****
   Time for densities:            0.000
   Time for RI-J (Direct):        0.013
   Time for K (COSX):             0.058
   Time for XC-Integration:       0.007
   Time for Sigma-Completion:     0.000
   Size of expansion space: 5
   Lowest Energy          :     0.032253455253
   Maximum Energy change  :     0.000031666043 (vector 0)
   Maximum residual norm  :     0.000002027591

                       ****Iteration    3****
   Time for densities:            0.000
   Time for RI-J (Direct):        0.014
   Time for K (COSX):             0.058
   Time for XC-Integration:       0.007
   Time for Sigma-Completion:     0.000
   Size of expansion space: 6
   Lowest Energy          :     0.032251767965
   Maximum Energy change  :     0.000001687288 (vector 0)
   Maximum residual norm  :     0.000000149170

      *** CONVERGENCE OF RESIDUAL NORM REACHED ***

Storing the converged CI vectors               ... ox_es1_E_orca0007.cis1

                 *** DAVIDSON DONE ***

Total time for solving the CIS problem:     0.339sec

------------------------------------
TD-DFT/TDA EXCITED STATES (SINGLETS)
------------------------------------

the weight of the individual excitations are printed if larger than 1.0e-02

STATE  1:  E=   0.032252 au      0.878 eV     7078.4 cm**-1 <S**2> =   0.000000
    11a ->  12a  :     0.995737 (c=  0.99786601)


-----------------------------
TD-DFT/TDA-EXCITATION SPECTRA
-----------------------------

Center of mass = ( -0.6409,  0.0688, -0.0655)
Calculating the Dipole integrals                  ... done
Transforming integrals                            ... done
Calculating the Linear Momentum integrals         ... done
Transforming integrals                            ... done
Calculating angular momentum integrals            ... done
Transforming integrals                            ... done

-----------------------------------------------------------------------------
         ABSORPTION SPECTRUM VIA TRANSITION ELECTRIC DIPOLE MOMENTS
-----------------------------------------------------------------------------
State   Energy    Wavelength  fosc         T2        TX        TY        TZ  
        (cm-1)      (nm)                 (au**2)    (au)      (au)      (au) 
-----------------------------------------------------------------------------
   1    7078.4   1412.7   0.000092794   0.00432   0.01139  -0.00003   0.06470

-----------------------------------------------------------------------------
         ABSORPTION SPECTRUM VIA TRANSITION VELOCITY DIPOLE MOMENTS
-----------------------------------------------------------------------------
State   Energy    Wavelength   fosc        P2         PX        PY        PZ  
        (cm-1)      (nm)                 (au**2)     (au)      (au)      (au) 
-----------------------------------------------------------------------------
   1    7078.4   1412.7   0.011024097   0.00053  -0.00069  -0.00244  -0.02295

-------------------------------------------------------------------
                             CD SPECTRUM
-------------------------------------------------------------------
State  Energy     Wavelength     R         MX        MY        MZ   
       (cm-1)       (nm)     (1e40*cgs)   (au)      (au)      (au)  
-------------------------------------------------------------------
   1    7078.4   1412.7      0.34530  -0.07432  -0.32552   0.02427

-------------------------------------------------------------------
         CD SPECTRUM VIA TRANSITION VELOCITY DIPOLE MOMENTS        
-------------------------------------------------------------------
State  Energy     Wavelength     R         MX        MY        MZ   
       (cm-1)       (nm)     (1e40*cgs)   (au)      (au)      (au)  
-------------------------------------------------------------------
   1    7078.4   1412.7      4.22771  -0.07432  -0.32552   0.02427

Total run time:        0.638 sec

           *** ORCA-CIS/TD-DFT FINISHED WITHOUT ERROR ***

Maximum memory used throughout the entire CIS-calculation: 49.4 MB

-----------------------
CIS/TD-DFT TOTAL ENERGY
-----------------------

    E(SCF)  =   -153.519873327 Eh
    DE(CIS) =      0.032251768 Eh (Root  1)
    ----------------------------- ---------
    E(tot)  =   -153.487621559 Eh



-------------------------------------------------------------------------------
                          DFT DISPERSION CORRECTION                            
                                                                               
                              DFTD3 V3.1  Rev 1                                
                          USING Becke-Johnson damping                          
-------------------------------------------------------------------------------
The PBE0 functional is recognized
Active option DFTDOPT                   ...         4   

molecular C6(AA) [au] = 395.840431 


            DFT-D V3
 parameters
 s6 scaling factor         :     1.0000 
 a1 scaling factor         :     0.4145 
 s8 scaling factor         :     1.2177 
 a2 scaling factor         :     4.8593 
 ad hoc parameters k1-k3   :    16.0000     1.3333    -4.0000 

 Edisp/kcal,au: -1.638102145150  -0.002610481655 
 E6   /kcal   :  -1.067776198 
 E8   /kcal   :  -0.570325947 
 % E8         :  34.816262733 

-------------------------   ----------------
Dispersion correction           -0.002610482
-------------------------   ----------------


-------------------------   --------------------
FINAL SINGLE POINT ENERGY      -153.490232040748
-------------------------   --------------------



           ************************************************************
           *        Program running with 8 parallel MPI-processes     *
           *              working on a common directory               *
           ************************************************************
------------------------------------------------------------------------------
                         ORCA SCF GRADIENT CALCULATION
------------------------------------------------------------------------------


------------------------
TD-DFT GRADIENT XC SETUP
------------------------

Building densities                     ... done
Calculating rho(r) on the grid         ... done
Building xc-kernel on the grid         ... done
Building xc 3rd derivative on the grid      ... done
                *** TD-DFT GRADIENT CALCULATION INITIALIZED ***

-------------------
TD-DFT/TDA GRADIENT
-------------------

Reference wavefunction             ... RHF
State of interest                  ... 1
Basis dimension                    ... 117
DFT-XC contribution needed         ... YES
RI-approximation                   ... ON
CIS-vectors being read from        ... ox_es1_E_orca0007.cis

 => Number of Vectors found: 1
 => Orbital Window: 3...11 -> 12...116

Reading the CIS file                     ... done
Norm of the CI vector                    ... 1.000000000
Making the CIS (pseudo)densities         ... done
Making operators G(D) and Q(T)           ... done
Transforming the Fock operators          ... done
Making the frozen-core relaxed density   ... done
Constructing the G(H) operator           ... done
Transforming the G(H) operator           ... done
Calculating the CIS Lagrangian           ... done
Solving the Z-vector equations           ... done
Finalizing the relaxed density           ... done
Storing the relaxed density              ... done
Constructing the G(Z) operator           ... done
Transforming the G(Z) operator           ... done
Making the W-matrix                      ... done
Finalizing the W-matrix                  ... done
Transforming the W-matrix                ... done
Nuclear repulsion gradient               ... done
One-Electron gradient                    ... done
Dispersion correction                    ... done
Prescreening matrices                    ... done
COSX-gradient                            ... done
Coulomb gradient (RI)                    ... done
Exchange-Correlation gradient            ... done

                 ---------------------------
                 EXCITED STATE GRADIENT DONE
                 ---------------------------

------------------
CARTESIAN GRADIENT
------------------

   1   O   :   -0.005766106    0.046486597   -0.001938560
   2   C   :   -0.071796693   -0.110731539   -0.046145102
   3   C   :    0.068619624    0.042499168   -0.044825478
   4   H   :   -0.017678331    0.013695024    0.012645821
   5   H   :    0.034831690    0.027376624    0.055463473
   6   H   :   -0.003870711   -0.005785412    0.010330549
   7   H   :   -0.004356666   -0.013557676    0.014477098

Difference to translation invariance:
           :   -0.0000171936   -0.0000172141    0.0000077999

Difference to rotation invariance:
           :   -0.0000259026   -0.0000251503   -0.0005394130

Norm of the cartesian gradient     ...    0.1911393277
RMS gradient                       ...    0.0417100208
MAX gradient                       ...    0.1107315395

------------------------------------------------------------------------------
                  RELAXED CIS/TDA DENSITY POPULATION ANALYSIS
                                   IROOT 1
------------------------------------------------------------------------------
------------------------------------------------------------------------------
                           ORCA POPULATION ANALYSIS
------------------------------------------------------------------------------
Input electron density              ... ox_es1_E_orca0007.cisp
BaseName (.gbw .S,...)              ... ox_es1_E_orca0007

                    ********************************
                    * MULLIKEN POPULATION ANALYSIS *
                    ********************************

-----------------------
MULLIKEN ATOMIC CHARGES
-----------------------
   0 O :   -0.277155
   1 C :   -0.110433
   2 C :   -0.231007
   3 H :    0.170205
   4 H :    0.154112
   5 H :    0.153274
   6 H :    0.141003
Sum of atomic charges:    0.0000000

--------------------------------
MULLIKEN REDUCED ORBITAL CHARGES
--------------------------------
  0 O s       :     3.930306  s :     3.930306
      pz      :     1.042822  p :     4.332320
      px      :     1.975696
      py      :     1.313802
      dz2     :     0.001906  d :     0.014079
      dxz     :     0.000111
      dyz     :     0.003366
      dx2y2   :     0.005661
      dxy     :     0.003035
      f0      :    -0.000033  f :     0.000451
      f+1     :    -0.000015
      f-1     :     0.000024
      f+2     :     0.000095
      f-2     :    -0.000000
      f+3     :     0.000135
      f-3     :     0.000245
  1 C s       :     3.222416  s :     3.222416
      pz      :     1.070365  p :     2.770382
      px      :     0.960806
      py      :     0.739210
      dz2     :     0.010953  d :     0.110519
      dxz     :     0.020167
      dyz     :     0.013672
      dx2y2   :     0.023420
      dxy     :     0.042306
      f0      :     0.000629  f :     0.007117
      f+1     :     0.001242
      f-1     :     0.000388
      f+2     :     0.000947
      f-2     :     0.000074
      f+3     :     0.002141
      f-3     :     0.001696
  2 C s       :     3.319166  s :     3.319166
      pz      :     1.023973  p :     2.867817
      px      :     0.944440
      py      :     0.899404
      dz2     :     0.005872  d :     0.040135
      dxz     :     0.014260
      dyz     :     0.002365
      dx2y2   :     0.006401
      dxy     :     0.011237
      f0      :     0.000509  f :     0.003889
      f+1     :     0.000980
      f-1     :     0.000201
      f+2     :     0.000526
      f-2     :     0.000085
      f+3     :     0.000798
      f-3     :     0.000790
  3 H s       :     0.808980  s :     0.808980
      pz      :     0.010051  p :     0.020815
      px      :     0.006888
      py      :     0.003877
  4 H s       :     0.821734  s :     0.821734
      pz      :     0.011582  p :     0.024154
      px      :     0.007164
      py      :     0.005407
  5 H s       :     0.822655  s :     0.822655
      pz      :     0.011220  p :     0.024071
      px      :     0.006813
      py      :     0.006038
  6 H s       :     0.836238  s :     0.836238
      pz      :     0.011240  p :     0.022759
      px      :     0.005792
      py      :     0.005727


                     *******************************
                     * LOEWDIN POPULATION ANALYSIS *
                     *******************************

----------------------
LOEWDIN ATOMIC CHARGES
----------------------
   0 O :   -0.075923
   1 C :   -0.277848
   2 C :   -0.143303
   3 H :    0.148112
   4 H :    0.114801
   5 H :    0.110914
   6 H :    0.123248

-------------------------------
LOEWDIN REDUCED ORBITAL CHARGES
-------------------------------
  0 O s       :     3.701396  s :     3.701396
      pz      :     1.027755  p :     4.341271
      px      :     1.927071
      py      :     1.386445
      dz2     :     0.004956  d :     0.031784
      dxz     :     0.000115
      dyz     :     0.006911
      dx2y2   :     0.012226
      dxy     :     0.007577
      f0      :     0.000134  f :     0.001471
      f+1     :     0.000013
      f-1     :     0.000189
      f+2     :     0.000228
      f-2     :     0.000014
      f+3     :     0.000387
      f-3     :     0.000506
  1 C s       :     2.874344  s :     2.874344
      pz      :     1.066377  p :     2.944235
      px      :     1.068188
      py      :     0.809670
      dz2     :     0.059114  d :     0.412579
      dxz     :     0.088721
      dyz     :     0.035987
      dx2y2   :     0.119409
      dxy     :     0.109349
      f0      :     0.004088  f :     0.046690
      f+1     :     0.005011
      f-1     :     0.004471
      f+2     :     0.005776
      f-2     :     0.000979
      f+3     :     0.012541
      f-3     :     0.013824
  2 C s       :     2.948194  s :     2.948194
      pz      :     1.079411  p :     2.985951
      px      :     1.064971
      py      :     0.841569
      dz2     :     0.032623  d :     0.190175
      dxz     :     0.078636
      dyz     :     0.007201
      dx2y2   :     0.033391
      dxy     :     0.038324
      f0      :     0.003033  f :     0.018984
      f+1     :     0.003238
      f-1     :     0.001140
      f+2     :     0.002858
      f-2     :     0.001138
      f+3     :     0.003933
      f-3     :     0.003644
  3 H s       :     0.792283  s :     0.792283
      pz      :     0.029876  p :     0.059606
      px      :     0.018894
      py      :     0.010835
  4 H s       :     0.807475  s :     0.807475
      pz      :     0.038551  p :     0.077724
      px      :     0.022456
      py      :     0.016718
  5 H s       :     0.816194  s :     0.816194
      pz      :     0.035125  p :     0.072892
      px      :     0.019854
      py      :     0.017913
  6 H s       :     0.811203  s :     0.811203
      pz      :     0.033086  p :     0.065549
      px      :     0.016024
      py      :     0.016440


                      *****************************
                      * MAYER POPULATION ANALYSIS *
                      *****************************

  NA   - Mulliken gross atomic population
  ZA   - Total nuclear charge
  QA   - Mulliken gross atomic charge
  VA   - Mayer's total valence
  BVA  - Mayer's bonded valence
  FA   - Mayer's free valence

  ATOM       NA         ZA         QA         VA         BVA        FA
  0 O      8.2772     8.0000    -0.2772     1.7936     1.0360     0.7576
  1 C      6.1104     6.0000    -0.1104     3.9874     3.9331     0.0542
  2 C      6.2310     6.0000    -0.2310     3.8605     3.1211     0.7394
  3 H      0.8298     1.0000     0.1702     0.9623     0.9374     0.0249
  4 H      0.8459     1.0000     0.1541     0.9732     0.9494     0.0237
  5 H      0.8467     1.0000     0.1533     0.9680     0.9588     0.0092
  6 H      0.8590     1.0000     0.1410     0.9708     0.9628     0.0080

  Mayer bond orders larger than 0.100000
B(  0-O ,  1-C ) :   0.9306 B(  1-C ,  2-C ) :   1.1243 B(  1-C ,  3-H ) :   0.9260 
B(  1-C ,  4-H ) :   0.9459 B(  2-C ,  5-H ) :   0.9464 B(  2-C ,  6-H ) :   0.9534 



-------
TIMINGS
-------

Total TD-DFT gradient time         ...        5.918 sec

Fock matrix formation       ....       0.910 sec  ( 15.4%)
  Coulomb formation         ....       0.738 sec  ( 81.1% of F)
  RI-J                      ....       0.319 sec  ( 35.1% of F)
  Chain of spheres X        ....       0.418 sec  ( 46.0% of F)
  XC integration            ....       0.172 sec  ( 18.9% of F)
Z-vector equation           ....       2.037 sec  ( 34.4%)
One electron gradient       ....       0.037 sec  (  0.6%)
Prescreening matrices       ....       0.171 sec  (  2.9%)
RI-J Coulomb gradient       ....       0.303 sec  (  5.1%)
COSX gradient               ....       0.410 sec  (  6.9%)
XC gradient                 ....       1.700 sec  ( 28.7%)

Maximum memory used throughout the entire SCFGRAD-calculation: 130.2 MB

                            ***************************************
                            *     ORCA property calculations      *
                            ***************************************

                                    ---------------------
                                    Active property flags
                                    ---------------------
   (+) Dipole Moment


------------------------------------------------------------------------------
                       ORCA ELECTRIC PROPERTIES CALCULATION
------------------------------------------------------------------------------

Dipole Moment Calculation                       ... on
Quadrupole Moment Calculation                   ... off
Polarizability Calculation                      ... off
GBWName                                         ... ox_es1_E_orca0007.gbw
Electron density                                ... ox_es1_E_orca0007.scfp
The origin for moment calculation is the CENTER OF MASS  = (-0.640860,  0.068840 -0.065455)

-------------
DIPOLE MOMENT
-------------
                                X             Y             Z
Electronic contribution:     -0.56555       1.41015      -0.08390
Nuclear contribution   :      1.26992      -2.75909       0.06733
                        -----------------------------------------
Total Dipole Moment    :      0.70437      -1.34894      -0.01658
                        -----------------------------------------
Magnitude (a.u.)       :      1.52185
Magnitude (Debye)      :      3.86825



--------------------
Rotational spectrum 
--------------------
 
Rotational constants in cm-1:     1.029186     0.360743     0.299283 
Rotational constants in MHz : 30854.225593 10814.809653  8972.266331 

 Dipole components along the rotational axes: 
x,y,z [a.u.] :    -1.400143    -0.595585    -0.030300 
x,y,z [Debye]:    -3.558881    -1.513857    -0.077016 

 

                        *** CIS RELAXED DENSITY ***

------------------------------------------------------------------------------
                       ORCA ELECTRIC PROPERTIES CALCULATION
------------------------------------------------------------------------------

Dipole Moment Calculation                       ... on
Quadrupole Moment Calculation                   ... off
Polarizability Calculation                      ... off
GBWName                                         ... ox_es1_E_orca0007.gbw
Electron density                                ... ox_es1_E_orca0007.cisp
The origin for moment calculation is the CENTER OF MASS  = (-0.640860,  0.068840 -0.065455)

-------------
DIPOLE MOMENT
-------------
                                X             Y             Z
Electronic contribution:     -1.04774       1.72052      -0.07385
Nuclear contribution   :      1.26992      -2.75909       0.06733
                        -----------------------------------------
Total Dipole Moment    :      0.22218      -1.03856      -0.00653
                        -----------------------------------------
Magnitude (a.u.)       :      1.06208
Magnitude (Debye)      :      2.69960



--------------------
Rotational spectrum 
--------------------
 
Rotational constants in cm-1:     1.029186     0.360743     0.299283 
Rotational constants in MHz : 30854.225593 10814.809653  8972.266331 

 Dipole components along the rotational axes: 
x,y,z [a.u.] :    -0.830412    -0.661052    -0.038055 
x,y,z [Debye]:    -2.110740    -1.680261    -0.096728 

 

Timings for individual modules:

Sum of individual times         ...        8.479 sec (=   0.141 min)
GTO integral calculation        ...        0.254 sec (=   0.004 min)   3.0 %
SCF iterations                  ...        1.303 sec (=   0.022 min)  15.4 %
CIS module                      ...        0.838 sec (=   0.014 min)   9.9 %
SCF Gradient evaluation         ...        6.083 sec (=   0.101 min)  71.7 %
                             ****ORCA TERMINATED NORMALLY****
TOTAL RUN TIME: 0 days 0 hours 0 minutes 8 seconds 809 msec
