
                                 *****************
                                 * O   R   C   A *
                                 *****************

                                            #,                                       
                                            ###                                      
                                            ####                                     
                                            #####                                    
                                            ######                                   
                                           ########,                                 
                                     ,,################,,,,,                         
                               ,,#################################,,                 
                          ,,##########################################,,             
                       ,#########################################, ''#####,          
                    ,#############################################,,   '####,        
                  ,##################################################,,,,####,       
                ,###########''''           ''''###############################       
              ,#####''   ,,,,##########,,,,          '''####'''          '####       
            ,##' ,,,,###########################,,,                        '##       
           ' ,,###''''                  '''############,,,                           
         ,,##''                                '''############,,,,        ,,,,,,###''
      ,#''                                            '''#######################'''  
     '                                                          ''''####''''         
             ,#######,   #######,   ,#######,      ##                                
            ,#'     '#,  ##    ##  ,#'     '#,    #''#        ######   ,####,        
            ##       ##  ##   ,#'  ##            #'  '#       #        #'  '#        
            ##       ##  #######   ##           ,######,      #####,   #    #        
            '#,     ,#'  ##    ##  '#,     ,#' ,#      #,         ##   #,  ,#        
             '#######'   ##     ##  '#######'  #'      '#     #####' # '####'        



                  #######################################################
                  #                        -***-                        #
                  #          Department of theory and spectroscopy      #
                  #    Directorship and core code : Frank Neese         #
                  #        Max Planck Institute fuer Kohlenforschung    #
                  #                Kaiser Wilhelm Platz 1               #
                  #                 D-45470 Muelheim/Ruhr               #
                  #                      Germany                        #
                  #                                                     #
                  #                  All rights reserved                #
                  #                        -***-                        #
                  #######################################################


                         Program Version 5.0.2 -  RELEASE  -


 With contributions from (in alphabetic order):
   Daniel Aravena         : Magnetic Suceptibility
   Michael Atanasov       : Ab Initio Ligand Field Theory (pilot matlab implementation)
   Alexander A. Auer      : GIAO ZORA, VPT2 properties, NMR spectrum
   Ute Becker             : Parallelization
   Giovanni Bistoni       : ED, misc. LED, open-shell LED, HFLD
   Martin Brehm           : Molecular dynamics
   Dmytro Bykov           : SCF Hessian
   Vijay G. Chilkuri      : MRCI spin determinant printing, contributions to CSF-ICE
   Dipayan Datta          : RHF DLPNO-CCSD density
   Achintya Kumar Dutta   : EOM-CC, STEOM-CC
   Dmitry Ganyushin       : Spin-Orbit,Spin-Spin,Magnetic field MRCI
   Miquel Garcia          : C-PCM and meta-GGA Hessian, CC/C-PCM, Gaussian charge scheme
   Yang Guo               : DLPNO-NEVPT2, F12-NEVPT2, CIM, IAO-localization
   Andreas Hansen         : Spin unrestricted coupled pair/coupled cluster methods
   Benjamin Helmich-Paris : MC-RPA, TRAH-SCF, COSX integrals
   Lee Huntington         : MR-EOM, pCC
   Robert Izsak           : Overlap fitted RIJCOSX, COSX-SCS-MP3, EOM
   Marcus Kettner         : VPT2
   Christian Kollmar      : KDIIS, OOCD, Brueckner-CCSD(T), CCSD density, CASPT2, CASPT2-K
   Simone Kossmann        : Meta GGA functionals, TD-DFT gradient, OOMP2, MP2 Hessian
   Martin Krupicka        : Initial AUTO-CI
   Lucas Lang             : DCDCAS
   Marvin Lechner         : AUTO-CI (C++ implementation), FIC-MRCC
   Dagmar Lenk            : GEPOL surface, SMD
   Dimitrios Liakos       : Extrapolation schemes; Compound Job, initial MDCI parallelization
   Dimitrios Manganas     : Further ROCIS development; embedding schemes
   Dimitrios Pantazis     : SARC Basis sets
   Anastasios Papadopoulos: AUTO-CI, single reference methods and gradients
   Taras Petrenko         : DFT Hessian,TD-DFT gradient, ASA, ECA, R-Raman, ABS, FL, XAS/XES, NRVS
   Peter Pinski           : DLPNO-MP2, DLPNO-MP2 Gradient
   Christoph Reimann      : Effective Core Potentials
   Marius Retegan         : Local ZFS, SOC
   Christoph Riplinger    : Optimizer, TS searches, QM/MM, DLPNO-CCSD(T), (RO)-DLPNO pert. Triples
   Tobias Risthaus        : Range-separated hybrids, TD-DFT gradient, RPA, STAB
   Michael Roemelt        : Original ROCIS implementation
   Masaaki Saitow         : Open-shell DLPNO-CCSD energy and density
   Barbara Sandhoefer     : DKH picture change effects
   Avijit Sen             : IP-ROCIS
   Kantharuban Sivalingam : CASSCF convergence, NEVPT2, FIC-MRCI
   Bernardo de Souza      : ESD, SOC TD-DFT
   Georgi Stoychev        : AutoAux, RI-MP2 NMR, DLPNO-MP2 response
   Willem Van den Heuvel  : Paramagnetic NMR
   Boris Wezisla          : Elementary symmetry handling
   Frank Wennmohs         : Technical directorship


 We gratefully acknowledge several colleagues who have allowed us to
 interface, adapt or use parts of their codes:
   Stefan Grimme, W. Hujo, H. Kruse, P. Pracht,  : VdW corrections, initial TS optimization,
                  C. Bannwarth, S. Ehlert          DFT functionals, gCP, sTDA/sTD-DF
   Ed Valeev, F. Pavosevic, A. Kumar             : LibInt (2-el integral package), F12 methods
   Garnet Chan, S. Sharma, J. Yang, R. Olivares  : DMRG
   Ulf Ekstrom                                   : XCFun DFT Library
   Mihaly Kallay                                 : mrcc  (arbitrary order and MRCC methods)
   Jiri Pittner, Ondrej Demel                    : Mk-CCSD
   Frank Weinhold                                : gennbo (NPA and NBO analysis)
   Christopher J. Cramer and Donald G. Truhlar   : smd solvation model
   Lars Goerigk                                  : TD-DFT with DH, B97 family of functionals
   V. Asgeirsson, H. Jonsson                     : NEB implementation
   FAccTs GmbH                                   : IRC, NEB, NEB-TS, DLPNO-Multilevel, CI-OPT
                                                   MM, QMMM, 2- and 3-layer-ONIOM, Crystal-QMMM,
                                                   LR-CPCM, SF, NACMEs, symmetry and pop. for TD-DFT,
                                                   nearIR, NL-DFT gradient (VV10), updates on ESD,
                                                   ML-optimized integration grids
   S Lehtola, MJT Oliveira, MAL Marques          : LibXC Library
   Liviu Ungur et al                             : ANISO software


 Your calculation uses the libint2 library for the computation of 2-el integrals
 For citations please refer to: http://libint.valeyev.net

 Your ORCA version has been built with support for libXC version: 5.1.0
 For citations please refer to: https://tddft.org/programs/libxc/

 This ORCA versions uses:
   CBLAS   interface :  Fast vector & matrix operations
   LAPACKE interface :  Fast linear algebra routines
   SCALAPACK package :  Parallel linear algebra routines
   Shared memory     :  Shared parallel matrices
   BLAS/LAPACK       :  OpenBLAS 0.3.15  USE64BITINT DYNAMIC_ARCH NO_AFFINITY SkylakeX SINGLE_THREADED
        Core in use  :  SkylakeX
   Copyright (c) 2011-2014, The OpenBLAS Project


Your calculation utilizes the atom-pairwise dispersion correction
with the Becke-Johnson damping scheme (D3BJ)
Cite in your paper:
S.Grimme, S.Ehrlich, L.Goerigk, J Comput Chem, (2011), 32, 1456–1465 
S.Grimme, J.Antony, S.Ehrlich and H.Krieg, J.Chem.Phys., 132, (2010), 154104 
   

================================================================================

----- Orbital basis set information -----
Your calculation utilizes the basis: def2-TZVP
   F. Weigend and R. Ahlrichs, Phys. Chem. Chem. Phys. 7, 3297 (2005).

----- AuxJ basis set information -----
Your calculation utilizes the auxiliary basis: def2/J
   F. Weigend, Phys. Chem. Chem. Phys. 8, 1057 (2006).

================================================================================
                                        WARNINGS
                       Please study these warnings very carefully!
================================================================================

INFO   : Checking CIS options ...

WARNING: CIS/ROCIS methods need fully converged wavefunctions
  ===> : Setting SCFConvForced true
         You can overwrite this default with %scf ConvForced false 


INFO   : the flag for use of the SHARK integral package has been found!

================================================================================
                                       INPUT FILE
================================================================================
NAME = ox_es1_E_orca0006.inp
|  1> ! engrad PBE0 D3BJ def2-TZVP  
|  2> %pal nprocs 8 end
|  3> %maxcore 3000
|  4> 
|  5> %tddft
|  6>   nroots 1
|  7>   tda true
|  8>   Iroot 1
|  9>   end 
| 10> *xyz 0 1 
| 11> O   -0.957567703664909 0.9325121407919515 -0.07803755440679327
| 12> C   -0.7812512476798066 -0.41817538684296923 -0.02742526310124387
| 13> C   0.6836801404388502 -0.3363199090153246 0.007246154807632728
| 14> H   -1.3386301598028205 -0.6559817948114611 0.9526668607322606
| 15> H   -1.3203392159944 -0.6862627604943607 -0.9498083974239409
| 16> H   1.2037504380285784 -0.7866538016346413 -1.0494707855298342
| 17> H   1.2555607036255283 -0.6659287760436609 0.9897675468019387
| 18> *
| 19> 
| 20>                          ****END OF INPUT****
================================================================================

                     *******************************
                     * Energy+Gradient Calculation *
                     *******************************

---------------------------------
CARTESIAN COORDINATES (ANGSTROEM)
---------------------------------
  O     -0.957568    0.932512   -0.078038
  C     -0.781251   -0.418175   -0.027425
  C      0.683680   -0.336320    0.007246
  H     -1.338630   -0.655982    0.952667
  H     -1.320339   -0.686263   -0.949808
  H      1.203750   -0.786654   -1.049471
  H      1.255561   -0.665929    0.989768

----------------------------
CARTESIAN COORDINATES (A.U.)
----------------------------
  NO LB      ZA    FRAG     MASS         X           Y           Z
   0 O     8.0000    0    15.999   -1.809541    1.762193   -0.147470
   1 C     6.0000    0    12.011   -1.476351   -0.790237   -0.051826
   2 C     6.0000    0    12.011    1.291968   -0.635553    0.013693
   3 H     1.0000    0     1.008   -2.529644   -1.239626    1.800279
   4 H     1.0000    0     1.008   -2.495080   -1.296849   -1.794878
   5 H     1.0000    0     1.008    2.274759   -1.486560   -1.983212
   6 H     1.0000    0     1.008    2.372666   -1.258423    1.870390

--------------------------------
INTERNAL COORDINATES (ANGSTROEM)
--------------------------------
 O      0   0   0     0.000000000000     0.00000000     0.00000000
 C      1   0   0     1.363086898914     0.00000000     0.00000000
 C      2   1   0     1.467626109868    94.28535360     0.00000000
 H      2   1   3     1.152303653796    99.99201129   119.74185767
 H      2   1   3     1.101488685360    98.43994956   237.30357425
 H      3   2   1     1.260922052021   111.83761526   247.89431577
 H      3   2   1     1.183654370794   119.10028441   112.46209418

---------------------------
INTERNAL COORDINATES (A.U.)
---------------------------
 O      0   0   0     0.000000000000     0.00000000     0.00000000
 C      1   0   0     2.575860935683     0.00000000     0.00000000
 C      2   1   0     2.773411414642    94.28535360     0.00000000
 H      2   1   3     2.177538328791    99.99201129   119.74185767
 H      2   1   3     2.081511954943    98.43994956   237.30357425
 H      3   2   1     2.382797354542   111.83761526   247.89431577
 H      3   2   1     2.236782598020   119.10028441   112.46209418

---------------------
BASIS SET INFORMATION
---------------------
There are 3 groups of distinct atoms

 Group   1 Type O   : 11s6p2d1f contracted to 5s3p2d1f pattern {62111/411/11/1}
 Group   2 Type C   : 11s6p2d1f contracted to 5s3p2d1f pattern {62111/411/11/1}
 Group   3 Type H   : 5s1p contracted to 3s1p pattern {311/1}

Atom   0O    basis set group =>   1
Atom   1C    basis set group =>   2
Atom   2C    basis set group =>   2
Atom   3H    basis set group =>   3
Atom   4H    basis set group =>   3
Atom   5H    basis set group =>   3
Atom   6H    basis set group =>   3
---------------------------------
AUXILIARY/J BASIS SET INFORMATION
---------------------------------
There are 3 groups of distinct atoms

 Group   1 Type O   : 12s5p4d2f1g contracted to 6s4p3d1f1g pattern {711111/2111/211/2/1}
 Group   2 Type C   : 12s5p4d2f1g contracted to 6s4p3d1f1g pattern {711111/2111/211/2/1}
 Group   3 Type H   : 5s2p1d contracted to 3s1p1d pattern {311/2/1}

Atom   0O    basis set group =>   1
Atom   1C    basis set group =>   2
Atom   2C    basis set group =>   2
Atom   3H    basis set group =>   3
Atom   4H    basis set group =>   3
Atom   5H    basis set group =>   3
Atom   6H    basis set group =>   3

Checking for AutoStart:
The File: ox_es1_E_orca0006.gbw exists
Trying to determine its content:
     ... Fine, the file contains calculation information
     ... Fine, the calculation information was read
     ... Fine, the file contains a basis set
     ... Fine, the basis set was read
     ... Fine, the file contains a geometry
     ... Fine, the geometry was read
     ... Fine, the file contains a set of orbitals
     ... Fine, the orbitals can be read
     => possible old guess file was deleted
     => GBW file was renamed to GES file
     => GES file is set as startup file
     => Guess is set to MORead
     ... now leaving AutoStart



           ************************************************************
           *        Program running with 8 parallel MPI-processes     *
           *              working on a common directory               *
           ************************************************************
------------------------------------------------------------------------------
                           ORCA GTO INTEGRAL CALCULATION
                           -- RI-GTO INTEGRALS CHOSEN --
------------------------------------------------------------------------------
------------------------------------------------------------------------------
                   ___                                                        
                  /   \      - P O W E R E D   B Y -                         
                 /     \                                                     
                 |  |  |   _    _      __       _____    __    __             
                 |  |  |  | |  | |    /  \     |  _  \  |  |  /  |          
                  \  \/   | |  | |   /    \    | | | |  |  | /  /          
                 / \  \   | |__| |  /  /\  \   | |_| |  |  |/  /          
                |  |  |   |  __  | /  /__\  \  |    /   |      \           
                |  |  |   | |  | | |   __   |  |    \   |  |\   \          
                \     /   | |  | | |  |  |  |  | |\  \  |  | \   \       
                 \___/    |_|  |_| |__|  |__|  |_| \__\ |__|  \__/        
                                                                              
                      - O R C A' S   B I G   F R I E N D -                    
                                      &                                       
                       - I N T E G R A L  F E E D E R -                       
                                                                              
 v1 FN, 2020, v2 2021                                                         
------------------------------------------------------------------------------


Reading SHARK input file ox_es1_E_orca0006.SHARKINP.tmp ... ok
----------------------
SHARK INTEGRAL PACKAGE
----------------------

Number of atoms                             ...      7
Number of basis functions                   ...    117
Number of shells                            ...     49
Maximum angular momentum                    ...      3
Integral batch strategy                     ... SHARK/LIBINT Hybrid
RI-J (if used) integral strategy            ... SPLIT-RIJ (Revised 2003 algorithm where possible)
Printlevel                                  ...      1
Contraction scheme used                     ... SEGMENTED contraction
Coulomb Range Separation                    ... NOT USED
Exchange Range Separation                   ... NOT USED
Finite Nucleus Model                        ... NOT USED
Auxiliary Coulomb fitting basis             ... AVAILABLE
   # of basis functions in Aux-J            ...    191
   # of shells in Aux-J                     ...     65
   Maximum angular momentum in Aux-J        ...      4
Auxiliary J/K fitting basis                 ... NOT available
Auxiliary Correlation fitting basis         ... NOT available
Auxiliary 'external' fitting basis          ... NOT available
Integral threshold                          ...     2.500000e-11
Primitive cut-off                           ...     2.500000e-12
Primitive pair pre-selection threshold      ...     2.500000e-12

Calculating pre-screening integrals         ... done (  0.0 sec) Dimension = 49
Organizing shell pair data                  ... done (  0.0 sec)
Shell pair information
Total number of shell pairs                 ...      1225
Shell pairs after pre-screening             ...      1214
Total number of primitive shell pairs       ...      3648
Primitive shell pairs kept                  ...      3080
          la=0 lb=0:    368 shell pairs
          la=1 lb=0:    351 shell pairs
          la=1 lb=1:     91 shell pairs
          la=2 lb=0:    161 shell pairs
          la=2 lb=1:     78 shell pairs
          la=2 lb=2:     21 shell pairs
          la=3 lb=0:     81 shell pairs
          la=3 lb=1:     39 shell pairs
          la=3 lb=2:     18 shell pairs
          la=3 lb=3:      6 shell pairs

Calculating one electron integrals          ... done (  0.0 sec)
Calculating RI/J V-Matrix + Cholesky decomp.... done (  0.0 sec)
Calculating Nuclear repulsion               ... done (  0.0 sec) ENN=     68.915533033577 Eh

SHARK setup successfully completed in   0.1 seconds

Maximum memory used throughout the entire GTOINT-calculation: 14.9 MB


           ************************************************************
           *        Program running with 8 parallel MPI-processes     *
           *              working on a common directory               *
           ************************************************************
-------------------------------------------------------------------------------
                                 ORCA SCF
-------------------------------------------------------------------------------

------------
SCF SETTINGS
------------
Hamiltonian:
 Density Functional     Method          .... DFT(GTOs)
 Exchange Functional    Exchange        .... PBE
   PBE kappa parameter   XKappa         ....  0.804000
   PBE mue parameter    XMuePBE         ....  0.219520
 Correlation Functional Correlation     .... PBE
   PBE beta parameter  CBetaPBE         ....  0.066725
 LDA part of GGA corr.  LDAOpt          .... PW91-LDA
 Gradients option       PostSCFGGA      .... off
 Hybrid DFT is turned on
   Fraction HF Exchange ScalHFX         ....  0.250000
   Scaling of DF-GGA-X  ScalDFX         ....  0.750000
   Scaling of DF-GGA-C  ScalDFC         ....  1.000000
   Scaling of DF-LDA-C  ScalLDAC        ....  1.000000
   Perturbative correction              ....  0.000000
   Density functional embedding theory  .... OFF
   NL short-range parameter             ....  6.900000
 RI-approximation to the Coulomb term is turned on
   Number of AuxJ basis functions       .... 191
   RIJ-COSX (HFX calculated with COS-X)).... on


General Settings:
 Integral files         IntName         .... ox_es1_E_orca0006
 Hartree-Fock type      HFTyp           .... RHF
 Total Charge           Charge          ....    0
 Multiplicity           Mult            ....    1
 Number of Electrons    NEL             ....   24
 Basis Dimension        Dim             ....  117
 Nuclear Repulsion      ENuc            ....     68.9155330336 Eh

Convergence Acceleration:
 DIIS                   CNVDIIS         .... on
   Start iteration      DIISMaxIt       ....    12
   Startup error        DIISStart       ....  0.200000
   # of expansion vecs  DIISMaxEq       ....     5
   Bias factor          DIISBfac        ....   1.050
   Max. coefficient     DIISMaxC        ....  10.000
 Trust-Rad. Augm. Hess. CNVTRAH         .... auto
   Auto Start mean grad. ratio tolernc. ....  1.125000
   Auto Start start iteration           ....     1
   Auto Start num. interpolation iter.  ....    10
   Max. Number of Micro iterations      ....    16
   Max. Number of Macro iterations      .... Maxiter - #DIIS iter
   Number of Davidson start vectors     ....     2
   Converg. threshold I  (grad. norm)   ....   1.000e-05
   Converg. threshold II (energy diff.) ....   1.000e-08
   Grad. Scal. Fac. for Micro threshold ....   0.100
   Minimum threshold for Micro iter.    ....   0.010
   NR start threshold (gradient norm)   ....   0.001
   Initial trust radius                 ....   0.400
   Minimum AH scaling param. (alpha)    ....   1.000
   Maximum AH scaling param. (alpha)    .... 1000.000
   Orbital update algorithm             .... Taylor
   White noise on init. David. guess    .... on
   Maximum white noise                  ....   0.010
   Quad. conv. algorithm                .... NR
 SOSCF                  CNVSOSCF        .... on
   Start iteration      SOSCFMaxIt      ....   150
   Startup grad/error   SOSCFStart      ....  0.003300
 Level Shifting         CNVShift        .... on
   Level shift para.    LevelShift      ....    0.2500
   Turn off err/grad.   ShiftErr        ....    0.0010
 Zerner damping         CNVZerner       .... off
 Static damping         CNVDamp         .... on
   Fraction old density DampFac         ....    0.7000
   Max. Damping (<1)    DampMax         ....    0.9800
   Min. Damping (>=0)   DampMin         ....    0.0000
   Turn off err/grad.   DampErr         ....    0.1000
 Fernandez-Rico         CNVRico         .... off

SCF Procedure:
 Maximum # iterations   MaxIter         ....   125
 SCF integral mode      SCFMode         .... Direct
   Integral package                     .... SHARK and LIBINT hybrid scheme
 Reset frequency        DirectResetFreq ....    20
 Integral Threshold     Thresh          ....  2.500e-11 Eh
 Primitive CutOff       TCut            ....  2.500e-12 Eh

Convergence Tolerance:
 Convergence Check Mode ConvCheckMode   .... Total+1el-Energy
 Convergence forced     ConvForced      .... 1
 Energy Change          TolE            ....  1.000e-08 Eh
 1-El. energy change                    ....  1.000e-05 Eh
 Orbital Gradient       TolG            ....  1.000e-05
 Orbital Rotation angle TolX            ....  1.000e-05
 DIIS Error             TolErr          ....  5.000e-07


Diagonalization of the overlap matrix:
Smallest eigenvalue                        ... 4.692e-04
Time for diagonalization                   ...    0.001 sec
Threshold for overlap eigenvalues          ... 1.000e-08
Number of eigenvalues below threshold      ... 0
Time for construction of square roots      ...    0.001 sec
Total time needed                          ...    0.003 sec

---------------------
INITIAL GUESS: MOREAD
---------------------
Guess MOs are being read from file: ox_es1_E_orca0006.ges
Input Geometry matches current geometry (good)
Input basis set matches current basis set (good)
MOs were renormalized
MOs were reorthogonalized (Cholesky)
                      ------------------
                      INITIAL GUESS DONE (   0.0 sec)
                      ------------------
-------------------
DFT GRID GENERATION
-------------------

General Integration Accuracy     IntAcc      ... 4.388
Radial Grid Type                 RadialGrid  ... OptM3 with GC (2021)
Angular Grid (max. ang.)         AngularGrid ... 4 (Lebedev-302)
Angular grid pruning method      GridPruning ... 4 (adaptive)
Weight generation scheme         WeightScheme... Becke
Basis function cutoff            BFCut       ... 1.0000e-11
Integration weight cutoff        WCut        ... 1.0000e-14
Angular grids for H and He will be reduced by one unit
Partially contracted basis set               ... off
Rotationally invariant grid construction     ... off

Total number of grid points                  ...    31340
Total number of batches                      ...      492
Average number of points per batch           ...       63
Average number of grid points per atom       ...     4477
Time for grid setup =    0.117 sec

--------------------
COSX GRID GENERATION
--------------------

GRIDX 1
-------
General Integration Accuracy     IntAcc      ... 3.816
Radial Grid Type                 RadialGrid  ... OptM3 with GC (2021)
Angular Grid (max. ang.)         AngularGrid ... 1 (Lebedev-50)
Angular grid pruning method      GridPruning ... 4 (adaptive)
Weight generation scheme         WeightScheme... Becke
Basis function cutoff            BFCut       ... 1.0000e-11
Integration weight cutoff        WCut        ... 1.0000e-14
Angular grids for H and He will be reduced by one unit
Partially contracted basis set               ... on
Rotationally invariant grid construction     ... off

Total number of grid points                  ...     4038
Total number of batches                      ...       68
Average number of points per batch           ...       59
Average number of grid points per atom       ...      577
UseSFitting                                  ... on

GRIDX 2
-------
General Integration Accuracy     IntAcc      ... 4.020
Radial Grid Type                 RadialGrid  ... OptM3 with GC (2021)
Angular Grid (max. ang.)         AngularGrid ... 2 (Lebedev-110)
Angular grid pruning method      GridPruning ... 4 (adaptive)
Weight generation scheme         WeightScheme... Becke
Basis function cutoff            BFCut       ... 1.0000e-11
Integration weight cutoff        WCut        ... 1.0000e-14
Angular grids for H and He will be reduced by one unit
Partially contracted basis set               ... on
Rotationally invariant grid construction     ... off

Total number of grid points                  ...     8735
Total number of batches                      ...      140
Average number of points per batch           ...       62
Average number of grid points per atom       ...     1248
UseSFitting                                  ... on

GRIDX 3
-------
General Integration Accuracy     IntAcc      ... 4.338
Radial Grid Type                 RadialGrid  ... OptM3 with GC (2021)
Angular Grid (max. ang.)         AngularGrid ... 3 (Lebedev-194)
Angular grid pruning method      GridPruning ... 4 (adaptive)
Weight generation scheme         WeightScheme... Becke
Basis function cutoff            BFCut       ... 1.0000e-11
Integration weight cutoff        WCut        ... 1.0000e-14
Angular grids for H and He will be reduced by one unit
Partially contracted basis set               ... on
Rotationally invariant grid construction     ... off

Total number of grid points                  ...    19275
Total number of batches                      ...      305
Average number of points per batch           ...       63
Average number of grid points per atom       ...     2754
UseSFitting                                  ... on

Time for X-Grid setup             =    0.073 sec

--------------
SCF ITERATIONS
--------------
ITER       Energy         Delta-E        Max-DP      RMS-DP      [F,P]     Damp
               ***  Starting incremental Fock matrix formation  ***
                      *** Initiating the SOSCF procedure ***
                      *** Re-Reading the Fockian *** 
                      *** Removing any level shift *** 
ITER      Energy       Delta-E        Grad      Rot      Max-DP    RMS-DP
  0   -153.52725983 -153.5272598256  0.000002  0.000002  0.000004  0.000000
               *** Restarting incremental Fock matrix formation ***
                  ***Gradient check signals convergence***
              ***Rediagonalizing the Fockian in SOSCF/NRSCF***

               *****************************************************
               *                     SUCCESS                       *
               *           SCF CONVERGED AFTER   1 CYCLES          *
               *****************************************************

Old exchange energy                            =     -4.933718055 Eh
New exchange energy                            =     -4.933720841 Eh
Exchange energy change after final integration =     -0.000002786 Eh
Total energy after final integration           =   -153.527262612 Eh
Final COS-X integration done in                =     0.302 sec

----------------
TOTAL SCF ENERGY
----------------

Total Energy       :         -153.52726261 Eh           -4177.68921 eV

Components:
Nuclear Repulsion  :           68.91553303 Eh            1875.28699 eV
Electronic Energy  :         -222.44279565 Eh           -6052.97620 eV
One Electron Energy:         -344.64342283 Eh           -9378.22431 eV
Two Electron Energy:          122.20062719 Eh            3325.24812 eV
Max COSX asymmetry :            0.00000081 Eh               0.00002 eV

Virial components:
Potential Energy   :         -305.99112099 Eh           -8326.44171 eV
Kinetic Energy     :          152.46385838 Eh            4148.75251 eV
Virial Ratio       :            2.00697480


DFT components:
N(Alpha)           :       12.000002703457 electrons
N(Beta)            :       12.000002703457 electrons
N(Total)           :       24.000005406913 electrons
E(X)               :      -14.819562409280 Eh       
E(C)               :       -0.771165462908 Eh       
E(XC)              :      -15.590727872188 Eh       
DFET-embed. en.    :        0.000000000000 Eh       

---------------
SCF CONVERGENCE
---------------

  Last Energy change         ...   -4.4821e-11  Tolerance :   1.0000e-08
  Last MAX-Density change    ...    1.6653e-15  Tolerance :   1.0000e-07
  Last RMS-Density change    ...    2.9279e-17  Tolerance :   5.0000e-09
  Last Orbital Gradient      ...    1.1114e-06  Tolerance :   1.0000e-05
  Last Orbital Rotation      ...    6.3134e-06  Tolerance :   1.0000e-05

             **** THE GBW FILE WAS UPDATED (ox_es1_E_orca0006.gbw) ****
             **** DENSITY ox_es1_E_orca0006.scfp WAS UPDATED ****
             **** ENERGY FILE WAS UPDATED (ox_es1_E_orca0006.en.tmp) ****
             **** THE GBW FILE WAS UPDATED (ox_es1_E_orca0006.gbw) ****
             **** DENSITY ox_es1_E_orca0006.scfp WAS UPDATED ****
----------------
ORBITAL ENERGIES
----------------

  NO   OCC          E(Eh)            E(eV) 
   0   2.0000     -19.211241      -522.7645 
   1   2.0000     -10.338467      -281.3240 
   2   2.0000     -10.275166      -279.6015 
   3   2.0000      -1.030991       -28.0547 
   4   2.0000      -0.749543       -20.3961 
   5   2.0000      -0.605191       -16.4681 
   6   2.0000      -0.506020       -13.7695 
   7   2.0000      -0.481653       -13.1064 
   8   2.0000      -0.410121       -11.1600 
   9   2.0000      -0.400383       -10.8950 
  10   2.0000      -0.284606        -7.7445 
  11   2.0000      -0.259945        -7.0735 
  12   0.0000      -0.137890        -3.7522 
  13   0.0000       0.032619         0.8876 
  14   0.0000       0.060392         1.6434 
  15   0.0000       0.079333         2.1588 
  16   0.0000       0.133028         3.6199 
  17   0.0000       0.143117         3.8944 
  18   0.0000       0.182260         4.9595 
  19   0.0000       0.190884         5.1942 
  20   0.0000       0.237297         6.4572 
  21   0.0000       0.252364         6.8672 
  22   0.0000       0.272686         7.4202 
  23   0.0000       0.330377         8.9900 
  24   0.0000       0.344000         9.3607 
  25   0.0000       0.365372         9.9423 
  26   0.0000       0.385277        10.4839 
  27   0.0000       0.394362        10.7311 
  28   0.0000       0.421536        11.4706 
  29   0.0000       0.474967        12.9245 
  30   0.0000       0.477345        12.9892 
  31   0.0000       0.538753        14.6602 
  32   0.0000       0.555585        15.1182 
  33   0.0000       0.604495        16.4492 
  34   0.0000       0.697905        18.9910 
  35   0.0000       0.735217        20.0063 
  36   0.0000       0.789003        21.4699 
  37   0.0000       0.863371        23.4935 
  38   0.0000       0.886640        24.1267 
  39   0.0000       0.913477        24.8570 
  40   0.0000       0.931572        25.3494 
  41   0.0000       1.041345        28.3364 
  42   0.0000       1.061943        28.8969 
  43   0.0000       1.080876        29.4121 
  44   0.0000       1.162257        31.6266 
  45   0.0000       1.314413        35.7670 
  46   0.0000       1.411819        38.4176 
  47   0.0000       1.427275        38.8381 
  48   0.0000       1.525347        41.5068 
  49   0.0000       1.538965        41.8774 
  50   0.0000       1.558652        42.4131 
  51   0.0000       1.575697        42.8769 
  52   0.0000       1.608355        43.7656 
  53   0.0000       1.673703        45.5438 
  54   0.0000       1.707473        46.4627 
  55   0.0000       1.731392        47.1136 
  56   0.0000       1.793876        48.8139 
  57   0.0000       1.804343        49.0987 
  58   0.0000       1.892018        51.4844 
  59   0.0000       1.898133        51.6508 
  60   0.0000       1.972602        53.6772 
  61   0.0000       2.009645        54.6852 
  62   0.0000       2.087711        56.8095 
  63   0.0000       2.252520        61.2942 
  64   0.0000       2.296252        62.4842 
  65   0.0000       2.319768        63.1241 
  66   0.0000       2.346460        63.8504 
  67   0.0000       2.402993        65.3888 
  68   0.0000       2.444820        66.5269 
  69   0.0000       2.479664        67.4751 
  70   0.0000       2.498085        67.9764 
  71   0.0000       2.546575        69.2958 
  72   0.0000       2.569023        69.9067 
  73   0.0000       2.659299        72.3632 
  74   0.0000       2.705236        73.6132 
  75   0.0000       2.795165        76.0603 
  76   0.0000       2.911565        79.2277 
  77   0.0000       2.965411        80.6929 
  78   0.0000       2.978273        81.0429 
  79   0.0000       3.019324        82.1600 
  80   0.0000       3.035420        82.5980 
  81   0.0000       3.087792        84.0231 
  82   0.0000       3.114347        84.7457 
  83   0.0000       3.143974        85.5519 
  84   0.0000       3.171474        86.3002 
  85   0.0000       3.218584        87.5821 
  86   0.0000       3.290043        89.5266 
  87   0.0000       3.321890        90.3932 
  88   0.0000       3.441428        93.6460 
  89   0.0000       3.526139        95.9511 
  90   0.0000       3.574655        97.2713 
  91   0.0000       3.610782        98.2544 
  92   0.0000       3.680251       100.1447 
  93   0.0000       3.796097       103.2970 
  94   0.0000       3.837164       104.4145 
  95   0.0000       4.040997       109.9611 
  96   0.0000       4.091184       111.3268 
  97   0.0000       4.161632       113.2438 
  98   0.0000       4.245659       115.5302 
  99   0.0000       4.410824       120.0246 
 100   0.0000       4.482153       121.9656 
 101   0.0000       4.709955       128.1644 
 102   0.0000       5.196985       141.4172 
 103   0.0000       5.252208       142.9198 
 104   0.0000       5.419497       147.4720 
 105   0.0000       5.432778       147.8334 
 106   0.0000       5.858978       159.4309 
 107   0.0000       5.873065       159.8142 
 108   0.0000       6.004042       163.3783 
 109   0.0000       6.388598       173.8426 
 110   0.0000       6.439776       175.2352 
 111   0.0000       6.835499       186.0034 
 112   0.0000       6.862638       186.7419 
 113   0.0000       6.945308       188.9914 
 114   0.0000      21.830257       594.0315 
 115   0.0000      22.484856       611.8440 
 116   0.0000      43.771983      1191.0962 

                    ********************************
                    * MULLIKEN POPULATION ANALYSIS *
                    ********************************

-----------------------
MULLIKEN ATOMIC CHARGES
-----------------------
   0 O :   -0.344678
   1 C :   -0.035547
   2 C :   -0.175213
   3 H :    0.098032
   4 H :    0.113527
   5 H :    0.167224
   6 H :    0.176655
Sum of atomic charges:    0.0000000

--------------------------------
MULLIKEN REDUCED ORBITAL CHARGES
--------------------------------
  0 O s       :     3.901137  s :     3.901137
      pz      :     1.895861  p :     4.414845
      px      :     1.184995
      py      :     1.333988
      dz2     :     0.003455  d :     0.027262
      dxz     :     0.000342
      dyz     :     0.006439
      dx2y2   :     0.009676
      dxy     :     0.007350
      f0      :     0.000180  f :     0.001435
      f+1     :     0.000079
      f-1     :     0.000324
      f+2     :     0.000197
      f-2     :     0.000027
      f+3     :     0.000306
      f-3     :     0.000322
  1 C s       :     3.190866  s :     3.190866
      pz      :     1.059566  p :     2.666513
      px      :     0.887250
      py      :     0.719697
      dz2     :     0.011758  d :     0.166944
      dxz     :     0.019945
      dyz     :     0.054289
      dx2y2   :     0.023984
      dxy     :     0.056968
      f0      :     0.002057  f :     0.011224
      f+1     :     0.001192
      f-1     :     0.000897
      f+2     :     0.003295
      f-2     :     0.000249
      f+3     :     0.002814
      f-3     :     0.000719
  2 C s       :     3.335510  s :     3.335510
      pz      :     1.016353  p :     2.777425
      px      :     1.006573
      py      :     0.754499
      dz2     :     0.007361  d :     0.057521
      dxz     :     0.021750
      dyz     :     0.006823
      dx2y2   :     0.005802
      dxy     :     0.015785
      f0      :     0.000479  f :     0.004758
      f+1     :     0.000873
      f-1     :     0.000243
      f+2     :     0.000615
      f-2     :     0.000420
      f+3     :     0.000852
      f-3     :     0.001276
  3 H s       :     0.882933  s :     0.882933
      pz      :     0.009803  p :     0.019034
      px      :     0.005414
      py      :     0.003817
  4 H s       :     0.865269  s :     0.865269
      pz      :     0.010329  p :     0.021204
      px      :     0.006000
      py      :     0.004874
  5 H s       :     0.815964  s :     0.815964
      pz      :     0.008679  p :     0.016812
      px      :     0.004358
      py      :     0.003775
  6 H s       :     0.803419  s :     0.803419
      pz      :     0.009885  p :     0.019926
      px      :     0.006009
      py      :     0.004032


                     *******************************
                     * LOEWDIN POPULATION ANALYSIS *
                     *******************************

----------------------
LOEWDIN ATOMIC CHARGES
----------------------
   0 O :    0.016476
   1 C :   -0.509012
   2 C :   -0.081111
   3 H :    0.121091
   4 H :    0.117835
   5 H :    0.175116
   6 H :    0.159604

-------------------------------
LOEWDIN REDUCED ORBITAL CHARGES
-------------------------------
  0 O s       :     3.520135  s :     3.520135
      pz      :     1.809055  p :     4.393614
      px      :     1.127835
      py      :     1.456724
      dz2     :     0.007335  d :     0.065140
      dxz     :     0.000327
      dyz     :     0.019128
      dx2y2   :     0.019688
      dxy     :     0.018663
      f0      :     0.000523  f :     0.004635
      f+1     :     0.000134
      f-1     :     0.000652
      f+2     :     0.000975
      f-2     :     0.000041
      f+3     :     0.001361
      f-3     :     0.000950
  1 C s       :     2.835756  s :     2.835756
      pz      :     1.040198  p :     2.945409
      px      :     1.037024
      py      :     0.868187
      dz2     :     0.071174  d :     0.645203
      dxz     :     0.100639
      dyz     :     0.151045
      dx2y2   :     0.137673
      dxy     :     0.184672
      f0      :     0.013087  f :     0.082644
      f+1     :     0.006376
      f-1     :     0.008003
      f+2     :     0.019480
      f-2     :     0.002903
      f+3     :     0.021179
      f-3     :     0.011616
  2 C s       :     2.964840  s :     2.964840
      pz      :     1.051230  p :     2.866774
      px      :     1.121213
      py      :     0.694330
      dz2     :     0.029205  d :     0.225699
      dxz     :     0.095566
      dyz     :     0.019052
      dx2y2   :     0.037736
      dxy     :     0.044139
      f0      :     0.003051  f :     0.023798
      f+1     :     0.002588
      f-1     :     0.001322
      f+2     :     0.003759
      f-2     :     0.002333
      f+3     :     0.004519
      f-3     :     0.006228
  3 H s       :     0.827942  s :     0.827942
      pz      :     0.027434  p :     0.050967
      px      :     0.013915
      py      :     0.009617
  4 H s       :     0.823122  s :     0.823122
      pz      :     0.029986  p :     0.059043
      px      :     0.016303
      py      :     0.012754
  5 H s       :     0.781973  s :     0.781973
      pz      :     0.023495  p :     0.042911
      px      :     0.009886
      py      :     0.009529
  6 H s       :     0.786551  s :     0.786551
      pz      :     0.028531  p :     0.053845
      px      :     0.014650
      py      :     0.010664


                      *****************************
                      * MAYER POPULATION ANALYSIS *
                      *****************************

  NA   - Mulliken gross atomic population
  ZA   - Total nuclear charge
  QA   - Mulliken gross atomic charge
  VA   - Mayer's total valence
  BVA  - Mayer's bonded valence
  FA   - Mayer's free valence

  ATOM       NA         ZA         QA         VA         BVA        FA
  0 O      8.3447     8.0000    -0.3447     1.8628     1.8628     0.0000
  1 C      6.0355     6.0000    -0.0355     4.0204     4.0204    -0.0000
  2 C      6.1752     6.0000    -0.1752     3.7677     3.7677    -0.0000
  3 H      0.9020     1.0000     0.0980     0.9665     0.9665    -0.0000
  4 H      0.8865     1.0000     0.1135     0.9689     0.9689    -0.0000
  5 H      0.8328     1.0000     0.1672     0.9580     0.9580     0.0000
  6 H      0.8233     1.0000     0.1767     0.9552     0.9552    -0.0000

  Mayer bond orders larger than 0.100000
B(  0-O ,  1-C ) :   1.0051 B(  0-O ,  2-C ) :   0.8483 B(  1-C ,  2-C ) :   1.0643 
B(  1-C ,  3-H ) :   0.9620 B(  1-C ,  4-H ) :   0.9750 B(  2-C ,  5-H ) :   0.9249 
B(  2-C ,  6-H ) :   0.9235 

-------
TIMINGS
-------

Total SCF time: 0 days 0 hours 0 min 1 sec 

Total time                  ....       1.083 sec
Sum of individual times     ....       0.986 sec  ( 91.0%)

Fock matrix formation       ....       0.782 sec  ( 72.1%)
  Split-RI-J                ....       0.127 sec  ( 16.3% of F)
  Chain of spheres X        ....       0.581 sec  ( 74.4% of F)
  XC integration            ....       0.071 sec  (  9.1% of F)
    Basis function eval.    ....       0.020 sec  ( 27.7% of XC)
    Density eval.           ....       0.015 sec  ( 21.1% of XC)
    XC-Functional eval.     ....       0.004 sec  (  6.3% of XC)
    XC-Potential eval.      ....       0.023 sec  ( 32.6% of XC)
Diagonalization             ....       0.003 sec  (  0.2%)
Density matrix formation    ....       0.000 sec  (  0.0%)
Population analysis         ....       0.003 sec  (  0.3%)
Initial guess               ....       0.005 sec  (  0.5%)
Orbital Transformation      ....       0.000 sec  (  0.0%)
Orbital Orthonormalization  ....       0.001 sec  (  0.1%)
DIIS solution               ....       0.001 sec  (  0.1%)
SOSCF solution              ....       0.003 sec  (  0.2%)
Grid generation             ....       0.190 sec  ( 17.5%)

Maximum memory used throughout the entire SCF-calculation: 61.1 MB


           ************************************************************
           *        Program running with 8 parallel MPI-processes     *
           *              working on a common directory               *
           ************************************************************
------------------------------------------------------------------------------
                        ORCA TD-DFT/TDA CALCULATION
------------------------------------------------------------------------------

Input orbitals are from        ... ox_es1_E_orca0006.gbw
CI-vector output               ... ox_es1_E_orca0006.cis
Tamm-Dancoff approximation     ... operative
CIS-Integral strategy          ... AO-integrals
Integral handling              ... AO integral Direct
Max. core memory used          ... 3000 MB
Reference state                ... RHF
Generation of triplets         ... off
Follow IRoot                   ... off
Number of operators            ... 1
Orbital ranges used for CIS calculation:
 Operator 0:  Orbitals   3... 11  to  12...116
XAS localization array:
 Operator 0:  Orbitals  -1... -1

-------------------
XC-INTEGRATION GRID
-------------------

General Integration Accuracy     IntAcc      ... 3.467
Radial Grid Type                 RadialGrid  ... OptM3 with GC (2021)
Angular Grid (max. ang.)         AngularGrid ... 1 (Lebedev-50)
Angular grid pruning method      GridPruning ... 4 (adaptive)
Weight generation scheme         WeightScheme... Becke
Basis function cutoff            BFCut       ... 1.0000e-11
Integration weight cutoff        WCut        ... 1.0000e-14
Angular grids for H and He will be reduced by one unit
Partially contracted basis set               ... off
Rotationally invariant grid construction     ... off

Total number of grid points                  ...     4546
Total number of batches                      ...       75
Average number of points per batch           ...       60
Average number of grid points per atom       ...      649

---------------------
COSX-INTEGRATION GRID
---------------------

General Integration Accuracy     IntAcc      ... 3.067
Radial Grid Type                 RadialGrid  ... OptM3 with GC (2021)
Angular Grid (max. ang.)         AngularGrid ... 1 (Lebedev-50)
Angular grid pruning method      GridPruning ... 4 (adaptive)
Weight generation scheme         WeightScheme... Becke
Basis function cutoff            BFCut       ... 1.0000e-11
Integration weight cutoff        WCut        ... 1.0000e-14
Angular grids for H and He will be reduced by one unit
Partially contracted basis set               ... on
Rotationally invariant grid construction     ... off

Total number of grid points                  ...     2087
Total number of batches                      ...       38
Average number of points per batch           ...       54
Average number of grid points per atom       ...      298

---------------
TD-DFT XC SETUP
---------------

DFT calculation                         ... on
Name of the grid file                   ... ox_es1_E_orca0006.grid_cis.tmp
Exchange functional (TD-DFT)            ... PBE
   PBE kappa parameter  XKappa (TD-DFT) ...  0.804000
   PBE mue parameter   XMuePBE (TD-DFT) ...  0.219520
Correlation functional (TD-DFT)         ... PBE
   PBE beta parameter CBetaPBE (TD-DFT) ...  0.066725
 LDA part of GGA corr.  LDAOpt (TD-DFT) ... PW91-LDA
Hybrid DFT                              ... on
   Exchange mixing (TD-DFT)             ...  0.250
   GGA exch. scaling (TD-DFT)           ...  0.750
   GGA corr. scaling (TD-DFT)           ...  1.000

Building densities             ... done
Calculating rho(r) on the grid ... done
Building xc-kernel on the grid ... done
                    *** TD-DFT CALCULATION INITIALIZED ***

------------------------
DAVIDSON-DIAGONALIZATION
------------------------

Dimension of the eigenvalue problem            ...    945
Number of roots to be determined               ...      1
Maximum size of the expansion space            ...     10
Maximum number of iterations                   ...    100
Convergence tolerance for the residual         ...    2.500e-07
Convergence tolerance for the energies         ...    2.500e-07
Orthogonality tolerance                        ...    1.000e-14
Level Shift                                    ...    0.000e+00
Constructing the preconditioner                ... o.k.
Building the initial guess                     ... o.k.
Number of trial vectors determined             ...     10


                       ****Iteration    0****

   Memory handling for direct AO based CIS:
   Memory per vector needed      ...     1 MB
   Memory needed                 ...     1 MB
   Memory available              ...  3000 MB
   Number of vectors per batch   ...  3000
   Number of batches             ...     1
   Time for densities:            0.001
   Time for RI-J (Direct):        0.016
   Time for K (COSX):             0.059
   Time for XC-Integration:       0.017
   Time for Sigma-Completion:     0.000
   Size of expansion space: 3
   Lowest Energy          :     0.041596572765
   Maximum Energy change  :     0.041596572765 (vector 0)
   Maximum residual norm  :     0.002505253354

                       ****Iteration    1****
   Time for densities:            0.000
   Time for RI-J (Direct):        0.014
   Time for K (COSX):             0.055
   Time for XC-Integration:       0.007
   Time for Sigma-Completion:     0.000
   Size of expansion space: 4
   Lowest Energy          :     0.039708038232
   Maximum Energy change  :     0.001888534533 (vector 0)
   Maximum residual norm  :     0.000046294640

                       ****Iteration    2****
   Time for densities:            0.000
   Time for RI-J (Direct):        0.014
   Time for K (COSX):             0.056
   Time for XC-Integration:       0.007
   Time for Sigma-Completion:     0.000
   Size of expansion space: 5
   Lowest Energy          :     0.039678755050
   Maximum Energy change  :     0.000029283181 (vector 0)
   Maximum residual norm  :     0.000001205095

                       ****Iteration    3****
   Time for densities:            0.000
   Time for RI-J (Direct):        0.014
   Time for K (COSX):             0.056
   Time for XC-Integration:       0.007
   Time for Sigma-Completion:     0.000
   Size of expansion space: 6
   Lowest Energy          :     0.039677594562
   Maximum Energy change  :     0.000001160488 (vector 0)
   Maximum residual norm  :     0.000000082532

      *** CONVERGENCE OF RESIDUAL NORM REACHED ***

Storing the converged CI vectors               ... ox_es1_E_orca0006.cis1

                 *** DAVIDSON DONE ***

Total time for solving the CIS problem:     0.327sec

------------------------------------
TD-DFT/TDA EXCITED STATES (SINGLETS)
------------------------------------

the weight of the individual excitations are printed if larger than 1.0e-02

STATE  1:  E=   0.039678 au      1.080 eV     8708.2 cm**-1 <S**2> =   0.000000
    11a ->  12a  :     0.992709 (c=  0.99634759)


-----------------------------
TD-DFT/TDA-EXCITATION SPECTRA
-----------------------------

Center of mass = ( -0.7161,  0.1304, -0.0664)
Calculating the Dipole integrals                  ... done
Transforming integrals                            ... done
Calculating the Linear Momentum integrals         ... done
Transforming integrals                            ... done
Calculating angular momentum integrals            ... done
Transforming integrals                            ... done

-----------------------------------------------------------------------------
         ABSORPTION SPECTRUM VIA TRANSITION ELECTRIC DIPOLE MOMENTS
-----------------------------------------------------------------------------
State   Energy    Wavelength  fosc         T2        TX        TY        TZ  
        (cm-1)      (nm)                 (au**2)    (au)      (au)      (au) 
-----------------------------------------------------------------------------
   1    8708.2   1148.3   0.000092287   0.00349  -0.00469   0.00057   0.05888

-----------------------------------------------------------------------------
         ABSORPTION SPECTRUM VIA TRANSITION VELOCITY DIPOLE MOMENTS
-----------------------------------------------------------------------------
State   Energy    Wavelength   fosc        P2         PX        PY        PZ  
        (cm-1)      (nm)                 (au**2)     (au)      (au)      (au) 
-----------------------------------------------------------------------------
   1    8708.2   1148.3   0.008664106   0.00052  -0.00100   0.00011  -0.02269

-------------------------------------------------------------------
                             CD SPECTRUM
-------------------------------------------------------------------
State  Energy     Wavelength     R         MX        MY        MZ   
       (cm-1)       (nm)     (1e40*cgs)   (au)      (au)      (au)  
-------------------------------------------------------------------
   1    8708.2   1148.3      0.18259   0.01790  -0.27419   0.01064

-------------------------------------------------------------------
         CD SPECTRUM VIA TRANSITION VELOCITY DIPOLE MOMENTS        
-------------------------------------------------------------------
State  Energy     Wavelength     R         MX        MY        MZ   
       (cm-1)       (nm)     (1e40*cgs)   (au)      (au)      (au)  
-------------------------------------------------------------------
   1    8708.2   1148.3     -3.43699   0.01790  -0.27419   0.01064

Total run time:        0.604 sec

           *** ORCA-CIS/TD-DFT FINISHED WITHOUT ERROR ***

Maximum memory used throughout the entire CIS-calculation: 49.4 MB

-----------------------
CIS/TD-DFT TOTAL ENERGY
-----------------------

    E(SCF)  =   -153.527262612 Eh
    DE(CIS) =      0.039677595 Eh (Root  1)
    ----------------------------- ---------
    E(tot)  =   -153.487585018 Eh



-------------------------------------------------------------------------------
                          DFT DISPERSION CORRECTION                            
                                                                               
                              DFTD3 V3.1  Rev 1                                
                          USING Becke-Johnson damping                          
-------------------------------------------------------------------------------
The PBE0 functional is recognized
Active option DFTDOPT                   ...         4   

molecular C6(AA) [au] = 395.540761 


            DFT-D V3
 parameters
 s6 scaling factor         :     1.0000 
 a1 scaling factor         :     0.4145 
 s8 scaling factor         :     1.2177 
 a2 scaling factor         :     4.8593 
 ad hoc parameters k1-k3   :    16.0000     1.3333    -4.0000 

 Edisp/kcal,au: -1.644074143549  -0.002619998639 
 E6   /kcal   :  -1.072385662 
 E8   /kcal   :  -0.571688482 
 % E8         :  34.772670333 

-------------------------   ----------------
Dispersion correction           -0.002619999
-------------------------   ----------------


-------------------------   --------------------
FINAL SINGLE POINT ENERGY      -153.490205016153
-------------------------   --------------------



           ************************************************************
           *        Program running with 8 parallel MPI-processes     *
           *              working on a common directory               *
           ************************************************************
------------------------------------------------------------------------------
                         ORCA SCF GRADIENT CALCULATION
------------------------------------------------------------------------------


------------------------
TD-DFT GRADIENT XC SETUP
------------------------

Building densities                     ... done
Calculating rho(r) on the grid         ... done
Building xc-kernel on the grid         ... done
Building xc 3rd derivative on the grid      ... done
                *** TD-DFT GRADIENT CALCULATION INITIALIZED ***

-------------------
TD-DFT/TDA GRADIENT
-------------------

Reference wavefunction             ... RHF
State of interest                  ... 1
Basis dimension                    ... 117
DFT-XC contribution needed         ... YES
RI-approximation                   ... ON
CIS-vectors being read from        ... ox_es1_E_orca0006.cis

 => Number of Vectors found: 1
 => Orbital Window: 3...11 -> 12...116

Reading the CIS file                     ... done
Norm of the CI vector                    ... 1.000000000
Making the CIS (pseudo)densities         ... done
Making operators G(D) and Q(T)           ... done
Transforming the Fock operators          ... done
Making the frozen-core relaxed density   ... done
Constructing the G(H) operator           ... done
Transforming the G(H) operator           ... done
Calculating the CIS Lagrangian           ... done
Solving the Z-vector equations           ... done
Finalizing the relaxed density           ... done
Storing the relaxed density              ... done
Constructing the G(Z) operator           ... done
Transforming the G(Z) operator           ... done
Making the W-matrix                      ... done
Finalizing the W-matrix                  ... done
Transforming the W-matrix                ... done
Nuclear repulsion gradient               ... done
One-Electron gradient                    ... done
Dispersion correction                    ... done
Prescreening matrices                    ... done
COSX-gradient                            ... done
Coulomb gradient (RI)                    ... done
Exchange-Correlation gradient            ... done

                 ---------------------------
                 EXCITED STATE GRADIENT DONE
                 ---------------------------

------------------
CARTESIAN GRADIENT
------------------

   1   O   :    0.018045172   -0.027968760   -0.000791093
   2   C   :   -0.010640840   -0.048160768   -0.024110987
   3   C   :   -0.046879345    0.095367029    0.024508887
   4   H   :   -0.006728197    0.014043501    0.023073467
   5   H   :    0.002352052    0.024429687   -0.003451128
   6   H   :    0.021670554   -0.034827297   -0.059042908
   7   H   :    0.022140483   -0.022950844    0.039888921

Difference to translation invariance:
           :   -0.0000401210   -0.0000674521    0.0000751589

Difference to rotation invariance:
           :    0.0000262257    0.0000777836   -0.0004491339

Norm of the cartesian gradient     ...    0.1586870298
RMS gradient                       ...    0.0346283489
MAX gradient                       ...    0.0953670291

------------------------------------------------------------------------------
                  RELAXED CIS/TDA DENSITY POPULATION ANALYSIS
                                   IROOT 1
------------------------------------------------------------------------------
------------------------------------------------------------------------------
                           ORCA POPULATION ANALYSIS
------------------------------------------------------------------------------
Input electron density              ... ox_es1_E_orca0006.cisp
BaseName (.gbw .S,...)              ... ox_es1_E_orca0006

                    ********************************
                    * MULLIKEN POPULATION ANALYSIS *
                    ********************************

-----------------------
MULLIKEN ATOMIC CHARGES
-----------------------
   0 O :   -0.246826
   1 C :   -0.058416
   2 C :   -0.272222
   3 H :    0.156258
   4 H :    0.160129
   5 H :    0.122652
   6 H :    0.138425
Sum of atomic charges:    0.0000000

--------------------------------
MULLIKEN REDUCED ORBITAL CHARGES
--------------------------------
  0 O s       :     3.888816  s :     3.888816
      pz      :     1.129195  p :     4.329973
      px      :     1.864831
      py      :     1.335948
      dz2     :     0.003063  d :     0.026865
      dxz     :     0.000252
      dyz     :     0.007428
      dx2y2   :     0.009765
      dxy     :     0.006357
      f0      :     0.000069  f :     0.001172
      f+1     :    -0.000021
      f-1     :     0.000101
      f+2     :     0.000213
      f-2     :     0.000019
      f+3     :     0.000329
      f-3     :     0.000462
  1 C s       :     3.192625  s :     3.192625
      pz      :     0.991989  p :     2.700069
      px      :     0.960392
      py      :     0.747688
      dz2     :     0.010447  d :     0.154519
      dxz     :     0.023448
      dyz     :     0.029518
      dx2y2   :     0.025732
      dxy     :     0.065373
      f0      :     0.001092  f :     0.011202
      f+1     :     0.001334
      f-1     :     0.000647
      f+2     :     0.001886
      f-2     :     0.000181
      f+3     :     0.003779
      f-3     :     0.002283
  2 C s       :     3.365619  s :     3.365619
      pz      :     0.988374  p :     2.851222
      px      :     0.941011
      py      :     0.921836
      dz2     :     0.006513  d :     0.050890
      dxz     :     0.013927
      dyz     :     0.005425
      dx2y2   :     0.007221
      dxy     :     0.017804
      f0      :     0.000417  f :     0.004492
      f+1     :     0.000745
      f-1     :     0.000351
      f+2     :     0.000562
      f-2     :     0.000259
      f+3     :     0.000948
      f-3     :     0.001210
  3 H s       :     0.823854  s :     0.823854
      pz      :     0.010169  p :     0.019888
      px      :     0.005695
      py      :     0.004024
  4 H s       :     0.817844  s :     0.817844
      pz      :     0.010705  p :     0.022027
      px      :     0.006268
      py      :     0.005054
  5 H s       :     0.860588  s :     0.860588
      pz      :     0.007971  p :     0.016760
      px      :     0.004163
      py      :     0.004626
  6 H s       :     0.841580  s :     0.841580
      pz      :     0.009147  p :     0.019994
      px      :     0.005722
      py      :     0.005124


                     *******************************
                     * LOEWDIN POPULATION ANALYSIS *
                     *******************************

----------------------
LOEWDIN ATOMIC CHARGES
----------------------
   0 O :    0.083212
   1 C :   -0.463859
   2 C :   -0.234626
   3 H :    0.172639
   4 H :    0.159953
   5 H :    0.146623
   6 H :    0.136057

-------------------------------
LOEWDIN REDUCED ORBITAL CHARGES
-------------------------------
  0 O s       :     3.527172  s :     3.527172
      pz      :     1.091323  p :     4.319093
      px      :     1.769535
      py      :     1.458235
      dz2     :     0.007559  d :     0.066164
      dxz     :     0.000353
      dyz     :     0.016539
      dx2y2   :     0.020441
      dxy     :     0.021272
      f0      :     0.000509  f :     0.004359
      f+1     :     0.000083
      f-1     :     0.000445
      f+2     :     0.000700
      f-2     :     0.000044
      f+3     :     0.001411
      f-3     :     0.001165
  1 C s       :     2.841217  s :     2.841217
      pz      :     0.975229  p :     2.941926
      px      :     1.079438
      py      :     0.887259
      dz2     :     0.069855  d :     0.593089
      dxz     :     0.104080
      dyz     :     0.077262
      dx2y2   :     0.161311
      dxy     :     0.180580
      f0      :     0.007529  f :     0.087628
      f+1     :     0.006416
      f-1     :     0.007558
      f+2     :     0.012199
      f-2     :     0.001925
      f+3     :     0.028526
      f-3     :     0.023474
  2 C s       :     2.993568  s :     2.993568
      pz      :     1.038309  p :     2.983610
      px      :     1.084972
      py      :     0.860329
      dz2     :     0.030563  d :     0.232381
      dxz     :     0.084286
      dyz     :     0.016705
      dx2y2   :     0.038819
      dxy     :     0.062008
      f0      :     0.002904  f :     0.025067
      f+1     :     0.003324
      f-1     :     0.002095
      f+2     :     0.003376
      f-2     :     0.001912
      f+3     :     0.004948
      f-3     :     0.006510
  3 H s       :     0.774901  s :     0.774901
      pz      :     0.027915  p :     0.052460
      px      :     0.014565
      py      :     0.009980
  4 H s       :     0.779705  s :     0.779705
      pz      :     0.030489  p :     0.060342
      px      :     0.016796
      py      :     0.013056
  5 H s       :     0.809991  s :     0.809991
      pz      :     0.021550  p :     0.043386
      px      :     0.009483
      py      :     0.012352
  6 H s       :     0.809252  s :     0.809252
      pz      :     0.026483  p :     0.054691
      px      :     0.014003
      py      :     0.014205


                      *****************************
                      * MAYER POPULATION ANALYSIS *
                      *****************************

  NA   - Mulliken gross atomic population
  ZA   - Total nuclear charge
  QA   - Mulliken gross atomic charge
  VA   - Mayer's total valence
  BVA  - Mayer's bonded valence
  FA   - Mayer's free valence

  ATOM       NA         ZA         QA         VA         BVA        FA
  0 O      8.2468     8.0000    -0.2468     1.9307     1.2638     0.6670
  1 C      6.0584     6.0000    -0.0584     4.0856     3.9916     0.0941
  2 C      6.2722     6.0000    -0.2722     3.8002     3.0592     0.7411
  3 H      0.8437     1.0000     0.1563     0.9561     0.8729     0.0832
  4 H      0.8399     1.0000     0.1601     0.9573     0.8918     0.0655
  5 H      0.8773     1.0000     0.1227     0.9718     0.9505     0.0212
  6 H      0.8616     1.0000     0.1384     0.9684     0.9472     0.0212

  Mayer bond orders larger than 0.100000
B(  0-O ,  1-C ) :   1.1295 B(  0-O ,  2-C ) :   0.1054 B(  1-C ,  2-C ) :   1.1027 
B(  1-C ,  3-H ) :   0.8592 B(  1-C ,  4-H ) :   0.8832 B(  2-C ,  5-H ) :   0.9248 
B(  2-C ,  6-H ) :   0.9248 


-------
TIMINGS
-------

Total TD-DFT gradient time         ...        5.837 sec

Fock matrix formation       ....       0.890 sec  ( 15.3%)
  Coulomb formation         ....       0.716 sec  ( 80.5% of F)
  RI-J                      ....       0.318 sec  ( 35.7% of F)
  Chain of spheres X        ....       0.398 sec  ( 44.7% of F)
  XC integration            ....       0.174 sec  ( 19.5% of F)
Z-vector equation           ....       1.970 sec  ( 33.8%)
One electron gradient       ....       0.036 sec  (  0.6%)
Prescreening matrices       ....       0.172 sec  (  3.0%)
RI-J Coulomb gradient       ....       0.278 sec  (  4.8%)
COSX gradient               ....       0.398 sec  (  6.8%)
XC gradient                 ....       1.747 sec  ( 29.9%)

Maximum memory used throughout the entire SCFGRAD-calculation: 130.2 MB

                            ***************************************
                            *     ORCA property calculations      *
                            ***************************************

                                    ---------------------
                                    Active property flags
                                    ---------------------
   (+) Dipole Moment


------------------------------------------------------------------------------
                       ORCA ELECTRIC PROPERTIES CALCULATION
------------------------------------------------------------------------------

Dipole Moment Calculation                       ... on
Quadrupole Moment Calculation                   ... off
Polarizability Calculation                      ... off
GBWName                                         ... ox_es1_E_orca0006.gbw
Electron density                                ... ox_es1_E_orca0006.scfp
The origin for moment calculation is the CENTER OF MASS  = (-0.716087,  0.130399 -0.066412)

-------------
DIPOLE MOMENT
-------------
                                X             Y             Z
Electronic contribution:     -0.60799       1.74819      -0.03518
Nuclear contribution   :      1.22617      -2.86822       0.07792
                        -----------------------------------------
Total Dipole Moment    :      0.61818      -1.12003       0.04274
                        -----------------------------------------
Magnitude (a.u.)       :      1.28002
Magnitude (Debye)      :      3.25355



--------------------
Rotational spectrum 
--------------------
 
Rotational constants in cm-1:     1.146184     0.418909     0.358013 
Rotational constants in MHz : 34361.736651 12558.576819 10732.969688 

 Dipole components along the rotational axes: 
x,y,z [a.u.] :    -1.149196    -0.563686    -0.007538 
x,y,z [Debye]:    -2.921023    -1.432776    -0.019159 

 

                        *** CIS RELAXED DENSITY ***

------------------------------------------------------------------------------
                       ORCA ELECTRIC PROPERTIES CALCULATION
------------------------------------------------------------------------------

Dipole Moment Calculation                       ... on
Quadrupole Moment Calculation                   ... off
Polarizability Calculation                      ... off
GBWName                                         ... ox_es1_E_orca0006.gbw
Electron density                                ... ox_es1_E_orca0006.cisp
The origin for moment calculation is the CENTER OF MASS  = (-0.716087,  0.130399 -0.066412)

-------------
DIPOLE MOMENT
-------------
                                X             Y             Z
Electronic contribution:     -1.30250       1.89263      -0.01521
Nuclear contribution   :      1.22617      -2.86822       0.07792
                        -----------------------------------------
Total Dipole Moment    :     -0.07634      -0.97559       0.06271
                        -----------------------------------------
Magnitude (a.u.)       :      0.98058
Magnitude (Debye)      :      2.49243



--------------------
Rotational spectrum 
--------------------
 
Rotational constants in cm-1:     1.146184     0.418909     0.358013 
Rotational constants in MHz : 34361.736651 12558.576819 10732.969688 

 Dipole components along the rotational axes: 
x,y,z [a.u.] :    -0.498359    -0.843919     0.031150 
x,y,z [Debye]:    -1.266729    -2.145073     0.079176 

 

Timings for individual modules:

Sum of individual times         ...        8.293 sec (=   0.138 min)
GTO integral calculation        ...        0.247 sec (=   0.004 min)   3.0 %
SCF iterations                  ...        1.250 sec (=   0.021 min)  15.1 %
CIS module                      ...        0.794 sec (=   0.013 min)   9.6 %
SCF Gradient evaluation         ...        6.001 sec (=   0.100 min)  72.4 %
                             ****ORCA TERMINATED NORMALLY****
TOTAL RUN TIME: 0 days 0 hours 0 minutes 8 seconds 783 msec
