
                                 *****************
                                 * O   R   C   A *
                                 *****************

                                            #,                                       
                                            ###                                      
                                            ####                                     
                                            #####                                    
                                            ######                                   
                                           ########,                                 
                                     ,,################,,,,,                         
                               ,,#################################,,                 
                          ,,##########################################,,             
                       ,#########################################, ''#####,          
                    ,#############################################,,   '####,        
                  ,##################################################,,,,####,       
                ,###########''''           ''''###############################       
              ,#####''   ,,,,##########,,,,          '''####'''          '####       
            ,##' ,,,,###########################,,,                        '##       
           ' ,,###''''                  '''############,,,                           
         ,,##''                                '''############,,,,        ,,,,,,###''
      ,#''                                            '''#######################'''  
     '                                                          ''''####''''         
             ,#######,   #######,   ,#######,      ##                                
            ,#'     '#,  ##    ##  ,#'     '#,    #''#        ######   ,####,        
            ##       ##  ##   ,#'  ##            #'  '#       #        #'  '#        
            ##       ##  #######   ##           ,######,      #####,   #    #        
            '#,     ,#'  ##    ##  '#,     ,#' ,#      #,         ##   #,  ,#        
             '#######'   ##     ##  '#######'  #'      '#     #####' # '####'        



                  #######################################################
                  #                        -***-                        #
                  #          Department of theory and spectroscopy      #
                  #    Directorship and core code : Frank Neese         #
                  #        Max Planck Institute fuer Kohlenforschung    #
                  #                Kaiser Wilhelm Platz 1               #
                  #                 D-45470 Muelheim/Ruhr               #
                  #                      Germany                        #
                  #                                                     #
                  #                  All rights reserved                #
                  #                        -***-                        #
                  #######################################################


                         Program Version 5.0.2 -  RELEASE  -


 With contributions from (in alphabetic order):
   Daniel Aravena         : Magnetic Suceptibility
   Michael Atanasov       : Ab Initio Ligand Field Theory (pilot matlab implementation)
   Alexander A. Auer      : GIAO ZORA, VPT2 properties, NMR spectrum
   Ute Becker             : Parallelization
   Giovanni Bistoni       : ED, misc. LED, open-shell LED, HFLD
   Martin Brehm           : Molecular dynamics
   Dmytro Bykov           : SCF Hessian
   Vijay G. Chilkuri      : MRCI spin determinant printing, contributions to CSF-ICE
   Dipayan Datta          : RHF DLPNO-CCSD density
   Achintya Kumar Dutta   : EOM-CC, STEOM-CC
   Dmitry Ganyushin       : Spin-Orbit,Spin-Spin,Magnetic field MRCI
   Miquel Garcia          : C-PCM and meta-GGA Hessian, CC/C-PCM, Gaussian charge scheme
   Yang Guo               : DLPNO-NEVPT2, F12-NEVPT2, CIM, IAO-localization
   Andreas Hansen         : Spin unrestricted coupled pair/coupled cluster methods
   Benjamin Helmich-Paris : MC-RPA, TRAH-SCF, COSX integrals
   Lee Huntington         : MR-EOM, pCC
   Robert Izsak           : Overlap fitted RIJCOSX, COSX-SCS-MP3, EOM
   Marcus Kettner         : VPT2
   Christian Kollmar      : KDIIS, OOCD, Brueckner-CCSD(T), CCSD density, CASPT2, CASPT2-K
   Simone Kossmann        : Meta GGA functionals, TD-DFT gradient, OOMP2, MP2 Hessian
   Martin Krupicka        : Initial AUTO-CI
   Lucas Lang             : DCDCAS
   Marvin Lechner         : AUTO-CI (C++ implementation), FIC-MRCC
   Dagmar Lenk            : GEPOL surface, SMD
   Dimitrios Liakos       : Extrapolation schemes; Compound Job, initial MDCI parallelization
   Dimitrios Manganas     : Further ROCIS development; embedding schemes
   Dimitrios Pantazis     : SARC Basis sets
   Anastasios Papadopoulos: AUTO-CI, single reference methods and gradients
   Taras Petrenko         : DFT Hessian,TD-DFT gradient, ASA, ECA, R-Raman, ABS, FL, XAS/XES, NRVS
   Peter Pinski           : DLPNO-MP2, DLPNO-MP2 Gradient
   Christoph Reimann      : Effective Core Potentials
   Marius Retegan         : Local ZFS, SOC
   Christoph Riplinger    : Optimizer, TS searches, QM/MM, DLPNO-CCSD(T), (RO)-DLPNO pert. Triples
   Tobias Risthaus        : Range-separated hybrids, TD-DFT gradient, RPA, STAB
   Michael Roemelt        : Original ROCIS implementation
   Masaaki Saitow         : Open-shell DLPNO-CCSD energy and density
   Barbara Sandhoefer     : DKH picture change effects
   Avijit Sen             : IP-ROCIS
   Kantharuban Sivalingam : CASSCF convergence, NEVPT2, FIC-MRCI
   Bernardo de Souza      : ESD, SOC TD-DFT
   Georgi Stoychev        : AutoAux, RI-MP2 NMR, DLPNO-MP2 response
   Willem Van den Heuvel  : Paramagnetic NMR
   Boris Wezisla          : Elementary symmetry handling
   Frank Wennmohs         : Technical directorship


 We gratefully acknowledge several colleagues who have allowed us to
 interface, adapt or use parts of their codes:
   Stefan Grimme, W. Hujo, H. Kruse, P. Pracht,  : VdW corrections, initial TS optimization,
                  C. Bannwarth, S. Ehlert          DFT functionals, gCP, sTDA/sTD-DF
   Ed Valeev, F. Pavosevic, A. Kumar             : LibInt (2-el integral package), F12 methods
   Garnet Chan, S. Sharma, J. Yang, R. Olivares  : DMRG
   Ulf Ekstrom                                   : XCFun DFT Library
   Mihaly Kallay                                 : mrcc  (arbitrary order and MRCC methods)
   Jiri Pittner, Ondrej Demel                    : Mk-CCSD
   Frank Weinhold                                : gennbo (NPA and NBO analysis)
   Christopher J. Cramer and Donald G. Truhlar   : smd solvation model
   Lars Goerigk                                  : TD-DFT with DH, B97 family of functionals
   V. Asgeirsson, H. Jonsson                     : NEB implementation
   FAccTs GmbH                                   : IRC, NEB, NEB-TS, DLPNO-Multilevel, CI-OPT
                                                   MM, QMMM, 2- and 3-layer-ONIOM, Crystal-QMMM,
                                                   LR-CPCM, SF, NACMEs, symmetry and pop. for TD-DFT,
                                                   nearIR, NL-DFT gradient (VV10), updates on ESD,
                                                   ML-optimized integration grids
   S Lehtola, MJT Oliveira, MAL Marques          : LibXC Library
   Liviu Ungur et al                             : ANISO software


 Your calculation uses the libint2 library for the computation of 2-el integrals
 For citations please refer to: http://libint.valeyev.net

 Your ORCA version has been built with support for libXC version: 5.1.0
 For citations please refer to: https://tddft.org/programs/libxc/

 This ORCA versions uses:
   CBLAS   interface :  Fast vector & matrix operations
   LAPACKE interface :  Fast linear algebra routines
   SCALAPACK package :  Parallel linear algebra routines
   Shared memory     :  Shared parallel matrices
   BLAS/LAPACK       :  OpenBLAS 0.3.15  USE64BITINT DYNAMIC_ARCH NO_AFFINITY SkylakeX SINGLE_THREADED
        Core in use  :  SkylakeX
   Copyright (c) 2011-2014, The OpenBLAS Project


Your calculation utilizes the atom-pairwise dispersion correction
with the Becke-Johnson damping scheme (D3BJ)
Cite in your paper:
S.Grimme, S.Ehrlich, L.Goerigk, J Comput Chem, (2011), 32, 1456–1465 
S.Grimme, J.Antony, S.Ehrlich and H.Krieg, J.Chem.Phys., 132, (2010), 154104 
   

================================================================================

----- Orbital basis set information -----
Your calculation utilizes the basis: def2-TZVP
   F. Weigend and R. Ahlrichs, Phys. Chem. Chem. Phys. 7, 3297 (2005).

----- AuxJ basis set information -----
Your calculation utilizes the auxiliary basis: def2/J
   F. Weigend, Phys. Chem. Chem. Phys. 8, 1057 (2006).

================================================================================
                                        WARNINGS
                       Please study these warnings very carefully!
================================================================================

INFO   : Checking CIS options ...

WARNING: CIS/ROCIS methods need fully converged wavefunctions
  ===> : Setting SCFConvForced true
         You can overwrite this default with %scf ConvForced false 


INFO   : the flag for use of the SHARK integral package has been found!

================================================================================
                                       INPUT FILE
================================================================================
NAME = ox_es1_D_orca0001.inp
|  1> ! engrad PBE0 D3BJ def2-TZVP  
|  2> %pal nprocs 8 end
|  3> %maxcore 3000
|  4> 
|  5> %tddft
|  6>   nroots 1
|  7>   tda true
|  8>   Iroot 1
|  9>   end 
| 10> *xyz 0 1 
| 11> O   -0.7519699061377929 1.0145342539268005 -0.05952191798086701
| 12> C   -0.6983966992573536 -0.4252903486791058 -0.06285557427519274
| 13> C   0.656197674260207 -0.5336130666443946 0.05923421280442753
| 14> H   -1.1799557416449944 -0.6855453237914186 0.9471804603143155
| 15> H   -1.3014789560560496 -0.7056279512664348 -0.9921676659739996
| 16> H   1.1646447818886259 -0.621513880943951 -0.8373365133154037
| 17> H   1.2064975970062708 -0.6810666521853088 0.9113226618014523
| 18> *
| 19> 
| 20>                          ****END OF INPUT****
================================================================================

                     *******************************
                     * Energy+Gradient Calculation *
                     *******************************

---------------------------------
CARTESIAN COORDINATES (ANGSTROEM)
---------------------------------
  O     -0.751970    1.014534   -0.059522
  C     -0.698397   -0.425290   -0.062856
  C      0.656198   -0.533613    0.059234
  H     -1.179956   -0.685545    0.947180
  H     -1.301479   -0.705628   -0.992168
  H      1.164645   -0.621514   -0.837337
  H      1.206498   -0.681067    0.911323

----------------------------
CARTESIAN COORDINATES (A.U.)
----------------------------
  NO LB      ZA    FRAG     MASS         X           Y           Z
   0 O     8.0000    0    15.999   -1.421017    1.917192   -0.112480
   1 C     6.0000    0    12.011   -1.319778   -0.803682   -0.118780
   2 C     6.0000    0    12.011    1.240034   -1.008383    0.111936
   3 H     1.0000    0     1.008   -2.229793   -1.295493    1.789912
   4 H     1.0000    0     1.008   -2.459439   -1.333444   -1.874925
   5 H     1.0000    0     1.008    2.200860   -1.174491   -1.582337
   6 H     1.0000    0     1.008    2.279950   -1.287029    1.722150

--------------------------------
INTERNAL COORDINATES (ANGSTROEM)
--------------------------------
 O      0   0   0     0.000000000000     0.00000000     0.00000000
 C      1   0   0     1.440824794355     0.00000000     0.00000000
 C      2   1   0     1.364392041937    96.66395036     0.00000000
 H      2   1   3     1.148827469442   102.04983127   110.72404671
 H      2   1   3     1.142767843294   103.14424042   231.38481386
 H      3   2   1     1.034448684733   114.65640665   266.39338631
 H      3   2   1     1.025001116964   128.23080829    96.62272579

---------------------------
INTERNAL COORDINATES (A.U.)
---------------------------
 O      0   0   0     0.000000000000     0.00000000     0.00000000
 C      1   0   0     2.722764268295     0.00000000     0.00000000
 C      2   1   0     2.578327298563    96.66395036     0.00000000
 H      2   1   3     2.170969292372   102.04983127   110.72404671
 H      2   1   3     2.159518258478   103.14424042   231.38481386
 H      3   2   1     1.954824713740   114.65640665   266.39338631
 H      3   2   1     1.936971398025   128.23080829    96.62272579

---------------------
BASIS SET INFORMATION
---------------------
There are 3 groups of distinct atoms

 Group   1 Type O   : 11s6p2d1f contracted to 5s3p2d1f pattern {62111/411/11/1}
 Group   2 Type C   : 11s6p2d1f contracted to 5s3p2d1f pattern {62111/411/11/1}
 Group   3 Type H   : 5s1p contracted to 3s1p pattern {311/1}

Atom   0O    basis set group =>   1
Atom   1C    basis set group =>   2
Atom   2C    basis set group =>   2
Atom   3H    basis set group =>   3
Atom   4H    basis set group =>   3
Atom   5H    basis set group =>   3
Atom   6H    basis set group =>   3
---------------------------------
AUXILIARY/J BASIS SET INFORMATION
---------------------------------
There are 3 groups of distinct atoms

 Group   1 Type O   : 12s5p4d2f1g contracted to 6s4p3d1f1g pattern {711111/2111/211/2/1}
 Group   2 Type C   : 12s5p4d2f1g contracted to 6s4p3d1f1g pattern {711111/2111/211/2/1}
 Group   3 Type H   : 5s2p1d contracted to 3s1p1d pattern {311/2/1}

Atom   0O    basis set group =>   1
Atom   1C    basis set group =>   2
Atom   2C    basis set group =>   2
Atom   3H    basis set group =>   3
Atom   4H    basis set group =>   3
Atom   5H    basis set group =>   3
Atom   6H    basis set group =>   3

Checking for AutoStart:
The File: ox_es1_D_orca0001.gbw exists
Trying to determine its content:
     ... Fine, the file contains calculation information
     ... Fine, the calculation information was read
     ... Fine, the file contains a basis set
     ... Fine, the basis set was read
     ... Fine, the file contains a geometry
     ... Fine, the geometry was read
     ... Fine, the file contains a set of orbitals
     ... Fine, the orbitals can be read
     => possible old guess file was deleted
     => GBW file was renamed to GES file
     => GES file is set as startup file
     => Guess is set to MORead
     ... now leaving AutoStart



           ************************************************************
           *        Program running with 8 parallel MPI-processes     *
           *              working on a common directory               *
           ************************************************************
------------------------------------------------------------------------------
                           ORCA GTO INTEGRAL CALCULATION
                           -- RI-GTO INTEGRALS CHOSEN --
------------------------------------------------------------------------------
------------------------------------------------------------------------------
                   ___                                                        
                  /   \      - P O W E R E D   B Y -                         
                 /     \                                                     
                 |  |  |   _    _      __       _____    __    __             
                 |  |  |  | |  | |    /  \     |  _  \  |  |  /  |          
                  \  \/   | |  | |   /    \    | | | |  |  | /  /          
                 / \  \   | |__| |  /  /\  \   | |_| |  |  |/  /          
                |  |  |   |  __  | /  /__\  \  |    /   |      \           
                |  |  |   | |  | | |   __   |  |    \   |  |\   \          
                \     /   | |  | | |  |  |  |  | |\  \  |  | \   \       
                 \___/    |_|  |_| |__|  |__|  |_| \__\ |__|  \__/        
                                                                              
                      - O R C A' S   B I G   F R I E N D -                    
                                      &                                       
                       - I N T E G R A L  F E E D E R -                       
                                                                              
 v1 FN, 2020, v2 2021                                                         
------------------------------------------------------------------------------


Reading SHARK input file ox_es1_D_orca0001.SHARKINP.tmp ... ok
----------------------
SHARK INTEGRAL PACKAGE
----------------------

Number of atoms                             ...      7
Number of basis functions                   ...    117
Number of shells                            ...     49
Maximum angular momentum                    ...      3
Integral batch strategy                     ... SHARK/LIBINT Hybrid
RI-J (if used) integral strategy            ... SPLIT-RIJ (Revised 2003 algorithm where possible)
Printlevel                                  ...      1
Contraction scheme used                     ... SEGMENTED contraction
Coulomb Range Separation                    ... NOT USED
Exchange Range Separation                   ... NOT USED
Finite Nucleus Model                        ... NOT USED
Auxiliary Coulomb fitting basis             ... AVAILABLE
   # of basis functions in Aux-J            ...    191
   # of shells in Aux-J                     ...     65
   Maximum angular momentum in Aux-J        ...      4
Auxiliary J/K fitting basis                 ... NOT available
Auxiliary Correlation fitting basis         ... NOT available
Auxiliary 'external' fitting basis          ... NOT available
Integral threshold                          ...     2.500000e-11
Primitive cut-off                           ...     2.500000e-12
Primitive pair pre-selection threshold      ...     2.500000e-12

Calculating pre-screening integrals         ... done (  0.0 sec) Dimension = 49
Organizing shell pair data                  ... done (  0.0 sec)
Shell pair information
Total number of shell pairs                 ...      1225
Shell pairs after pre-screening             ...      1214
Total number of primitive shell pairs       ...      3648
Primitive shell pairs kept                  ...      3095
          la=0 lb=0:    368 shell pairs
          la=1 lb=0:    351 shell pairs
          la=1 lb=1:     91 shell pairs
          la=2 lb=0:    161 shell pairs
          la=2 lb=1:     78 shell pairs
          la=2 lb=2:     21 shell pairs
          la=3 lb=0:     81 shell pairs
          la=3 lb=1:     39 shell pairs
          la=3 lb=2:     18 shell pairs
          la=3 lb=3:      6 shell pairs

Calculating one electron integrals          ... done (  0.0 sec)
Calculating RI/J V-Matrix + Cholesky decomp.... done (  0.0 sec)
Calculating Nuclear repulsion               ... done (  0.0 sec) ENN=     70.105885537268 Eh

SHARK setup successfully completed in   0.1 seconds

Maximum memory used throughout the entire GTOINT-calculation: 14.9 MB


           ************************************************************
           *        Program running with 8 parallel MPI-processes     *
           *              working on a common directory               *
           ************************************************************
-------------------------------------------------------------------------------
                                 ORCA SCF
-------------------------------------------------------------------------------

------------
SCF SETTINGS
------------
Hamiltonian:
 Density Functional     Method          .... DFT(GTOs)
 Exchange Functional    Exchange        .... PBE
   PBE kappa parameter   XKappa         ....  0.804000
   PBE mue parameter    XMuePBE         ....  0.219520
 Correlation Functional Correlation     .... PBE
   PBE beta parameter  CBetaPBE         ....  0.066725
 LDA part of GGA corr.  LDAOpt          .... PW91-LDA
 Gradients option       PostSCFGGA      .... off
 Hybrid DFT is turned on
   Fraction HF Exchange ScalHFX         ....  0.250000
   Scaling of DF-GGA-X  ScalDFX         ....  0.750000
   Scaling of DF-GGA-C  ScalDFC         ....  1.000000
   Scaling of DF-LDA-C  ScalLDAC        ....  1.000000
   Perturbative correction              ....  0.000000
   Density functional embedding theory  .... OFF
   NL short-range parameter             ....  6.900000
 RI-approximation to the Coulomb term is turned on
   Number of AuxJ basis functions       .... 191
   RIJ-COSX (HFX calculated with COS-X)).... on


General Settings:
 Integral files         IntName         .... ox_es1_D_orca0001
 Hartree-Fock type      HFTyp           .... RHF
 Total Charge           Charge          ....    0
 Multiplicity           Mult            ....    1
 Number of Electrons    NEL             ....   24
 Basis Dimension        Dim             ....  117
 Nuclear Repulsion      ENuc            ....     70.1058855373 Eh

Convergence Acceleration:
 DIIS                   CNVDIIS         .... on
   Start iteration      DIISMaxIt       ....    12
   Startup error        DIISStart       ....  0.200000
   # of expansion vecs  DIISMaxEq       ....     5
   Bias factor          DIISBfac        ....   1.050
   Max. coefficient     DIISMaxC        ....  10.000
 Trust-Rad. Augm. Hess. CNVTRAH         .... auto
   Auto Start mean grad. ratio tolernc. ....  1.125000
   Auto Start start iteration           ....     1
   Auto Start num. interpolation iter.  ....    10
   Max. Number of Micro iterations      ....    16
   Max. Number of Macro iterations      .... Maxiter - #DIIS iter
   Number of Davidson start vectors     ....     2
   Converg. threshold I  (grad. norm)   ....   1.000e-05
   Converg. threshold II (energy diff.) ....   1.000e-08
   Grad. Scal. Fac. for Micro threshold ....   0.100
   Minimum threshold for Micro iter.    ....   0.010
   NR start threshold (gradient norm)   ....   0.001
   Initial trust radius                 ....   0.400
   Minimum AH scaling param. (alpha)    ....   1.000
   Maximum AH scaling param. (alpha)    .... 1000.000
   Orbital update algorithm             .... Taylor
   White noise on init. David. guess    .... on
   Maximum white noise                  ....   0.010
   Quad. conv. algorithm                .... NR
 SOSCF                  CNVSOSCF        .... on
   Start iteration      SOSCFMaxIt      ....   150
   Startup grad/error   SOSCFStart      ....  0.003300
 Level Shifting         CNVShift        .... on
   Level shift para.    LevelShift      ....    0.2500
   Turn off err/grad.   ShiftErr        ....    0.0010
 Zerner damping         CNVZerner       .... off
 Static damping         CNVDamp         .... on
   Fraction old density DampFac         ....    0.7000
   Max. Damping (<1)    DampMax         ....    0.9800
   Min. Damping (>=0)   DampMin         ....    0.0000
   Turn off err/grad.   DampErr         ....    0.1000
 Fernandez-Rico         CNVRico         .... off

SCF Procedure:
 Maximum # iterations   MaxIter         ....   125
 SCF integral mode      SCFMode         .... Direct
   Integral package                     .... SHARK and LIBINT hybrid scheme
 Reset frequency        DirectResetFreq ....    20
 Integral Threshold     Thresh          ....  2.500e-11 Eh
 Primitive CutOff       TCut            ....  2.500e-12 Eh

Convergence Tolerance:
 Convergence Check Mode ConvCheckMode   .... Total+1el-Energy
 Convergence forced     ConvForced      .... 1
 Energy Change          TolE            ....  1.000e-08 Eh
 1-El. energy change                    ....  1.000e-05 Eh
 Orbital Gradient       TolG            ....  1.000e-05
 Orbital Rotation angle TolX            ....  1.000e-05
 DIIS Error             TolErr          ....  5.000e-07


Diagonalization of the overlap matrix:
Smallest eigenvalue                        ... 2.427e-04
Time for diagonalization                   ...    0.002 sec
Threshold for overlap eigenvalues          ... 1.000e-08
Number of eigenvalues below threshold      ... 0
Time for construction of square roots      ...    0.001 sec
Total time needed                          ...    0.003 sec

---------------------
INITIAL GUESS: MOREAD
---------------------
Guess MOs are being read from file: ox_es1_D_orca0001.ges
Input Geometry matches current geometry (good)
Input basis set matches current basis set (good)
MOs were renormalized
MOs were reorthogonalized (Cholesky)
                      ------------------
                      INITIAL GUESS DONE (   0.0 sec)
                      ------------------
-------------------
DFT GRID GENERATION
-------------------

General Integration Accuracy     IntAcc      ... 4.388
Radial Grid Type                 RadialGrid  ... OptM3 with GC (2021)
Angular Grid (max. ang.)         AngularGrid ... 4 (Lebedev-302)
Angular grid pruning method      GridPruning ... 4 (adaptive)
Weight generation scheme         WeightScheme... Becke
Basis function cutoff            BFCut       ... 1.0000e-11
Integration weight cutoff        WCut        ... 1.0000e-14
Angular grids for H and He will be reduced by one unit
Partially contracted basis set               ... off
Rotationally invariant grid construction     ... off

Total number of grid points                  ...    31313
Total number of batches                      ...      494
Average number of points per batch           ...       63
Average number of grid points per atom       ...     4473
Time for grid setup =    0.120 sec

--------------------
COSX GRID GENERATION
--------------------

GRIDX 1
-------
General Integration Accuracy     IntAcc      ... 3.816
Radial Grid Type                 RadialGrid  ... OptM3 with GC (2021)
Angular Grid (max. ang.)         AngularGrid ... 1 (Lebedev-50)
Angular grid pruning method      GridPruning ... 4 (adaptive)
Weight generation scheme         WeightScheme... Becke
Basis function cutoff            BFCut       ... 1.0000e-11
Integration weight cutoff        WCut        ... 1.0000e-14
Angular grids for H and He will be reduced by one unit
Partially contracted basis set               ... on
Rotationally invariant grid construction     ... off

Total number of grid points                  ...     4031
Total number of batches                      ...       68
Average number of points per batch           ...       59
Average number of grid points per atom       ...      576
UseSFitting                                  ... on

GRIDX 2
-------
General Integration Accuracy     IntAcc      ... 4.020
Radial Grid Type                 RadialGrid  ... OptM3 with GC (2021)
Angular Grid (max. ang.)         AngularGrid ... 2 (Lebedev-110)
Angular grid pruning method      GridPruning ... 4 (adaptive)
Weight generation scheme         WeightScheme... Becke
Basis function cutoff            BFCut       ... 1.0000e-11
Integration weight cutoff        WCut        ... 1.0000e-14
Angular grids for H and He will be reduced by one unit
Partially contracted basis set               ... on
Rotationally invariant grid construction     ... off

Total number of grid points                  ...     8713
Total number of batches                      ...      141
Average number of points per batch           ...       61
Average number of grid points per atom       ...     1245
UseSFitting                                  ... on

GRIDX 3
-------
General Integration Accuracy     IntAcc      ... 4.338
Radial Grid Type                 RadialGrid  ... OptM3 with GC (2021)
Angular Grid (max. ang.)         AngularGrid ... 3 (Lebedev-194)
Angular grid pruning method      GridPruning ... 4 (adaptive)
Weight generation scheme         WeightScheme... Becke
Basis function cutoff            BFCut       ... 1.0000e-11
Integration weight cutoff        WCut        ... 1.0000e-14
Angular grids for H and He will be reduced by one unit
Partially contracted basis set               ... on
Rotationally invariant grid construction     ... off

Total number of grid points                  ...    19226
Total number of batches                      ...      303
Average number of points per batch           ...       63
Average number of grid points per atom       ...     2747
UseSFitting                                  ... on

Time for X-Grid setup             =    0.074 sec

--------------
SCF ITERATIONS
--------------
ITER       Energy         Delta-E        Max-DP      RMS-DP      [F,P]     Damp
               ***  Starting incremental Fock matrix formation  ***
                      *** Initiating the SOSCF procedure ***
                      *** Re-Reading the Fockian *** 
                      *** Removing any level shift *** 
ITER      Energy       Delta-E        Grad      Rot      Max-DP    RMS-DP
  0   -153.56100398 -153.5610039778  0.000002  0.000002  0.000004  0.000000
               *** Restarting incremental Fock matrix formation ***
                  ***Gradient check signals convergence***
              ***Rediagonalizing the Fockian in SOSCF/NRSCF***

               *****************************************************
               *                     SUCCESS                       *
               *           SCF CONVERGED AFTER   1 CYCLES          *
               *****************************************************

Old exchange energy                            =     -4.971167356 Eh
New exchange energy                            =     -4.971168947 Eh
Exchange energy change after final integration =     -0.000001591 Eh
Total energy after final integration           =   -153.561005569 Eh
Final COS-X integration done in                =     0.280 sec

----------------
TOTAL SCF ENERGY
----------------

Total Energy       :         -153.56100557 Eh           -4178.60740 eV

Components:
Nuclear Repulsion  :           70.10588554 Eh            1907.67813 eV
Electronic Energy  :         -223.66689111 Eh           -6086.28553 eV
One Electron Energy:         -346.95503966 Eh           -9441.12661 eV
Two Electron Energy:          123.28814855 Eh            3354.84108 eV
Max COSX asymmetry :            0.00000127 Eh               0.00003 eV

Virial components:
Potential Energy   :         -306.54052775 Eh           -8341.39183 eV
Kinetic Energy     :          152.97952218 Eh            4162.78443 eV
Virial Ratio       :            2.00380105


DFT components:
N(Alpha)           :       12.000009753695 electrons
N(Beta)            :       12.000009753695 electrons
N(Total)           :       24.000019507390 electrons
E(X)               :      -14.917724312765 Eh       
E(C)               :       -0.774823539847 Eh       
E(XC)              :      -15.692547852612 Eh       
DFET-embed. en.    :        0.000000000000 Eh       

---------------
SCF CONVERGENCE
---------------

  Last Energy change         ...   -1.1227e-11  Tolerance :   1.0000e-08
  Last MAX-Density change    ...    7.7716e-16  Tolerance :   1.0000e-07
  Last RMS-Density change    ...    2.0546e-17  Tolerance :   5.0000e-09
  Last Orbital Gradient      ...    1.0687e-06  Tolerance :   1.0000e-05
  Last Orbital Rotation      ...    6.6639e-06  Tolerance :   1.0000e-05

             **** THE GBW FILE WAS UPDATED (ox_es1_D_orca0001.gbw) ****
             **** DENSITY ox_es1_D_orca0001.scfp WAS UPDATED ****
             **** ENERGY FILE WAS UPDATED (ox_es1_D_orca0001.en.tmp) ****
             **** THE GBW FILE WAS UPDATED (ox_es1_D_orca0001.gbw) ****
             **** DENSITY ox_es1_D_orca0001.scfp WAS UPDATED ****
----------------
ORBITAL ENERGIES
----------------

  NO   OCC          E(Eh)            E(eV) 
   0   2.0000     -19.202512      -522.5269 
   1   2.0000     -10.300266      -280.2845 
   2   2.0000     -10.275349      -279.6065 
   3   2.0000      -0.996462       -27.1151 
   4   2.0000      -0.795339       -21.6423 
   5   2.0000      -0.628231       -17.0950 
   6   2.0000      -0.538753       -14.6602 
   7   2.0000      -0.491949       -13.3866 
   8   2.0000      -0.410980       -11.1833 
   9   2.0000      -0.403282       -10.9739 
  10   2.0000      -0.283483        -7.7140 
  11   2.0000      -0.259337        -7.0569 
  12   0.0000      -0.123115        -3.3501 
  13   0.0000       0.056891         1.5481 
  14   0.0000       0.078098         2.1252 
  15   0.0000       0.089295         2.4299 
  16   0.0000       0.130322         3.5463 
  17   0.0000       0.144912         3.9432 
  18   0.0000       0.184555         5.0220 
  19   0.0000       0.213417         5.8074 
  20   0.0000       0.226704         6.1689 
  21   0.0000       0.251629         6.8472 
  22   0.0000       0.271611         7.3909 
  23   0.0000       0.340841         9.2747 
  24   0.0000       0.375976        10.2308 
  25   0.0000       0.399529        10.8717 
  26   0.0000       0.425380        11.5752 
  27   0.0000       0.431693        11.7470 
  28   0.0000       0.459019        12.4905 
  29   0.0000       0.503060        13.6890 
  30   0.0000       0.516888        14.0652 
  31   0.0000       0.539843        14.6899 
  32   0.0000       0.570913        15.5353 
  33   0.0000       0.611883        16.6502 
  34   0.0000       0.629162        17.1204 
  35   0.0000       0.755119        20.5478 
  36   0.0000       0.806690        21.9512 
  37   0.0000       0.851630        23.1740 
  38   0.0000       0.862942        23.4819 
  39   0.0000       0.925508        25.1844 
  40   0.0000       0.943867        25.6839 
  41   0.0000       1.060399        28.8549 
  42   0.0000       1.065548        28.9950 
  43   0.0000       1.088904        29.6306 
  44   0.0000       1.214012        33.0349 
  45   0.0000       1.322822        35.9958 
  46   0.0000       1.391503        37.8647 
  47   0.0000       1.478538        40.2331 
  48   0.0000       1.499672        40.8081 
  49   0.0000       1.549150        42.1545 
  50   0.0000       1.583035        43.0766 
  51   0.0000       1.595775        43.4232 
  52   0.0000       1.657101        45.0920 
  53   0.0000       1.694593        46.1122 
  54   0.0000       1.734378        47.1948 
  55   0.0000       1.784528        48.5595 
  56   0.0000       1.806585        49.1597 
  57   0.0000       1.831909        49.8488 
  58   0.0000       1.890601        51.4459 
  59   0.0000       1.930547        52.5328 
  60   0.0000       2.001052        54.4514 
  61   0.0000       2.128207        57.9115 
  62   0.0000       2.182109        59.3782 
  63   0.0000       2.224800        60.5399 
  64   0.0000       2.300245        62.5928 
  65   0.0000       2.347832        63.8878 
  66   0.0000       2.375485        64.6402 
  67   0.0000       2.465481        67.0891 
  68   0.0000       2.482181        67.5436 
  69   0.0000       2.572862        70.0111 
  70   0.0000       2.587975        70.4224 
  71   0.0000       2.604378        70.8687 
  72   0.0000       2.681806        72.9757 
  73   0.0000       2.720164        74.0194 
  74   0.0000       2.817800        76.6762 
  75   0.0000       2.827974        76.9531 
  76   0.0000       2.858019        77.7706 
  77   0.0000       2.913648        79.2844 
  78   0.0000       2.952351        80.3375 
  79   0.0000       2.995539        81.5128 
  80   0.0000       3.039393        82.7061 
  81   0.0000       3.099346        84.3375 
  82   0.0000       3.129929        85.1697 
  83   0.0000       3.149436        85.7005 
  84   0.0000       3.179834        86.5277 
  85   0.0000       3.215718        87.5041 
  86   0.0000       3.374976        91.8378 
  87   0.0000       3.450141        93.8831 
  88   0.0000       3.469323        94.4051 
  89   0.0000       3.478186        94.6463 
  90   0.0000       3.586629        97.5971 
  91   0.0000       3.700056       100.6836 
  92   0.0000       3.774293       102.7037 
  93   0.0000       3.943697       107.3134 
  94   0.0000       4.032120       109.7196 
  95   0.0000       4.193897       114.1217 
  96   0.0000       4.220835       114.8548 
  97   0.0000       4.271022       116.2204 
  98   0.0000       4.468731       121.6003 
  99   0.0000       4.613477       125.5391 
 100   0.0000       4.629698       125.9805 
 101   0.0000       4.801220       130.6478 
 102   0.0000       5.211976       141.8251 
 103   0.0000       5.265129       143.2714 
 104   0.0000       5.365341       145.9983 
 105   0.0000       5.375966       146.2875 
 106   0.0000       5.731268       155.9557 
 107   0.0000       5.775791       157.1673 
 108   0.0000       5.925502       161.2411 
 109   0.0000       6.385909       173.7694 
 110   0.0000       6.426843       174.8833 
 111   0.0000       6.780205       184.4988 
 112   0.0000       6.800493       185.0508 
 113   0.0000       6.965226       189.5334 
 114   0.0000      22.179145       603.5252 
 115   0.0000      22.619489       615.5076 
 116   0.0000      43.748824      1190.4660 

                    ********************************
                    * MULLIKEN POPULATION ANALYSIS *
                    ********************************

-----------------------
MULLIKEN ATOMIC CHARGES
-----------------------
   0 O :   -0.380546
   1 C :   -0.007735
   2 C :   -0.110945
   3 H :    0.075056
   4 H :    0.108576
   5 H :    0.147531
   6 H :    0.168063
Sum of atomic charges:   -0.0000000

--------------------------------
MULLIKEN REDUCED ORBITAL CHARGES
--------------------------------
  0 O s       :     3.916089  s :     3.916089
      pz      :     1.899446  p :     4.440581
      px      :     1.318016
      py      :     1.223119
      dz2     :     0.003226  d :     0.022658
      dxz     :     0.000235
      dyz     :     0.004806
      dx2y2   :     0.008307
      dxy     :     0.006084
      f0      :     0.000133  f :     0.001218
      f+1     :     0.000054
      f-1     :     0.000300
      f+2     :     0.000142
      f-2     :     0.000023
      f+3     :     0.000251
      f-3     :     0.000316
  1 C s       :     3.170265  s :     3.170265
      pz      :     1.021110  p :     2.668223
      px      :     0.917921
      py      :     0.729192
      dz2     :     0.010736  d :     0.159578
      dxz     :     0.020963
      dyz     :     0.047347
      dx2y2   :     0.022300
      dxy     :     0.058232
      f0      :     0.001768  f :     0.009669
      f+1     :     0.001086
      f-1     :     0.000773
      f+2     :     0.003054
      f-2     :     0.000103
      f+3     :     0.001641
      f-3     :     0.001243
  2 C s       :     3.268464  s :     3.268464
      pz      :     1.072158  p :     2.776941
      px      :     1.015644
      py      :     0.689138
      dz2     :     0.005231  d :     0.060221
      dxz     :     0.029564
      dyz     :     0.004742
      dx2y2   :     0.007497
      dxy     :     0.013186
      f0      :     0.000606  f :     0.005319
      f+1     :     0.001137
      f-1     :     0.000087
      f+2     :     0.000971
      f-2     :     0.000244
      f+3     :     0.000860
      f-3     :     0.001414
  3 H s       :     0.905885  s :     0.905885
      pz      :     0.010488  p :     0.019059
      px      :     0.004955
      py      :     0.003617
  4 H s       :     0.872171  s :     0.872171
      pz      :     0.009505  p :     0.019252
      px      :     0.006138
      py      :     0.003609
  5 H s       :     0.828844  s :     0.828844
      pz      :     0.012263  p :     0.023626
      px      :     0.007231
      py      :     0.004132
  6 H s       :     0.808200  s :     0.808200
      pz      :     0.011573  p :     0.023737
      px      :     0.007836
      py      :     0.004328


                     *******************************
                     * LOEWDIN POPULATION ANALYSIS *
                     *******************************

----------------------
LOEWDIN ATOMIC CHARGES
----------------------
   0 O :   -0.067742
   1 C :   -0.450100
   2 C :    0.010525
   3 H :    0.132831
   4 H :    0.131949
   5 H :    0.124624
   6 H :    0.117914

-------------------------------
LOEWDIN REDUCED ORBITAL CHARGES
-------------------------------
  0 O s       :     3.578690  s :     3.578690
      pz      :     1.833930  p :     4.436095
      px      :     1.265059
      py      :     1.337106
      dz2     :     0.006712  d :     0.049674
      dxz     :     0.000211
      dyz     :     0.012209
      dx2y2   :     0.017454
      dxy     :     0.013088
      f0      :     0.000316  f :     0.003283
      f+1     :     0.000081
      f-1     :     0.000569
      f+2     :     0.000600
      f-2     :     0.000014
      f+3     :     0.000953
      f-3     :     0.000750
  1 C s       :     2.817795  s :     2.817795
      pz      :     1.021035  p :     2.929530
      px      :     1.077125
      py      :     0.831370
      dz2     :     0.069507  d :     0.630624
      dxz     :     0.120117
      dyz     :     0.127129
      dx2y2   :     0.132311
      dxy     :     0.181561
      f0      :     0.011931  f :     0.072152
      f+1     :     0.006285
      f-1     :     0.007132
      f+2     :     0.017169
      f-2     :     0.001963
      f+3     :     0.012830
      f-3     :     0.014842
  2 C s       :     2.860144  s :     2.860144
      pz      :     1.065662  p :     2.824018
      px      :     1.137427
      py      :     0.620928
      dz2     :     0.032286  d :     0.273355
      dxz     :     0.140687
      dyz     :     0.008775
      dx2y2   :     0.044129
      dxy     :     0.047477
      f0      :     0.004887  f :     0.031959
      f+1     :     0.005316
      f-1     :     0.001006
      f+2     :     0.006403
      f-2     :     0.000857
      f+3     :     0.005572
      f-3     :     0.007918
  3 H s       :     0.817222  s :     0.817222
      pz      :     0.028131  p :     0.049948
      px      :     0.012521
      py      :     0.009296
  4 H s       :     0.816014  s :     0.816014
      pz      :     0.026928  p :     0.052037
      px      :     0.015447
      py      :     0.009661
  5 H s       :     0.804219  s :     0.804219
      pz      :     0.037721  p :     0.071157
      px      :     0.021609
      py      :     0.011826
  6 H s       :     0.808626  s :     0.808626
      pz      :     0.037174  p :     0.073460
      px      :     0.023577
      py      :     0.012709


                      *****************************
                      * MAYER POPULATION ANALYSIS *
                      *****************************

  NA   - Mulliken gross atomic population
  ZA   - Total nuclear charge
  QA   - Mulliken gross atomic charge
  VA   - Mayer's total valence
  BVA  - Mayer's bonded valence
  FA   - Mayer's free valence

  ATOM       NA         ZA         QA         VA         BVA        FA
  0 O      8.3805     8.0000    -0.3805     1.8265     1.8265    -0.0000
  1 C      6.0077     6.0000    -0.0077     4.0729     4.0729     0.0000
  2 C      6.1109     6.0000    -0.1109     3.8442     3.8442     0.0000
  3 H      0.9249     1.0000     0.0751     0.9579     0.9579    -0.0000
  4 H      0.8914     1.0000     0.1086     0.9534     0.9534    -0.0000
  5 H      0.8525     1.0000     0.1475     0.9613     0.9613    -0.0000
  6 H      0.8319     1.0000     0.1681     0.9517     0.9517     0.0000

  Mayer bond orders larger than 0.100000
B(  0-O ,  1-C ) :   1.0326 B(  0-O ,  2-C ) :   0.7856 B(  1-C ,  2-C ) :   1.1434 
B(  1-C ,  3-H ) :   0.9456 B(  1-C ,  4-H ) :   0.9466 B(  2-C ,  5-H ) :   0.9510 
B(  2-C ,  6-H ) :   0.9439 

-------
TIMINGS
-------

Total SCF time: 0 days 0 hours 0 min 1 sec 

Total time                  ....       1.050 sec
Sum of individual times     ....       0.957 sec  ( 91.1%)

Fock matrix formation       ....       0.749 sec  ( 71.3%)
  Split-RI-J                ....       0.119 sec  ( 15.9% of F)
  Chain of spheres X        ....       0.558 sec  ( 74.5% of F)
  XC integration            ....       0.069 sec  (  9.3% of F)
    Basis function eval.    ....       0.020 sec  ( 28.5% of XC)
    Density eval.           ....       0.015 sec  ( 22.1% of XC)
    XC-Functional eval.     ....       0.004 sec  (  5.8% of XC)
    XC-Potential eval.      ....       0.024 sec  ( 34.1% of XC)
Diagonalization             ....       0.003 sec  (  0.2%)
Density matrix formation    ....       0.000 sec  (  0.0%)
Population analysis         ....       0.003 sec  (  0.2%)
Initial guess               ....       0.005 sec  (  0.5%)
Orbital Transformation      ....       0.000 sec  (  0.0%)
Orbital Orthonormalization  ....       0.001 sec  (  0.1%)
DIIS solution               ....       0.001 sec  (  0.1%)
SOSCF solution              ....       0.002 sec  (  0.2%)
Grid generation             ....       0.193 sec  ( 18.4%)

Maximum memory used throughout the entire SCF-calculation: 61.1 MB


           ************************************************************
           *        Program running with 8 parallel MPI-processes     *
           *              working on a common directory               *
           ************************************************************
------------------------------------------------------------------------------
                        ORCA TD-DFT/TDA CALCULATION
------------------------------------------------------------------------------

Input orbitals are from        ... ox_es1_D_orca0001.gbw
CI-vector output               ... ox_es1_D_orca0001.cis
Tamm-Dancoff approximation     ... operative
CIS-Integral strategy          ... AO-integrals
Integral handling              ... AO integral Direct
Max. core memory used          ... 3000 MB
Reference state                ... RHF
Generation of triplets         ... off
Follow IRoot                   ... off
Number of operators            ... 1
Orbital ranges used for CIS calculation:
 Operator 0:  Orbitals   3... 11  to  12...116
XAS localization array:
 Operator 0:  Orbitals  -1... -1

-------------------
XC-INTEGRATION GRID
-------------------

General Integration Accuracy     IntAcc      ... 3.467
Radial Grid Type                 RadialGrid  ... OptM3 with GC (2021)
Angular Grid (max. ang.)         AngularGrid ... 1 (Lebedev-50)
Angular grid pruning method      GridPruning ... 4 (adaptive)
Weight generation scheme         WeightScheme... Becke
Basis function cutoff            BFCut       ... 1.0000e-11
Integration weight cutoff        WCut        ... 1.0000e-14
Angular grids for H and He will be reduced by one unit
Partially contracted basis set               ... off
Rotationally invariant grid construction     ... off

Total number of grid points                  ...     4534
Total number of batches                      ...       74
Average number of points per batch           ...       61
Average number of grid points per atom       ...      648

---------------------
COSX-INTEGRATION GRID
---------------------

General Integration Accuracy     IntAcc      ... 3.067
Radial Grid Type                 RadialGrid  ... OptM3 with GC (2021)
Angular Grid (max. ang.)         AngularGrid ... 1 (Lebedev-50)
Angular grid pruning method      GridPruning ... 4 (adaptive)
Weight generation scheme         WeightScheme... Becke
Basis function cutoff            BFCut       ... 1.0000e-11
Integration weight cutoff        WCut        ... 1.0000e-14
Angular grids for H and He will be reduced by one unit
Partially contracted basis set               ... on
Rotationally invariant grid construction     ... off

Total number of grid points                  ...     2083
Total number of batches                      ...       38
Average number of points per batch           ...       54
Average number of grid points per atom       ...      298

---------------
TD-DFT XC SETUP
---------------

DFT calculation                         ... on
Name of the grid file                   ... ox_es1_D_orca0001.grid_cis.tmp
Exchange functional (TD-DFT)            ... PBE
   PBE kappa parameter  XKappa (TD-DFT) ...  0.804000
   PBE mue parameter   XMuePBE (TD-DFT) ...  0.219520
Correlation functional (TD-DFT)         ... PBE
   PBE beta parameter CBetaPBE (TD-DFT) ...  0.066725
 LDA part of GGA corr.  LDAOpt (TD-DFT) ... PW91-LDA
Hybrid DFT                              ... on
   Exchange mixing (TD-DFT)             ...  0.250
   GGA exch. scaling (TD-DFT)           ...  0.750
   GGA corr. scaling (TD-DFT)           ...  1.000

Building densities             ... done
Calculating rho(r) on the grid ... done
Building xc-kernel on the grid ... done
                    *** TD-DFT CALCULATION INITIALIZED ***

------------------------
DAVIDSON-DIAGONALIZATION
------------------------

Dimension of the eigenvalue problem            ...    945
Number of roots to be determined               ...      1
Maximum size of the expansion space            ...     10
Maximum number of iterations                   ...    100
Convergence tolerance for the residual         ...    2.500e-07
Convergence tolerance for the energies         ...    2.500e-07
Orthogonality tolerance                        ...    1.000e-14
Level Shift                                    ...    0.000e+00
Constructing the preconditioner                ... o.k.
Building the initial guess                     ... o.k.
Number of trial vectors determined             ...     10


                       ****Iteration    0****

   Memory handling for direct AO based CIS:
   Memory per vector needed      ...     1 MB
   Memory needed                 ...     1 MB
   Memory available              ...  3000 MB
   Number of vectors per batch   ...  3000
   Number of batches             ...     1
   Time for densities:            0.000
   Time for RI-J (Direct):        0.017
   Time for K (COSX):             0.063
   Time for XC-Integration:       0.017
   Time for Sigma-Completion:     0.000
   Size of expansion space: 3
   Lowest Energy          :     0.054678985734
   Maximum Energy change  :     0.054678985734 (vector 0)
   Maximum residual norm  :     0.002693688480

                       ****Iteration    1****
   Time for densities:            0.000
   Time for RI-J (Direct):        0.014
   Time for K (COSX):             0.058
   Time for XC-Integration:       0.007
   Time for Sigma-Completion:     0.000
   Size of expansion space: 4
   Lowest Energy          :     0.052829471890
   Maximum Energy change  :     0.001849513845 (vector 0)
   Maximum residual norm  :     0.000045750847

                       ****Iteration    2****
   Time for densities:            0.000
   Time for RI-J (Direct):        0.014
   Time for K (COSX):             0.058
   Time for XC-Integration:       0.007
   Time for Sigma-Completion:     0.000
   Size of expansion space: 5
   Lowest Energy          :     0.052793008411
   Maximum Energy change  :     0.000036463478 (vector 0)
   Maximum residual norm  :     0.000001874214

                       ****Iteration    3****
   Time for densities:            0.000
   Time for RI-J (Direct):        0.014
   Time for K (COSX):             0.059
   Time for XC-Integration:       0.008
   Time for Sigma-Completion:     0.000
   Size of expansion space: 6
   Lowest Energy          :     0.052791085476
   Maximum Energy change  :     0.000001922935 (vector 0)
   Maximum residual norm  :     0.000000136468

      *** CONVERGENCE OF RESIDUAL NORM REACHED ***

Storing the converged CI vectors               ... ox_es1_D_orca0001.cis1

                 *** DAVIDSON DONE ***

Total time for solving the CIS problem:     0.343sec

------------------------------------
TD-DFT/TDA EXCITED STATES (SINGLETS)
------------------------------------

the weight of the individual excitations are printed if larger than 1.0e-02

STATE  1:  E=   0.052791 au      1.437 eV    11586.3 cm**-1 <S**2> =   0.000000
    11a ->  12a  :     0.990859 (c=  0.99541881)


-----------------------------
TD-DFT/TDA-EXCITATION SPECTRA
-----------------------------

Center of mass = ( -0.5426,  0.0857, -0.0415)
Calculating the Dipole integrals                  ... done
Transforming integrals                            ... done
Calculating the Linear Momentum integrals         ... done
Transforming integrals                            ... done
Calculating angular momentum integrals            ... done
Transforming integrals                            ... done

-----------------------------------------------------------------------------
         ABSORPTION SPECTRUM VIA TRANSITION ELECTRIC DIPOLE MOMENTS
-----------------------------------------------------------------------------
State   Energy    Wavelength  fosc         T2        TX        TY        TZ  
        (cm-1)      (nm)                 (au**2)    (au)      (au)      (au) 
-----------------------------------------------------------------------------
   1   11586.3    863.1   0.000147064   0.00418   0.04189  -0.00678  -0.04876

-----------------------------------------------------------------------------
         ABSORPTION SPECTRUM VIA TRANSITION VELOCITY DIPOLE MOMENTS
-----------------------------------------------------------------------------
State   Energy    Wavelength   fosc        P2         PX        PY        PZ  
        (cm-1)      (nm)                 (au**2)     (au)      (au)      (au) 
-----------------------------------------------------------------------------
   1   11586.3    863.1   0.012529827   0.00099   0.00272  -0.00583   0.03083

-------------------------------------------------------------------
                             CD SPECTRUM
-------------------------------------------------------------------
State  Energy     Wavelength     R         MX        MY        MZ   
       (cm-1)       (nm)     (1e40*cgs)   (au)      (au)      (au)  
-------------------------------------------------------------------
   1   11586.3    863.1     -0.34414   0.06302   0.27057   0.03149

-------------------------------------------------------------------
         CD SPECTRUM VIA TRANSITION VELOCITY DIPOLE MOMENTS        
-------------------------------------------------------------------
State  Energy     Wavelength     R         MX        MY        MZ   
       (cm-1)       (nm)     (1e40*cgs)   (au)      (au)      (au)  
-------------------------------------------------------------------
   1   11586.3    863.1     -3.89433   0.06302   0.27057   0.03149

Total run time:        0.627 sec

           *** ORCA-CIS/TD-DFT FINISHED WITHOUT ERROR ***

Maximum memory used throughout the entire CIS-calculation: 49.4 MB

-----------------------
CIS/TD-DFT TOTAL ENERGY
-----------------------

    E(SCF)  =   -153.561005569 Eh
    DE(CIS) =      0.052791085 Eh (Root  1)
    ----------------------------- ---------
    E(tot)  =   -153.508214483 Eh



-------------------------------------------------------------------------------
                          DFT DISPERSION CORRECTION                            
                                                                               
                              DFTD3 V3.1  Rev 1                                
                          USING Becke-Johnson damping                          
-------------------------------------------------------------------------------
The PBE0 functional is recognized
Active option DFTDOPT                   ...         4   

molecular C6(AA) [au] = 393.505756 


            DFT-D V3
 parameters
 s6 scaling factor         :     1.0000 
 a1 scaling factor         :     0.4145 
 s8 scaling factor         :     1.2177 
 a2 scaling factor         :     4.8593 
 ad hoc parameters k1-k3   :    16.0000     1.3333    -4.0000 

 Edisp/kcal,au: -1.664939389289  -0.002653249521 
 E6   /kcal   :  -1.087582195 
 E8   /kcal   :  -0.577357194 
 % E8         :  34.677370124 

-------------------------   ----------------
Dispersion correction           -0.002653250
-------------------------   ----------------


-------------------------   --------------------
FINAL SINGLE POINT ENERGY      -153.510867732794
-------------------------   --------------------



           ************************************************************
           *        Program running with 8 parallel MPI-processes     *
           *              working on a common directory               *
           ************************************************************
------------------------------------------------------------------------------
                         ORCA SCF GRADIENT CALCULATION
------------------------------------------------------------------------------


------------------------
TD-DFT GRADIENT XC SETUP
------------------------

Building densities                     ... done
Calculating rho(r) on the grid         ... done
Building xc-kernel on the grid         ... done
Building xc 3rd derivative on the grid      ... done
                *** TD-DFT GRADIENT CALCULATION INITIALIZED ***

-------------------
TD-DFT/TDA GRADIENT
-------------------

Reference wavefunction             ... RHF
State of interest                  ... 1
Basis dimension                    ... 117
DFT-XC contribution needed         ... YES
RI-approximation                   ... ON
CIS-vectors being read from        ... ox_es1_D_orca0001.cis

 => Number of Vectors found: 1
 => Orbital Window: 3...11 -> 12...116

Reading the CIS file                     ... done
Norm of the CI vector                    ... 1.000000000
Making the CIS (pseudo)densities         ... done
Making operators G(D) and Q(T)           ... done
Transforming the Fock operators          ... done
Making the frozen-core relaxed density   ... done
Constructing the G(H) operator           ... done
Transforming the G(H) operator           ... done
Calculating the CIS Lagrangian           ... done
Solving the Z-vector equations           ... done
Finalizing the relaxed density           ... done
Storing the relaxed density              ... done
Constructing the G(Z) operator           ... done
Transforming the G(Z) operator           ... done
Making the W-matrix                      ... done
Finalizing the W-matrix                  ... done
Transforming the W-matrix                ... done
Nuclear repulsion gradient               ... done
One-Electron gradient                    ... done
Dispersion correction                    ... done
Prescreening matrices                    ... done
COSX-gradient                            ... done
Coulomb gradient (RI)                    ... done
Exchange-Correlation gradient            ... done

                 ---------------------------
                 EXCITED STATE GRADIENT DONE
                 ---------------------------

------------------
CARTESIAN GRADIENT
------------------

   1   O   :    0.020217508    0.012880896    0.000456722
   2   C   :    0.066993855   -0.056955130   -0.020907382
   3   C   :   -0.038145271    0.037182293    0.030140690
   4   H   :    0.008377659    0.000609536    0.026010870
   5   H   :   -0.013173871    0.006691955   -0.024914429
   6   H   :   -0.027671131   -0.002087972    0.031357612
   7   H   :   -0.016589438    0.001687936   -0.042141655

Difference to translation invariance:
           :    0.0000093110    0.0000095142    0.0000024290

Difference to rotation invariance:
           :   -0.0000146080   -0.0001196701    0.0004588688

Norm of the cartesian gradient     ...    0.1337296309
RMS gradient                       ...    0.0291821979
MAX gradient                       ...    0.0669938552

------------------------------------------------------------------------------
                  RELAXED CIS/TDA DENSITY POPULATION ANALYSIS
                                   IROOT 1
------------------------------------------------------------------------------
------------------------------------------------------------------------------
                           ORCA POPULATION ANALYSIS
------------------------------------------------------------------------------
Input electron density              ... ox_es1_D_orca0001.cisp
BaseName (.gbw .S,...)              ... ox_es1_D_orca0001

                    ********************************
                    * MULLIKEN POPULATION ANALYSIS *
                    ********************************

-----------------------
MULLIKEN ATOMIC CHARGES
-----------------------
   0 O :   -0.246528
   1 C :   -0.073520
   2 C :   -0.254860
   3 H :    0.143569
   4 H :    0.150907
   5 H :    0.129324
   6 H :    0.151110
Sum of atomic charges:   -0.0000000

--------------------------------
MULLIKEN REDUCED ORBITAL CHARGES
--------------------------------
  0 O s       :     3.899962  s :     3.899962
      pz      :     1.095366  p :     4.324086
      px      :     1.924409
      py      :     1.304310
      dz2     :     0.002765  d :     0.021601
      dxz     :     0.000209
      dyz     :     0.005324
      dx2y2   :     0.008253
      dxy     :     0.005049
      f0      :     0.000012  f :     0.000879
      f+1     :    -0.000033
      f-1     :     0.000089
      f+2     :     0.000177
      f-2     :    -0.000008
      f+3     :     0.000258
      f-3     :     0.000383
  1 C s       :     3.175243  s :     3.175243
      pz      :     1.005182  p :     2.743504
      px      :     0.993848
      py      :     0.744475
      dz2     :     0.010352  d :     0.144809
      dxz     :     0.025427
      dyz     :     0.022940
      dx2y2   :     0.025520
      dxy     :     0.060571
      f0      :     0.000992  f :     0.009964
      f+1     :     0.001194
      f-1     :     0.000574
      f+2     :     0.001820
      f-2     :     0.000109
      f+3     :     0.002884
      f-3     :     0.002390
  2 C s       :     3.248983  s :     3.248983
      pz      :     1.051915  p :     2.951281
      px      :     0.954066
      py      :     0.945300
      dz2     :     0.004473  d :     0.049306
      dxz     :     0.019529
      dyz     :     0.001572
      dx2y2   :     0.010804
      dxy     :     0.012928
      f0      :     0.000599  f :     0.005291
      f+1     :     0.000995
      f-1     :     0.000174
      f+2     :     0.000988
      f-2     :     0.000150
      f+3     :     0.001041
      f-3     :     0.001345
  3 H s       :     0.836864  s :     0.836864
      pz      :     0.010715  p :     0.019568
      px      :     0.005133
      py      :     0.003720
  4 H s       :     0.829466  s :     0.829466
      pz      :     0.009762  p :     0.019627
      px      :     0.006248
      py      :     0.003617
  5 H s       :     0.845832  s :     0.845832
      pz      :     0.011160  p :     0.024844
      px      :     0.006926
      py      :     0.006758
  6 H s       :     0.823732  s :     0.823732
      pz      :     0.010600  p :     0.025158
      px      :     0.007432
      py      :     0.007127


                     *******************************
                     * LOEWDIN POPULATION ANALYSIS *
                     *******************************

----------------------
LOEWDIN ATOMIC CHARGES
----------------------
   0 O :    0.038598
   1 C :   -0.420298
   2 C :   -0.173980
   3 H :    0.179126
   4 H :    0.159449
   5 H :    0.111700
   6 H :    0.105404

-------------------------------
LOEWDIN REDUCED ORBITAL CHARGES
-------------------------------
  0 O s       :     3.588081  s :     3.588081
      pz      :     1.069076  p :     4.319345
      px      :     1.844171
      py      :     1.406098
      dz2     :     0.006936  d :     0.050943
      dxz     :     0.000257
      dyz     :     0.011427
      dx2y2   :     0.016898
      dxy     :     0.015425
      f0      :     0.000314  f :     0.003033
      f+1     :     0.000037
      f-1     :     0.000360
      f+2     :     0.000494
      f-2     :     0.000001
      f+3     :     0.001000
      f-3     :     0.000828
  1 C s       :     2.822180  s :     2.822180
      pz      :     0.979612  p :     2.937318
      px      :     1.113288
      py      :     0.844417
      dz2     :     0.067943  d :     0.580507
      dxz     :     0.123397
      dyz     :     0.063493
      dx2y2   :     0.157831
      dxy     :     0.167843
      f0      :     0.007640  f :     0.080293
      f+1     :     0.006257
      f-1     :     0.006919
      f+2     :     0.012013
      f-2     :     0.001747
      f+3     :     0.022390
      f-3     :     0.023326
  2 C s       :     2.856600  s :     2.856600
      pz      :     1.058632  p :     3.011567
      px      :     1.108417
      py      :     0.844517
      dz2     :     0.035651  d :     0.273246
      dxz     :     0.126224
      dyz     :     0.005411
      dx2y2   :     0.046842
      dxy     :     0.059117
      f0      :     0.004689  f :     0.032568
      f+1     :     0.005440
      f-1     :     0.001175
      f+2     :     0.006035
      f-2     :     0.000719
      f+3     :     0.006717
      f-3     :     0.007792
  3 H s       :     0.769651  s :     0.769651
      pz      :     0.028535  p :     0.051223
      px      :     0.013251
      py      :     0.009436
  4 H s       :     0.787834  s :     0.787834
      pz      :     0.027334  p :     0.052717
      px      :     0.015716
      py      :     0.009667
  5 H s       :     0.813605  s :     0.813605
      pz      :     0.034384  p :     0.074695
      px      :     0.020517
      py      :     0.019794
  6 H s       :     0.816734  s :     0.816734
      pz      :     0.034183  p :     0.077862
      px      :     0.022405
      py      :     0.021274


                      *****************************
                      * MAYER POPULATION ANALYSIS *
                      *****************************

  NA   - Mulliken gross atomic population
  ZA   - Total nuclear charge
  QA   - Mulliken gross atomic charge
  VA   - Mayer's total valence
  BVA  - Mayer's bonded valence
  FA   - Mayer's free valence

  ATOM       NA         ZA         QA         VA         BVA        FA
  0 O      8.2465     8.0000    -0.2465     1.8786     1.1477     0.7309
  1 C      6.0735     6.0000    -0.0735     4.0982     4.0135     0.0846
  2 C      6.2549     6.0000    -0.2549     3.9106     3.1496     0.7610
  3 H      0.8564     1.0000     0.1436     0.9583     0.8801     0.0781
  4 H      0.8491     1.0000     0.1509     0.9562     0.9059     0.0503
  5 H      0.8707     1.0000     0.1293     0.9777     0.9705     0.0072
  6 H      0.8489     1.0000     0.1511     0.9731     0.9668     0.0063

  Mayer bond orders larger than 0.100000
B(  0-O ,  1-C ) :   1.0773 B(  1-C ,  2-C ) :   1.1637 B(  1-C ,  3-H ) :   0.8711 
B(  1-C ,  4-H ) :   0.9003 B(  2-C ,  5-H ) :   0.9636 B(  2-C ,  6-H ) :   0.9585 



-------
TIMINGS
-------

Total TD-DFT gradient time         ...        6.168 sec

Fock matrix formation       ....       0.964 sec  ( 15.6%)
  Coulomb formation         ....       0.775 sec  ( 80.4% of F)
  RI-J                      ....       0.330 sec  ( 34.3% of F)
  Chain of spheres X        ....       0.444 sec  ( 46.1% of F)
  XC integration            ....       0.189 sec  ( 19.6% of F)
Z-vector equation           ....       2.061 sec  ( 33.4%)
One electron gradient       ....       0.038 sec  (  0.6%)
Prescreening matrices       ....       0.176 sec  (  2.9%)
RI-J Coulomb gradient       ....       0.293 sec  (  4.7%)
COSX gradient               ....       0.415 sec  (  6.7%)
XC gradient                 ....       1.873 sec  ( 30.4%)

Maximum memory used throughout the entire SCFGRAD-calculation: 130.2 MB

                            ***************************************
                            *     ORCA property calculations      *
                            ***************************************

                                    ---------------------
                                    Active property flags
                                    ---------------------
   (+) Dipole Moment


------------------------------------------------------------------------------
                       ORCA ELECTRIC PROPERTIES CALCULATION
------------------------------------------------------------------------------

Dipole Moment Calculation                       ... on
Quadrupole Moment Calculation                   ... off
Polarizability Calculation                      ... off
GBWName                                         ... ox_es1_D_orca0001.gbw
Electron density                                ... ox_es1_D_orca0001.scfp
The origin for moment calculation is the CENTER OF MASS  = (-0.542591,  0.085744 -0.041462)

-------------
DIPOLE MOMENT
-------------
                                X             Y             Z
Electronic contribution:     -0.29808       1.46002      -0.07694
Nuclear contribution   :      0.96715      -2.68316       0.10899
                        -----------------------------------------
Total Dipole Moment    :      0.66907      -1.22314       0.03205
                        -----------------------------------------
Magnitude (a.u.)       :      1.39455
Magnitude (Debye)      :      3.54466



--------------------
Rotational spectrum 
--------------------
 
Rotational constants in cm-1:     1.167744     0.435273     0.363695 
Rotational constants in MHz : 35008.099055 13049.151642 10903.287997 

 Dipole components along the rotational axes: 
x,y,z [a.u.] :     1.347805    -0.357197     0.024359 
x,y,z [Debye]:     3.425847    -0.907922     0.061917 

 

                        *** CIS RELAXED DENSITY ***

------------------------------------------------------------------------------
                       ORCA ELECTRIC PROPERTIES CALCULATION
------------------------------------------------------------------------------

Dipole Moment Calculation                       ... on
Quadrupole Moment Calculation                   ... off
Polarizability Calculation                      ... off
GBWName                                         ... ox_es1_D_orca0001.gbw
Electron density                                ... ox_es1_D_orca0001.cisp
The origin for moment calculation is the CENTER OF MASS  = (-0.542591,  0.085744 -0.041462)

-------------
DIPOLE MOMENT
-------------
                                X             Y             Z
Electronic contribution:     -0.90699       1.78990      -0.08525
Nuclear contribution   :      0.96715      -2.68316       0.10899
                        -----------------------------------------
Total Dipole Moment    :      0.06017      -0.89326       0.02374
                        -----------------------------------------
Magnitude (a.u.)       :      0.89560
Magnitude (Debye)      :      2.27643



--------------------
Rotational spectrum 
--------------------
 
Rotational constants in cm-1:     1.167744     0.435273     0.363695 
Rotational constants in MHz : 35008.099055 13049.151642 10903.287997 

 Dipole components along the rotational axes: 
x,y,z [a.u.] :     0.690431    -0.569974    -0.023035 
x,y,z [Debye]:     1.754935    -1.448758    -0.058551 

 

Timings for individual modules:

Sum of individual times         ...        8.612 sec (=   0.144 min)
GTO integral calculation        ...        0.259 sec (=   0.004 min)   3.0 %
SCF iterations                  ...        1.212 sec (=   0.020 min)  14.1 %
CIS module                      ...        0.801 sec (=   0.013 min)   9.3 %
SCF Gradient evaluation         ...        6.341 sec (=   0.106 min)  73.6 %
                             ****ORCA TERMINATED NORMALLY****
TOTAL RUN TIME: 0 days 0 hours 0 minutes 8 seconds 960 msec
