
                                 *****************
                                 * O   R   C   A *
                                 *****************

                                            #,                                       
                                            ###                                      
                                            ####                                     
                                            #####                                    
                                            ######                                   
                                           ########,                                 
                                     ,,################,,,,,                         
                               ,,#################################,,                 
                          ,,##########################################,,             
                       ,#########################################, ''#####,          
                    ,#############################################,,   '####,        
                  ,##################################################,,,,####,       
                ,###########''''           ''''###############################       
              ,#####''   ,,,,##########,,,,          '''####'''          '####       
            ,##' ,,,,###########################,,,                        '##       
           ' ,,###''''                  '''############,,,                           
         ,,##''                                '''############,,,,        ,,,,,,###''
      ,#''                                            '''#######################'''  
     '                                                          ''''####''''         
             ,#######,   #######,   ,#######,      ##                                
            ,#'     '#,  ##    ##  ,#'     '#,    #''#        ######   ,####,        
            ##       ##  ##   ,#'  ##            #'  '#       #        #'  '#        
            ##       ##  #######   ##           ,######,      #####,   #    #        
            '#,     ,#'  ##    ##  '#,     ,#' ,#      #,         ##   #,  ,#        
             '#######'   ##     ##  '#######'  #'      '#     #####' # '####'        



                  #######################################################
                  #                        -***-                        #
                  #          Department of theory and spectroscopy      #
                  #    Directorship and core code : Frank Neese         #
                  #        Max Planck Institute fuer Kohlenforschung    #
                  #                Kaiser Wilhelm Platz 1               #
                  #                 D-45470 Muelheim/Ruhr               #
                  #                      Germany                        #
                  #                                                     #
                  #                  All rights reserved                #
                  #                        -***-                        #
                  #######################################################


                         Program Version 5.0.2 -  RELEASE  -


 With contributions from (in alphabetic order):
   Daniel Aravena         : Magnetic Suceptibility
   Michael Atanasov       : Ab Initio Ligand Field Theory (pilot matlab implementation)
   Alexander A. Auer      : GIAO ZORA, VPT2 properties, NMR spectrum
   Ute Becker             : Parallelization
   Giovanni Bistoni       : ED, misc. LED, open-shell LED, HFLD
   Martin Brehm           : Molecular dynamics
   Dmytro Bykov           : SCF Hessian
   Vijay G. Chilkuri      : MRCI spin determinant printing, contributions to CSF-ICE
   Dipayan Datta          : RHF DLPNO-CCSD density
   Achintya Kumar Dutta   : EOM-CC, STEOM-CC
   Dmitry Ganyushin       : Spin-Orbit,Spin-Spin,Magnetic field MRCI
   Miquel Garcia          : C-PCM and meta-GGA Hessian, CC/C-PCM, Gaussian charge scheme
   Yang Guo               : DLPNO-NEVPT2, F12-NEVPT2, CIM, IAO-localization
   Andreas Hansen         : Spin unrestricted coupled pair/coupled cluster methods
   Benjamin Helmich-Paris : MC-RPA, TRAH-SCF, COSX integrals
   Lee Huntington         : MR-EOM, pCC
   Robert Izsak           : Overlap fitted RIJCOSX, COSX-SCS-MP3, EOM
   Marcus Kettner         : VPT2
   Christian Kollmar      : KDIIS, OOCD, Brueckner-CCSD(T), CCSD density, CASPT2, CASPT2-K
   Simone Kossmann        : Meta GGA functionals, TD-DFT gradient, OOMP2, MP2 Hessian
   Martin Krupicka        : Initial AUTO-CI
   Lucas Lang             : DCDCAS
   Marvin Lechner         : AUTO-CI (C++ implementation), FIC-MRCC
   Dagmar Lenk            : GEPOL surface, SMD
   Dimitrios Liakos       : Extrapolation schemes; Compound Job, initial MDCI parallelization
   Dimitrios Manganas     : Further ROCIS development; embedding schemes
   Dimitrios Pantazis     : SARC Basis sets
   Anastasios Papadopoulos: AUTO-CI, single reference methods and gradients
   Taras Petrenko         : DFT Hessian,TD-DFT gradient, ASA, ECA, R-Raman, ABS, FL, XAS/XES, NRVS
   Peter Pinski           : DLPNO-MP2, DLPNO-MP2 Gradient
   Christoph Reimann      : Effective Core Potentials
   Marius Retegan         : Local ZFS, SOC
   Christoph Riplinger    : Optimizer, TS searches, QM/MM, DLPNO-CCSD(T), (RO)-DLPNO pert. Triples
   Tobias Risthaus        : Range-separated hybrids, TD-DFT gradient, RPA, STAB
   Michael Roemelt        : Original ROCIS implementation
   Masaaki Saitow         : Open-shell DLPNO-CCSD energy and density
   Barbara Sandhoefer     : DKH picture change effects
   Avijit Sen             : IP-ROCIS
   Kantharuban Sivalingam : CASSCF convergence, NEVPT2, FIC-MRCI
   Bernardo de Souza      : ESD, SOC TD-DFT
   Georgi Stoychev        : AutoAux, RI-MP2 NMR, DLPNO-MP2 response
   Willem Van den Heuvel  : Paramagnetic NMR
   Boris Wezisla          : Elementary symmetry handling
   Frank Wennmohs         : Technical directorship


 We gratefully acknowledge several colleagues who have allowed us to
 interface, adapt or use parts of their codes:
   Stefan Grimme, W. Hujo, H. Kruse, P. Pracht,  : VdW corrections, initial TS optimization,
                  C. Bannwarth, S. Ehlert          DFT functionals, gCP, sTDA/sTD-DF
   Ed Valeev, F. Pavosevic, A. Kumar             : LibInt (2-el integral package), F12 methods
   Garnet Chan, S. Sharma, J. Yang, R. Olivares  : DMRG
   Ulf Ekstrom                                   : XCFun DFT Library
   Mihaly Kallay                                 : mrcc  (arbitrary order and MRCC methods)
   Jiri Pittner, Ondrej Demel                    : Mk-CCSD
   Frank Weinhold                                : gennbo (NPA and NBO analysis)
   Christopher J. Cramer and Donald G. Truhlar   : smd solvation model
   Lars Goerigk                                  : TD-DFT with DH, B97 family of functionals
   V. Asgeirsson, H. Jonsson                     : NEB implementation
   FAccTs GmbH                                   : IRC, NEB, NEB-TS, DLPNO-Multilevel, CI-OPT
                                                   MM, QMMM, 2- and 3-layer-ONIOM, Crystal-QMMM,
                                                   LR-CPCM, SF, NACMEs, symmetry and pop. for TD-DFT,
                                                   nearIR, NL-DFT gradient (VV10), updates on ESD,
                                                   ML-optimized integration grids
   S Lehtola, MJT Oliveira, MAL Marques          : LibXC Library
   Liviu Ungur et al                             : ANISO software


 Your calculation uses the libint2 library for the computation of 2-el integrals
 For citations please refer to: http://libint.valeyev.net

 Your ORCA version has been built with support for libXC version: 5.1.0
 For citations please refer to: https://tddft.org/programs/libxc/

 This ORCA versions uses:
   CBLAS   interface :  Fast vector & matrix operations
   LAPACKE interface :  Fast linear algebra routines
   SCALAPACK package :  Parallel linear algebra routines
   Shared memory     :  Shared parallel matrices
   BLAS/LAPACK       :  OpenBLAS 0.3.15  USE64BITINT DYNAMIC_ARCH NO_AFFINITY SkylakeX SINGLE_THREADED
        Core in use  :  SkylakeX
   Copyright (c) 2011-2014, The OpenBLAS Project


Your calculation utilizes the atom-pairwise dispersion correction
with the Becke-Johnson damping scheme (D3BJ)
Cite in your paper:
S.Grimme, S.Ehrlich, L.Goerigk, J Comput Chem, (2011), 32, 1456–1465 
S.Grimme, J.Antony, S.Ehrlich and H.Krieg, J.Chem.Phys., 132, (2010), 154104 
   

================================================================================

----- Orbital basis set information -----
Your calculation utilizes the basis: def2-TZVP
   F. Weigend and R. Ahlrichs, Phys. Chem. Chem. Phys. 7, 3297 (2005).

----- AuxJ basis set information -----
Your calculation utilizes the auxiliary basis: def2/J
   F. Weigend, Phys. Chem. Chem. Phys. 8, 1057 (2006).

================================================================================
                                        WARNINGS
                       Please study these warnings very carefully!
================================================================================

INFO   : Checking CIS options ...

WARNING: CIS/ROCIS methods need fully converged wavefunctions
  ===> : Setting SCFConvForced true
         You can overwrite this default with %scf ConvForced false 


INFO   : the flag for use of the SHARK integral package has been found!

================================================================================
                                       INPUT FILE
================================================================================
NAME = ox_es1_G_orca0007.inp
|  1> ! engrad PBE0 D3BJ def2-TZVP  
|  2> %pal nprocs 8 end
|  3> %maxcore 3000
|  4> 
|  5> %tddft
|  6>   nroots 1
|  7>   tda true
|  8>   Iroot 1
|  9>   end 
| 10> *xyz 0 1 
| 11> O   -1.421243989887276 0.7928679823528262 -0.008659749834222207
| 12> C   -0.753228548263796 -0.48330008522677387 0.037681986017704616
| 13> C   0.702527301064532 -0.5165168389283155 0.04739039084185589
| 14> H   -1.3136668336256865 -0.6461166511469033 0.8878322959698782
| 15> H   -1.2781999509466955 -0.7524361823891113 -0.9393150204086582
| 16> H   1.1812256548792182 -0.6854247465315751 -0.8480115904391948
| 17> H   1.2731066604964216 -0.7082682033763984 0.8959303894222267
| 18> *
| 19> 
| 20>                          ****END OF INPUT****
================================================================================

                     *******************************
                     * Energy+Gradient Calculation *
                     *******************************

---------------------------------
CARTESIAN COORDINATES (ANGSTROEM)
---------------------------------
  O     -1.421244    0.792868   -0.008660
  C     -0.753229   -0.483300    0.037682
  C      0.702527   -0.516517    0.047390
  H     -1.313667   -0.646117    0.887832
  H     -1.278200   -0.752436   -0.939315
  H      1.181226   -0.685425   -0.848012
  H      1.273107   -0.708268    0.895930

----------------------------
CARTESIAN COORDINATES (A.U.)
----------------------------
  NO LB      ZA    FRAG     MASS         X           Y           Z
   0 O     8.0000    0    15.999   -2.685762    1.498303   -0.016365
   1 C     6.0000    0    12.011   -1.423396   -0.913305    0.071209
   2 C     6.0000    0    12.011    1.327584   -0.976075    0.089555
   3 H     1.0000    0     1.008   -2.482471   -1.220984    1.677760
   4 H     1.0000    0     1.008   -2.415448   -1.421898   -1.775048
   5 H     1.0000    0     1.008    2.232193   -1.295265   -1.602510
   6 H     1.0000    0     1.008    2.405823   -1.338433    1.693063

--------------------------------
INTERNAL COORDINATES (ANGSTROEM)
--------------------------------
 O      0   0   0     0.000000000000     0.00000000     0.00000000
 C      1   0   0     1.441179074036     0.00000000     0.00000000
 C      2   1   0     1.456167125952   118.93406677     0.00000000
 H      2   1   3     1.031191473660    85.08986573   124.41533658
 H      2   1   3     1.141294161466    88.17082418   239.44108194
 H      3   2   1     1.029284558943   117.57380601   261.92547012
 H      3   2   1     1.040360283925   123.91285337   103.83862993

---------------------------
INTERNAL COORDINATES (A.U.)
---------------------------
 O      0   0   0     0.000000000000     0.00000000     0.00000000
 C      1   0   0     2.723433759866     0.00000000     0.00000000
 C      2   1   0     2.751757073269   118.93406677     0.00000000
 H      2   1   3     1.948669476852    85.08986573   124.41533658
 H      2   1   3     2.156733403414    88.17082418   239.44108194
 H      3   2   1     1.945065930276   117.57380601   261.92547012
 H      3   2   1     1.965996017227   123.91285337   103.83862993

---------------------
BASIS SET INFORMATION
---------------------
There are 3 groups of distinct atoms

 Group   1 Type O   : 11s6p2d1f contracted to 5s3p2d1f pattern {62111/411/11/1}
 Group   2 Type C   : 11s6p2d1f contracted to 5s3p2d1f pattern {62111/411/11/1}
 Group   3 Type H   : 5s1p contracted to 3s1p pattern {311/1}

Atom   0O    basis set group =>   1
Atom   1C    basis set group =>   2
Atom   2C    basis set group =>   2
Atom   3H    basis set group =>   3
Atom   4H    basis set group =>   3
Atom   5H    basis set group =>   3
Atom   6H    basis set group =>   3
---------------------------------
AUXILIARY/J BASIS SET INFORMATION
---------------------------------
There are 3 groups of distinct atoms

 Group   1 Type O   : 12s5p4d2f1g contracted to 6s4p3d1f1g pattern {711111/2111/211/2/1}
 Group   2 Type C   : 12s5p4d2f1g contracted to 6s4p3d1f1g pattern {711111/2111/211/2/1}
 Group   3 Type H   : 5s2p1d contracted to 3s1p1d pattern {311/2/1}

Atom   0O    basis set group =>   1
Atom   1C    basis set group =>   2
Atom   2C    basis set group =>   2
Atom   3H    basis set group =>   3
Atom   4H    basis set group =>   3
Atom   5H    basis set group =>   3
Atom   6H    basis set group =>   3

Checking for AutoStart:
The File: ox_es1_G_orca0007.gbw exists
Trying to determine its content:
     ... Fine, the file contains calculation information
     ... Fine, the calculation information was read
     ... Fine, the file contains a basis set
     ... Fine, the basis set was read
     ... Fine, the file contains a geometry
     ... Fine, the geometry was read
     ... Fine, the file contains a set of orbitals
     ... Fine, the orbitals can be read
     => possible old guess file was deleted
     => GBW file was renamed to GES file
     => GES file is set as startup file
     => Guess is set to MORead
     ... now leaving AutoStart



           ************************************************************
           *        Program running with 8 parallel MPI-processes     *
           *              working on a common directory               *
           ************************************************************
------------------------------------------------------------------------------
                           ORCA GTO INTEGRAL CALCULATION
                           -- RI-GTO INTEGRALS CHOSEN --
------------------------------------------------------------------------------
------------------------------------------------------------------------------
                   ___                                                        
                  /   \      - P O W E R E D   B Y -                         
                 /     \                                                     
                 |  |  |   _    _      __       _____    __    __             
                 |  |  |  | |  | |    /  \     |  _  \  |  |  /  |          
                  \  \/   | |  | |   /    \    | | | |  |  | /  /          
                 / \  \   | |__| |  /  /\  \   | |_| |  |  |/  /          
                |  |  |   |  __  | /  /__\  \  |    /   |      \           
                |  |  |   | |  | | |   __   |  |    \   |  |\   \          
                \     /   | |  | | |  |  |  |  | |\  \  |  | \   \       
                 \___/    |_|  |_| |__|  |__|  |_| \__\ |__|  \__/        
                                                                              
                      - O R C A' S   B I G   F R I E N D -                    
                                      &                                       
                       - I N T E G R A L  F E E D E R -                       
                                                                              
 v1 FN, 2020, v2 2021                                                         
------------------------------------------------------------------------------


Reading SHARK input file ox_es1_G_orca0007.SHARKINP.tmp ... ok
----------------------
SHARK INTEGRAL PACKAGE
----------------------

Number of atoms                             ...      7
Number of basis functions                   ...    117
Number of shells                            ...     49
Maximum angular momentum                    ...      3
Integral batch strategy                     ... SHARK/LIBINT Hybrid
RI-J (if used) integral strategy            ... SPLIT-RIJ (Revised 2003 algorithm where possible)
Printlevel                                  ...      1
Contraction scheme used                     ... SEGMENTED contraction
Coulomb Range Separation                    ... NOT USED
Exchange Range Separation                   ... NOT USED
Finite Nucleus Model                        ... NOT USED
Auxiliary Coulomb fitting basis             ... AVAILABLE
   # of basis functions in Aux-J            ...    191
   # of shells in Aux-J                     ...     65
   Maximum angular momentum in Aux-J        ...      4
Auxiliary J/K fitting basis                 ... NOT available
Auxiliary Correlation fitting basis         ... NOT available
Auxiliary 'external' fitting basis          ... NOT available
Integral threshold                          ...     2.500000e-11
Primitive cut-off                           ...     2.500000e-12
Primitive pair pre-selection threshold      ...     2.500000e-12

Calculating pre-screening integrals         ... done (  0.0 sec) Dimension = 49
Organizing shell pair data                  ... done (  0.0 sec)
Shell pair information
Total number of shell pairs                 ...      1225
Shell pairs after pre-screening             ...      1211
Total number of primitive shell pairs       ...      3648
Primitive shell pairs kept                  ...      3066
          la=0 lb=0:    367 shell pairs
          la=1 lb=0:    349 shell pairs
          la=1 lb=1:     91 shell pairs
          la=2 lb=0:    161 shell pairs
          la=2 lb=1:     78 shell pairs
          la=2 lb=2:     21 shell pairs
          la=3 lb=0:     81 shell pairs
          la=3 lb=1:     39 shell pairs
          la=3 lb=2:     18 shell pairs
          la=3 lb=3:      6 shell pairs

Calculating one electron integrals          ... done (  0.0 sec)
Calculating RI/J V-Matrix + Cholesky decomp.... done (  0.0 sec)
Calculating Nuclear repulsion               ... done (  0.0 sec) ENN=     67.546196914657 Eh

SHARK setup successfully completed in   0.1 seconds

Maximum memory used throughout the entire GTOINT-calculation: 14.9 MB


           ************************************************************
           *        Program running with 8 parallel MPI-processes     *
           *              working on a common directory               *
           ************************************************************
-------------------------------------------------------------------------------
                                 ORCA SCF
-------------------------------------------------------------------------------

------------
SCF SETTINGS
------------
Hamiltonian:
 Density Functional     Method          .... DFT(GTOs)
 Exchange Functional    Exchange        .... PBE
   PBE kappa parameter   XKappa         ....  0.804000
   PBE mue parameter    XMuePBE         ....  0.219520
 Correlation Functional Correlation     .... PBE
   PBE beta parameter  CBetaPBE         ....  0.066725
 LDA part of GGA corr.  LDAOpt          .... PW91-LDA
 Gradients option       PostSCFGGA      .... off
 Hybrid DFT is turned on
   Fraction HF Exchange ScalHFX         ....  0.250000
   Scaling of DF-GGA-X  ScalDFX         ....  0.750000
   Scaling of DF-GGA-C  ScalDFC         ....  1.000000
   Scaling of DF-LDA-C  ScalLDAC        ....  1.000000
   Perturbative correction              ....  0.000000
   Density functional embedding theory  .... OFF
   NL short-range parameter             ....  6.900000
 RI-approximation to the Coulomb term is turned on
   Number of AuxJ basis functions       .... 191
   RIJ-COSX (HFX calculated with COS-X)).... on


General Settings:
 Integral files         IntName         .... ox_es1_G_orca0007
 Hartree-Fock type      HFTyp           .... RHF
 Total Charge           Charge          ....    0
 Multiplicity           Mult            ....    1
 Number of Electrons    NEL             ....   24
 Basis Dimension        Dim             ....  117
 Nuclear Repulsion      ENuc            ....     67.5461969147 Eh

Convergence Acceleration:
 DIIS                   CNVDIIS         .... on
   Start iteration      DIISMaxIt       ....    12
   Startup error        DIISStart       ....  0.200000
   # of expansion vecs  DIISMaxEq       ....     5
   Bias factor          DIISBfac        ....   1.050
   Max. coefficient     DIISMaxC        ....  10.000
 Trust-Rad. Augm. Hess. CNVTRAH         .... auto
   Auto Start mean grad. ratio tolernc. ....  1.125000
   Auto Start start iteration           ....     1
   Auto Start num. interpolation iter.  ....    10
   Max. Number of Micro iterations      ....    16
   Max. Number of Macro iterations      .... Maxiter - #DIIS iter
   Number of Davidson start vectors     ....     2
   Converg. threshold I  (grad. norm)   ....   1.000e-05
   Converg. threshold II (energy diff.) ....   1.000e-08
   Grad. Scal. Fac. for Micro threshold ....   0.100
   Minimum threshold for Micro iter.    ....   0.010
   NR start threshold (gradient norm)   ....   0.001
   Initial trust radius                 ....   0.400
   Minimum AH scaling param. (alpha)    ....   1.000
   Maximum AH scaling param. (alpha)    .... 1000.000
   Orbital update algorithm             .... Taylor
   White noise on init. David. guess    .... on
   Maximum white noise                  ....   0.010
   Quad. conv. algorithm                .... NR
 SOSCF                  CNVSOSCF        .... on
   Start iteration      SOSCFMaxIt      ....   150
   Startup grad/error   SOSCFStart      ....  0.003300
 Level Shifting         CNVShift        .... on
   Level shift para.    LevelShift      ....    0.2500
   Turn off err/grad.   ShiftErr        ....    0.0010
 Zerner damping         CNVZerner       .... off
 Static damping         CNVDamp         .... on
   Fraction old density DampFac         ....    0.7000
   Max. Damping (<1)    DampMax         ....    0.9800
   Min. Damping (>=0)   DampMin         ....    0.0000
   Turn off err/grad.   DampErr         ....    0.1000
 Fernandez-Rico         CNVRico         .... off

SCF Procedure:
 Maximum # iterations   MaxIter         ....   125
 SCF integral mode      SCFMode         .... Direct
   Integral package                     .... SHARK and LIBINT hybrid scheme
 Reset frequency        DirectResetFreq ....    20
 Integral Threshold     Thresh          ....  2.500e-11 Eh
 Primitive CutOff       TCut            ....  2.500e-12 Eh

Convergence Tolerance:
 Convergence Check Mode ConvCheckMode   .... Total+1el-Energy
 Convergence forced     ConvForced      .... 1
 Energy Change          TolE            ....  1.000e-08 Eh
 1-El. energy change                    ....  1.000e-05 Eh
 Orbital Gradient       TolG            ....  1.000e-05
 Orbital Rotation angle TolX            ....  1.000e-05
 DIIS Error             TolErr          ....  5.000e-07


Diagonalization of the overlap matrix:
Smallest eigenvalue                        ... 4.681e-04
Time for diagonalization                   ...    0.001 sec
Threshold for overlap eigenvalues          ... 1.000e-08
Number of eigenvalues below threshold      ... 0
Time for construction of square roots      ...    0.001 sec
Total time needed                          ...    0.003 sec

---------------------
INITIAL GUESS: MOREAD
---------------------
Guess MOs are being read from file: ox_es1_G_orca0007.ges
Input Geometry matches current geometry (good)
Input basis set matches current basis set (good)
MOs were renormalized
MOs were reorthogonalized (Cholesky)
                      ------------------
                      INITIAL GUESS DONE (   0.0 sec)
                      ------------------
-------------------
DFT GRID GENERATION
-------------------

General Integration Accuracy     IntAcc      ... 4.388
Radial Grid Type                 RadialGrid  ... OptM3 with GC (2021)
Angular Grid (max. ang.)         AngularGrid ... 4 (Lebedev-302)
Angular grid pruning method      GridPruning ... 4 (adaptive)
Weight generation scheme         WeightScheme... Becke
Basis function cutoff            BFCut       ... 1.0000e-11
Integration weight cutoff        WCut        ... 1.0000e-14
Angular grids for H and He will be reduced by one unit
Partially contracted basis set               ... off
Rotationally invariant grid construction     ... off

Total number of grid points                  ...    31329
Total number of batches                      ...      492
Average number of points per batch           ...       63
Average number of grid points per atom       ...     4476
Time for grid setup =    0.128 sec

--------------------
COSX GRID GENERATION
--------------------

GRIDX 1
-------
General Integration Accuracy     IntAcc      ... 3.816
Radial Grid Type                 RadialGrid  ... OptM3 with GC (2021)
Angular Grid (max. ang.)         AngularGrid ... 1 (Lebedev-50)
Angular grid pruning method      GridPruning ... 4 (adaptive)
Weight generation scheme         WeightScheme... Becke
Basis function cutoff            BFCut       ... 1.0000e-11
Integration weight cutoff        WCut        ... 1.0000e-14
Angular grids for H and He will be reduced by one unit
Partially contracted basis set               ... on
Rotationally invariant grid construction     ... off

Total number of grid points                  ...     4042
Total number of batches                      ...       67
Average number of points per batch           ...       60
Average number of grid points per atom       ...      577
UseSFitting                                  ... on

GRIDX 2
-------
General Integration Accuracy     IntAcc      ... 4.020
Radial Grid Type                 RadialGrid  ... OptM3 with GC (2021)
Angular Grid (max. ang.)         AngularGrid ... 2 (Lebedev-110)
Angular grid pruning method      GridPruning ... 4 (adaptive)
Weight generation scheme         WeightScheme... Becke
Basis function cutoff            BFCut       ... 1.0000e-11
Integration weight cutoff        WCut        ... 1.0000e-14
Angular grids for H and He will be reduced by one unit
Partially contracted basis set               ... on
Rotationally invariant grid construction     ... off

Total number of grid points                  ...     8735
Total number of batches                      ...      140
Average number of points per batch           ...       62
Average number of grid points per atom       ...     1248
UseSFitting                                  ... on

GRIDX 3
-------
General Integration Accuracy     IntAcc      ... 4.338
Radial Grid Type                 RadialGrid  ... OptM3 with GC (2021)
Angular Grid (max. ang.)         AngularGrid ... 3 (Lebedev-194)
Angular grid pruning method      GridPruning ... 4 (adaptive)
Weight generation scheme         WeightScheme... Becke
Basis function cutoff            BFCut       ... 1.0000e-11
Integration weight cutoff        WCut        ... 1.0000e-14
Angular grids for H and He will be reduced by one unit
Partially contracted basis set               ... on
Rotationally invariant grid construction     ... off

Total number of grid points                  ...    19266
Total number of batches                      ...      305
Average number of points per batch           ...       63
Average number of grid points per atom       ...     2752
UseSFitting                                  ... on

Time for X-Grid setup             =    0.081 sec

--------------
SCF ITERATIONS
--------------
ITER       Energy         Delta-E        Max-DP      RMS-DP      [F,P]     Damp
               ***  Starting incremental Fock matrix formation  ***
                      *** Initiating the SOSCF procedure ***
                      *** Re-Reading the Fockian *** 
                      *** Removing any level shift *** 
ITER      Energy       Delta-E        Grad      Rot      Max-DP    RMS-DP
  0   -153.47945559 -153.4794555884  0.000002  0.000002  0.000004  0.000000
               *** Restarting incremental Fock matrix formation ***
                  ***Gradient check signals convergence***
              ***Rediagonalizing the Fockian in SOSCF/NRSCF***

               *****************************************************
               *                     SUCCESS                       *
               *           SCF CONVERGED AFTER   1 CYCLES          *
               *****************************************************

Old exchange energy                            =     -4.960496227 Eh
New exchange energy                            =     -4.960498967 Eh
Exchange energy change after final integration =     -0.000002740 Eh
Total energy after final integration           =   -153.479458329 Eh
Final COS-X integration done in                =     0.305 sec

----------------
TOTAL SCF ENERGY
----------------

Total Energy       :         -153.47945833 Eh           -4176.38838 eV

Components:
Nuclear Repulsion  :           67.54619691 Eh            1838.02546 eV
Electronic Energy  :         -221.02565524 Eh           -6014.41385 eV
One Electron Energy:         -341.89619490 Eh           -9303.46844 eV
Two Electron Energy:          120.87053966 Eh            3289.05460 eV
Max COSX asymmetry :            0.00000225 Eh               0.00006 eV

Virial components:
Potential Energy   :         -306.53468847 Eh           -8341.23293 eV
Kinetic Energy     :          153.05523014 Eh            4164.84455 eV
Virial Ratio       :            2.00277173


DFT components:
N(Alpha)           :       11.999997202897 electrons
N(Beta)            :       11.999997202897 electrons
N(Total)           :       23.999994405793 electrons
E(X)               :      -14.913027166321 Eh       
E(C)               :       -0.772141148740 Eh       
E(XC)              :      -15.685168315061 Eh       
DFET-embed. en.    :        0.000000000000 Eh       

---------------
SCF CONVERGENCE
---------------

  Last Energy change         ...    4.8118e-11  Tolerance :   1.0000e-08
  Last MAX-Density change    ...    5.5511e-16  Tolerance :   1.0000e-07
  Last RMS-Density change    ...    1.9592e-17  Tolerance :   5.0000e-09
  Last Orbital Gradient      ...    8.5512e-07  Tolerance :   1.0000e-05
  Last Orbital Rotation      ...    1.3748e-05  Tolerance :   1.0000e-05

             **** THE GBW FILE WAS UPDATED (ox_es1_G_orca0007.gbw) ****
             **** DENSITY ox_es1_G_orca0007.scfp WAS UPDATED ****
             **** ENERGY FILE WAS UPDATED (ox_es1_G_orca0007.en.tmp) ****
             **** THE GBW FILE WAS UPDATED (ox_es1_G_orca0007.gbw) ****
             **** DENSITY ox_es1_G_orca0007.scfp WAS UPDATED ****
----------------
ORBITAL ENERGIES
----------------

  NO   OCC          E(Eh)            E(eV) 
   0   2.0000     -19.176918      -521.8305 
   1   2.0000     -10.297911      -280.2204 
   2   2.0000     -10.275466      -279.6097 
   3   2.0000      -0.979359       -26.6497 
   4   2.0000      -0.789632       -21.4870 
   5   2.0000      -0.629327       -17.1249 
   6   2.0000      -0.532597       -14.4927 
   7   2.0000      -0.484624       -13.1873 
   8   2.0000      -0.442449       -12.0397 
   9   2.0000      -0.387894       -10.5551 
  10   2.0000      -0.252156        -6.8615 
  11   2.0000      -0.228140        -6.2080 
  12   0.0000      -0.168073        -4.5735 
  13   0.0000       0.053045         1.4434 
  14   0.0000       0.079595         2.1659 
  15   0.0000       0.095571         2.6006 
  16   0.0000       0.134622         3.6632 
  17   0.0000       0.147245         4.0067 
  18   0.0000       0.186529         5.0757 
  19   0.0000       0.223351         6.0777 
  20   0.0000       0.226693         6.1686 
  21   0.0000       0.234691         6.3863 
  22   0.0000       0.244966         6.6659 
  23   0.0000       0.335395         9.1266 
  24   0.0000       0.356444         9.6993 
  25   0.0000       0.395485        10.7617 
  26   0.0000       0.418064        11.3761 
  27   0.0000       0.432320        11.7640 
  28   0.0000       0.454879        12.3779 
  29   0.0000       0.481040        13.0898 
  30   0.0000       0.505307        13.7501 
  31   0.0000       0.538985        14.6665 
  32   0.0000       0.546860        14.8808 
  33   0.0000       0.608072        16.5465 
  34   0.0000       0.642708        17.4890 
  35   0.0000       0.738030        20.0828 
  36   0.0000       0.783580        21.3223 
  37   0.0000       0.837916        22.8008 
  38   0.0000       0.889996        24.2180 
  39   0.0000       0.916412        24.9368 
  40   0.0000       0.935204        25.4482 
  41   0.0000       1.013668        27.5833 
  42   0.0000       1.095950        29.8223 
  43   0.0000       1.118703        30.4415 
  44   0.0000       1.203846        32.7583 
  45   0.0000       1.332352        36.2551 
  46   0.0000       1.434579        39.0369 
  47   0.0000       1.439043        39.1583 
  48   0.0000       1.497029        40.7362 
  49   0.0000       1.524168        41.4747 
  50   0.0000       1.550212        42.1834 
  51   0.0000       1.582232        43.0547 
  52   0.0000       1.630287        44.3624 
  53   0.0000       1.644637        44.7528 
  54   0.0000       1.723487        46.8985 
  55   0.0000       1.771193        48.1966 
  56   0.0000       1.823251        49.6132 
  57   0.0000       1.851638        50.3856 
  58   0.0000       1.897113        51.6231 
  59   0.0000       1.938146        52.7396 
  60   0.0000       1.985651        54.0323 
  61   0.0000       2.045116        55.6504 
  62   0.0000       2.104750        57.2732 
  63   0.0000       2.257886        61.4402 
  64   0.0000       2.298247        62.5385 
  65   0.0000       2.356384        64.1205 
  66   0.0000       2.396050        65.1998 
  67   0.0000       2.491597        67.7998 
  68   0.0000       2.513640        68.3996 
  69   0.0000       2.562925        69.7407 
  70   0.0000       2.604802        70.8803 
  71   0.0000       2.617050        71.2135 
  72   0.0000       2.654872        72.2427 
  73   0.0000       2.682286        72.9887 
  74   0.0000       2.751241        74.8651 
  75   0.0000       2.821019        76.7638 
  76   0.0000       2.837917        77.2236 
  77   0.0000       2.962670        80.6183 
  78   0.0000       2.998040        81.5808 
  79   0.0000       3.009742        81.8992 
  80   0.0000       3.051769        83.0428 
  81   0.0000       3.069664        83.5298 
  82   0.0000       3.123324        84.9900 
  83   0.0000       3.152790        85.7918 
  84   0.0000       3.195970        86.9668 
  85   0.0000       3.325152        90.4820 
  86   0.0000       3.331501        90.6548 
  87   0.0000       3.384372        92.0934 
  88   0.0000       3.411842        92.8409 
  89   0.0000       3.426207        93.2318 
  90   0.0000       3.495874        95.1276 
  91   0.0000       3.658661        99.5572 
  92   0.0000       3.733425       101.5917 
  93   0.0000       3.882131       105.6381 
  94   0.0000       4.064459       110.5996 
  95   0.0000       4.140477       112.6681 
  96   0.0000       4.203703       114.3886 
  97   0.0000       4.305007       117.1452 
  98   0.0000       4.438683       120.7827 
  99   0.0000       4.586216       124.7973 
 100   0.0000       4.612063       125.5006 
 101   0.0000       4.790650       130.3602 
 102   0.0000       5.204921       141.6331 
 103   0.0000       5.230635       142.3328 
 104   0.0000       5.398140       146.8909 
 105   0.0000       5.421483       147.5260 
 106   0.0000       5.738136       156.1426 
 107   0.0000       5.820154       158.3745 
 108   0.0000       5.934835       161.4951 
 109   0.0000       6.377590       173.5430 
 110   0.0000       6.385137       173.7484 
 111   0.0000       6.792970       184.8461 
 112   0.0000       6.804588       185.1623 
 113   0.0000       6.980424       189.9470 
 114   0.0000      22.185315       603.6931 
 115   0.0000      22.487280       611.9100 
 116   0.0000      43.778027      1191.2607 

                    ********************************
                    * MULLIKEN POPULATION ANALYSIS *
                    ********************************

-----------------------
MULLIKEN ATOMIC CHARGES
-----------------------
   0 O :   -0.409097
   1 C :   -0.167579
   2 C :   -0.087469
   3 H :    0.141039
   4 H :    0.206095
   5 H :    0.160420
   6 H :    0.156591
Sum of atomic charges:    0.0000000

--------------------------------
MULLIKEN REDUCED ORBITAL CHARGES
--------------------------------
  0 O s       :     3.900584  s :     3.900584
      pz      :     1.469632  p :     4.484519
      px      :     1.611337
      py      :     1.403550
      dz2     :     0.002889  d :     0.022790
      dxz     :     0.000799
      dyz     :     0.005626
      dx2y2   :     0.005799
      dxy     :     0.007677
      f0      :     0.000107  f :     0.001204
      f+1     :     0.000064
      f-1     :     0.000127
      f+2     :     0.000115
      f-2     :     0.000115
      f+3     :     0.000420
      f-3     :     0.000256
  1 C s       :     3.234546  s :     3.234546
      pz      :     1.043482  p :     2.773966
      px      :     0.903244
      py      :     0.827241
      dz2     :     0.014407  d :     0.148673
      dxz     :     0.027060
      dyz     :     0.029517
      dx2y2   :     0.033392
      dxy     :     0.044298
      f0      :     0.001175  f :     0.010394
      f+1     :     0.001405
      f-1     :     0.000356
      f+2     :     0.001335
      f-2     :     0.000950
      f+3     :     0.001959
      f-3     :     0.003214
  2 C s       :     3.261987  s :     3.261987
      pz      :     1.065177  p :     2.779323
      px      :     0.996116
      py      :     0.718030
      dz2     :     0.004301  d :     0.042306
      dxz     :     0.022296
      dyz     :     0.001823
      dx2y2   :     0.004725
      dxy     :     0.009160
      f0      :     0.000436  f :     0.003853
      f+1     :     0.000992
      f-1     :     0.000108
      f+2     :     0.000710
      f-2     :     0.000064
      f+3     :     0.000558
      f-3     :     0.000986
  3 H s       :     0.831962  s :     0.831962
      pz      :     0.010604  p :     0.026999
      px      :     0.008296
      py      :     0.008099
  4 H s       :     0.771102  s :     0.771102
      pz      :     0.010026  p :     0.022802
      px      :     0.006646
      py      :     0.006131
  5 H s       :     0.815265  s :     0.815265
      pz      :     0.011961  p :     0.024315
      px      :     0.007233
      py      :     0.005122
  6 H s       :     0.819620  s :     0.819620
      pz      :     0.011098  p :     0.023789
      px      :     0.007881
      py      :     0.004810


                     *******************************
                     * LOEWDIN POPULATION ANALYSIS *
                     *******************************

----------------------
LOEWDIN ATOMIC CHARGES
----------------------
   0 O :   -0.128604
   1 C :   -0.435731
   2 C :    0.009141
   3 H :    0.120866
   4 H :    0.207111
   5 H :    0.114262
   6 H :    0.112955

-------------------------------
LOEWDIN REDUCED ORBITAL CHARGES
-------------------------------
  0 O s       :     3.586743  s :     3.586743
      pz      :     1.424134  p :     4.484159
      px      :     1.579254
      py      :     1.480771
      dz2     :     0.006292  d :     0.054303
      dxz     :     0.002065
      dyz     :     0.014293
      dx2y2   :     0.016197
      dxy     :     0.015456
      f0      :     0.000421  f :     0.003400
      f+1     :     0.000148
      f-1     :     0.000379
      f+2     :     0.000330
      f-2     :     0.000368
      f+3     :     0.000908
      f-3     :     0.000846
  1 C s       :     2.823066  s :     2.823066
      pz      :     1.024513  p :     2.977671
      px      :     1.040991
      py      :     0.912166
      dz2     :     0.077997  d :     0.567377
      dxz     :     0.105793
      dyz     :     0.072499
      dx2y2   :     0.151106
      dxy     :     0.159983
      f0      :     0.007684  f :     0.067616
      f+1     :     0.008160
      f-1     :     0.005102
      f+2     :     0.007261
      f-2     :     0.006388
      f+3     :     0.016549
      f-3     :     0.016472
  2 C s       :     2.901938  s :     2.901938
      pz      :     1.082652  p :     2.856328
      px      :     1.111265
      py      :     0.662412
      dz2     :     0.028284  d :     0.210588
      dxz     :     0.109384
      dyz     :     0.004786
      dx2y2   :     0.034033
      dxy     :     0.034101
      f0      :     0.003322  f :     0.022006
      f+1     :     0.003886
      f-1     :     0.000802
      f+2     :     0.004279
      f-2     :     0.000942
      f+3     :     0.004073
      f-3     :     0.004701
  3 H s       :     0.800592  s :     0.800592
      pz      :     0.032626  p :     0.078541
      px      :     0.022425
      py      :     0.023490
  4 H s       :     0.734759  s :     0.734759
      pz      :     0.027413  p :     0.058130
      px      :     0.015923
      py      :     0.014794
  5 H s       :     0.809601  s :     0.809601
      pz      :     0.038401  p :     0.076138
      px      :     0.021673
      py      :     0.016064
  6 H s       :     0.813471  s :     0.813471
      pz      :     0.035398  p :     0.073573
      px      :     0.023506
      py      :     0.014670


                      *****************************
                      * MAYER POPULATION ANALYSIS *
                      *****************************

  NA   - Mulliken gross atomic population
  ZA   - Total nuclear charge
  QA   - Mulliken gross atomic charge
  VA   - Mayer's total valence
  BVA  - Mayer's bonded valence
  FA   - Mayer's free valence

  ATOM       NA         ZA         QA         VA         BVA        FA
  0 O      8.4091     8.0000    -0.4091     1.7127     1.7127     0.0000
  1 C      6.1676     6.0000    -0.1676     4.1472     4.1472     0.0000
  2 C      6.0875     6.0000    -0.0875     3.6914     3.6914     0.0000
  3 H      0.8590     1.0000     0.1410     0.9794     0.9794     0.0000
  4 H      0.7939     1.0000     0.2061     0.9565     0.9565     0.0000
  5 H      0.8396     1.0000     0.1604     0.9645     0.9645     0.0000
  6 H      0.8434     1.0000     0.1566     0.9683     0.9683     0.0000

  Mayer bond orders larger than 0.100000
B(  0-O ,  1-C ) :   1.1088 B(  0-O ,  2-C ) :   0.5784 B(  1-C ,  2-C ) :   1.1631 
B(  1-C ,  3-H ) :   0.9994 B(  1-C ,  4-H ) :   0.8645 B(  2-C ,  5-H ) :   0.9507 
B(  2-C ,  6-H ) :   0.9504 

-------
TIMINGS
-------

Total SCF time: 0 days 0 hours 0 min 1 sec 

Total time                  ....       1.115 sec
Sum of individual times     ....       1.034 sec  ( 92.7%)

Fock matrix formation       ....       0.812 sec  ( 72.8%)
  Split-RI-J                ....       0.130 sec  ( 16.0% of F)
  Chain of spheres X        ....       0.600 sec  ( 74.0% of F)
  XC integration            ....       0.072 sec  (  8.9% of F)
    Basis function eval.    ....       0.020 sec  ( 28.3% of XC)
    Density eval.           ....       0.015 sec  ( 21.3% of XC)
    XC-Functional eval.     ....       0.004 sec  (  6.1% of XC)
    XC-Potential eval.      ....       0.024 sec  ( 32.8% of XC)
Diagonalization             ....       0.003 sec  (  0.2%)
Density matrix formation    ....       0.001 sec  (  0.0%)
Population analysis         ....       0.003 sec  (  0.2%)
Initial guess               ....       0.003 sec  (  0.3%)
Orbital Transformation      ....       0.000 sec  (  0.0%)
Orbital Orthonormalization  ....       0.001 sec  (  0.1%)
DIIS solution               ....       0.001 sec  (  0.1%)
SOSCF solution              ....       0.003 sec  (  0.2%)
Grid generation             ....       0.209 sec  ( 18.8%)

Maximum memory used throughout the entire SCF-calculation: 61.1 MB


           ************************************************************
           *        Program running with 8 parallel MPI-processes     *
           *              working on a common directory               *
           ************************************************************
------------------------------------------------------------------------------
                        ORCA TD-DFT/TDA CALCULATION
------------------------------------------------------------------------------

Input orbitals are from        ... ox_es1_G_orca0007.gbw
CI-vector output               ... ox_es1_G_orca0007.cis
Tamm-Dancoff approximation     ... operative
CIS-Integral strategy          ... AO-integrals
Integral handling              ... AO integral Direct
Max. core memory used          ... 3000 MB
Reference state                ... RHF
Generation of triplets         ... off
Follow IRoot                   ... off
Number of operators            ... 1
Orbital ranges used for CIS calculation:
 Operator 0:  Orbitals   3... 11  to  12...116
XAS localization array:
 Operator 0:  Orbitals  -1... -1

-------------------
XC-INTEGRATION GRID
-------------------

General Integration Accuracy     IntAcc      ... 3.467
Radial Grid Type                 RadialGrid  ... OptM3 with GC (2021)
Angular Grid (max. ang.)         AngularGrid ... 1 (Lebedev-50)
Angular grid pruning method      GridPruning ... 4 (adaptive)
Weight generation scheme         WeightScheme... Becke
Basis function cutoff            BFCut       ... 1.0000e-11
Integration weight cutoff        WCut        ... 1.0000e-14
Angular grids for H and He will be reduced by one unit
Partially contracted basis set               ... off
Rotationally invariant grid construction     ... off

Total number of grid points                  ...     4552
Total number of batches                      ...       74
Average number of points per batch           ...       61
Average number of grid points per atom       ...      650

---------------------
COSX-INTEGRATION GRID
---------------------

General Integration Accuracy     IntAcc      ... 3.067
Radial Grid Type                 RadialGrid  ... OptM3 with GC (2021)
Angular Grid (max. ang.)         AngularGrid ... 1 (Lebedev-50)
Angular grid pruning method      GridPruning ... 4 (adaptive)
Weight generation scheme         WeightScheme... Becke
Basis function cutoff            BFCut       ... 1.0000e-11
Integration weight cutoff        WCut        ... 1.0000e-14
Angular grids for H and He will be reduced by one unit
Partially contracted basis set               ... on
Rotationally invariant grid construction     ... off

Total number of grid points                  ...     2087
Total number of batches                      ...       37
Average number of points per batch           ...       56
Average number of grid points per atom       ...      298

---------------
TD-DFT XC SETUP
---------------

DFT calculation                         ... on
Name of the grid file                   ... ox_es1_G_orca0007.grid_cis.tmp
Exchange functional (TD-DFT)            ... PBE
   PBE kappa parameter  XKappa (TD-DFT) ...  0.804000
   PBE mue parameter   XMuePBE (TD-DFT) ...  0.219520
Correlation functional (TD-DFT)         ... PBE
   PBE beta parameter CBetaPBE (TD-DFT) ...  0.066725
 LDA part of GGA corr.  LDAOpt (TD-DFT) ... PW91-LDA
Hybrid DFT                              ... on
   Exchange mixing (TD-DFT)             ...  0.250
   GGA exch. scaling (TD-DFT)           ...  0.750
   GGA corr. scaling (TD-DFT)           ...  1.000

Building densities             ... done
Calculating rho(r) on the grid ... done
Building xc-kernel on the grid ... done
                    *** TD-DFT CALCULATION INITIALIZED ***

------------------------
DAVIDSON-DIAGONALIZATION
------------------------

Dimension of the eigenvalue problem            ...    945
Number of roots to be determined               ...      1
Maximum size of the expansion space            ...     10
Maximum number of iterations                   ...    100
Convergence tolerance for the residual         ...    2.500e-07
Convergence tolerance for the energies         ...    2.500e-07
Orthogonality tolerance                        ...    1.000e-14
Level Shift                                    ...    0.000e+00
Constructing the preconditioner                ... o.k.
Building the initial guess                     ... o.k.
Number of trial vectors determined             ...     10


                       ****Iteration    0****

   Memory handling for direct AO based CIS:
   Memory per vector needed      ...     1 MB
   Memory needed                 ...     1 MB
   Memory available              ...  3000 MB
   Number of vectors per batch   ...  3000
   Number of batches             ...     1
   Time for densities:            0.000
   Time for RI-J (Direct):        0.015
   Time for K (COSX):             0.060
   Time for XC-Integration:       0.016
   Time for Sigma-Completion:     0.000
   Size of expansion space: 3
   Lowest Energy          :     0.010737339659
   Maximum Energy change  :     0.010737339659 (vector 0)
   Maximum residual norm  :     0.004620689539

                       ****Iteration    1****
   Time for densities:            0.000
   Time for RI-J (Direct):        0.013
   Time for K (COSX):             0.056
   Time for XC-Integration:       0.007
   Time for Sigma-Completion:     0.000
   Size of expansion space: 4
   Lowest Energy          :     0.007341509793
   Maximum Energy change  :     0.003395829865 (vector 0)
   Maximum residual norm  :     0.000339257058

                       ****Iteration    2****
   Time for densities:            0.000
   Time for RI-J (Direct):        0.013
   Time for K (COSX):             0.057
   Time for XC-Integration:       0.007
   Time for Sigma-Completion:     0.000
   Size of expansion space: 5
   Lowest Energy          :     0.007086550466
   Maximum Energy change  :     0.000254959327 (vector 0)
   Maximum residual norm  :     0.000010636226

                       ****Iteration    3****
   Time for densities:            0.000
   Time for RI-J (Direct):        0.013
   Time for K (COSX):             0.058
   Time for XC-Integration:       0.007
   Time for Sigma-Completion:     0.000
   Size of expansion space: 6
   Lowest Energy          :     0.007078726840
   Maximum Energy change  :     0.000007823626 (vector 0)
   Maximum residual norm  :     0.000000407698

                       ****Iteration    4****
   Time for densities:            0.000
   Time for RI-J (Direct):        0.013
   Time for K (COSX):             0.058
   Time for XC-Integration:       0.007
   Time for Sigma-Completion:     0.000
   Size of expansion space: 7
   Lowest Energy          :     0.007078477201
   Maximum Energy change  :     0.000000249639 (vector 0)

         *** CONVERGENCE OF ENERGIES REACHED ***

Storing the converged CI vectors               ... ox_es1_G_orca0007.cis1

                 *** DAVIDSON DONE ***

Total time for solving the CIS problem:     0.408sec

------------------------------------
TD-DFT/TDA EXCITED STATES (SINGLETS)
------------------------------------

the weight of the individual excitations are printed if larger than 1.0e-02

STATE  1:  E=   0.007078 au      0.193 eV     1553.5 cm**-1 <S**2> =   0.000000
    10a ->  12a  :     0.991599 (c= -0.99579079)


-----------------------------
TD-DFT/TDA-EXCITATION SPECTRA
-----------------------------

Center of mass = ( -1.0075, -0.0917,  0.0377)
Calculating the Dipole integrals                  ... done
Transforming integrals                            ... done
Calculating the Linear Momentum integrals         ... done
Transforming integrals                            ... done
Calculating angular momentum integrals            ... done
Transforming integrals                            ... done

-----------------------------------------------------------------------------
         ABSORPTION SPECTRUM VIA TRANSITION ELECTRIC DIPOLE MOMENTS
-----------------------------------------------------------------------------
State   Energy    Wavelength  fosc         T2        TX        TY        TZ  
        (cm-1)      (nm)                 (au**2)    (au)      (au)      (au) 
-----------------------------------------------------------------------------
   1    1553.5   6436.9   0.000021596   0.00458  -0.03279  -0.01966  -0.05581

-----------------------------------------------------------------------------
         ABSORPTION SPECTRUM VIA TRANSITION VELOCITY DIPOLE MOMENTS
-----------------------------------------------------------------------------
State   Energy    Wavelength   fosc        P2         PX        PY        PZ  
        (cm-1)      (nm)                 (au**2)     (au)      (au)      (au) 
-----------------------------------------------------------------------------
   1    1553.5   6436.9   0.247604189   0.00263  -0.02013  -0.04109  -0.02314

-------------------------------------------------------------------
                             CD SPECTRUM
-------------------------------------------------------------------
State  Energy     Wavelength     R         MX        MY        MZ   
       (cm-1)       (nm)     (1e40*cgs)   (au)      (au)      (au)  
-------------------------------------------------------------------
   1    1553.5   6436.9     -3.62157   0.19156  -0.29162   0.12783

-------------------------------------------------------------------
         CD SPECTRUM VIA TRANSITION VELOCITY DIPOLE MOMENTS        
-------------------------------------------------------------------
State  Energy     Wavelength     R         MX        MY        MZ   
       (cm-1)       (nm)     (1e40*cgs)   (au)      (au)      (au)  
-------------------------------------------------------------------
   1    1553.5   6436.9    344.28280   0.19156  -0.29162   0.12783

Total run time:        0.662 sec

           *** ORCA-CIS/TD-DFT FINISHED WITHOUT ERROR ***

Maximum memory used throughout the entire CIS-calculation: 49.4 MB

-----------------------
CIS/TD-DFT TOTAL ENERGY
-----------------------

    E(SCF)  =   -153.479458329 Eh
    DE(CIS) =      0.007078477 Eh (Root  1)
    ----------------------------- ---------
    E(tot)  =   -153.472379851 Eh



-------------------------------------------------------------------------------
                          DFT DISPERSION CORRECTION                            
                                                                               
                              DFTD3 V3.1  Rev 1                                
                          USING Becke-Johnson damping                          
-------------------------------------------------------------------------------
The PBE0 functional is recognized
Active option DFTDOPT                   ...         4   

molecular C6(AA) [au] = 394.928206 


            DFT-D V3
 parameters
 s6 scaling factor         :     1.0000 
 a1 scaling factor         :     0.4145 
 s8 scaling factor         :     1.2177 
 a2 scaling factor         :     4.8593 
 ad hoc parameters k1-k3   :    16.0000     1.3333    -4.0000 

 Edisp/kcal,au: -1.629527147473  -0.002596816528 
 E6   /kcal   :  -1.063293458 
 E8   /kcal   :  -0.566233690 
 % E8         :  34.748343441 

-------------------------   ----------------
Dispersion correction           -0.002596817
-------------------------   ----------------


-------------------------   --------------------
FINAL SINGLE POINT ENERGY      -153.474976667954
-------------------------   --------------------



           ************************************************************
           *        Program running with 8 parallel MPI-processes     *
           *              working on a common directory               *
           ************************************************************
------------------------------------------------------------------------------
                         ORCA SCF GRADIENT CALCULATION
------------------------------------------------------------------------------


------------------------
TD-DFT GRADIENT XC SETUP
------------------------

Building densities                     ... done
Calculating rho(r) on the grid         ... done
Building xc-kernel on the grid         ... done
Building xc 3rd derivative on the grid      ... done
                *** TD-DFT GRADIENT CALCULATION INITIALIZED ***

-------------------
TD-DFT/TDA GRADIENT
-------------------

Reference wavefunction             ... RHF
State of interest                  ... 1
Basis dimension                    ... 117
DFT-XC contribution needed         ... YES
RI-approximation                   ... ON
CIS-vectors being read from        ... ox_es1_G_orca0007.cis

 => Number of Vectors found: 1
 => Orbital Window: 3...11 -> 12...116

Reading the CIS file                     ... done
Norm of the CI vector                    ... 1.000000000
Making the CIS (pseudo)densities         ... done
Making operators G(D) and Q(T)           ... done
Transforming the Fock operators          ... done
Making the frozen-core relaxed density   ... done
Constructing the G(H) operator           ... done
Transforming the G(H) operator           ... done
Calculating the CIS Lagrangian           ... done
Solving the Z-vector equations           ... done
Finalizing the relaxed density           ... done
Storing the relaxed density              ... done
Constructing the G(Z) operator           ... done
Transforming the G(Z) operator           ... done
Making the W-matrix                      ... done
Finalizing the W-matrix                  ... done
Transforming the W-matrix                ... done
Nuclear repulsion gradient               ... done
One-Electron gradient                    ... done
Dispersion correction                    ... done
Prescreening matrices                    ... done
COSX-gradient                            ... done
Coulomb gradient (RI)                    ... done
Exchange-Correlation gradient            ... done

                 ---------------------------
                 EXCITED STATE GRADIENT DONE
                 ---------------------------

------------------
CARTESIAN GRADIENT
------------------

   1   O   :   -0.007293665   -0.062289001    0.021630238
   2   C   :    0.018218933   -0.019022201    0.029632181
   3   C   :    0.055025670    0.008366956    0.002676788
   4   H   :   -0.003126156    0.058039988   -0.044467240
   5   H   :   -0.028955045    0.018355075   -0.016944528
   6   H   :   -0.021434705   -0.004089982    0.040536561
   7   H   :   -0.012409624    0.000603547   -0.033040767

Difference to translation invariance:
           :    0.0000254087   -0.0000356183    0.0000232334

Difference to rotation invariance:
           :    0.0000509294    0.0002411196    0.0012970704

Norm of the cartesian gradient     ...    0.1387855588
RMS gradient                       ...    0.0302854918
MAX gradient                       ...    0.0622890014

------------------------------------------------------------------------------
                  RELAXED CIS/TDA DENSITY POPULATION ANALYSIS
                                   IROOT 1
------------------------------------------------------------------------------
------------------------------------------------------------------------------
                           ORCA POPULATION ANALYSIS
------------------------------------------------------------------------------
Input electron density              ... ox_es1_G_orca0007.cisp
BaseName (.gbw .S,...)              ... ox_es1_G_orca0007

                    ********************************
                    * MULLIKEN POPULATION ANALYSIS *
                    ********************************

-----------------------
MULLIKEN ATOMIC CHARGES
-----------------------
   0 O :   -0.357391
   1 C :   -0.116736
   2 C :   -0.154894
   3 H :    0.149808
   4 H :    0.156350
   5 H :    0.159308
   6 H :    0.163556
Sum of atomic charges:    0.0000000

--------------------------------
MULLIKEN REDUCED ORBITAL CHARGES
--------------------------------
  0 O s       :     3.905456  s :     3.905456
      pz      :     2.144197  p :     4.428504
      px      :     1.189690
      py      :     1.094617
      dz2     :     0.002761  d :     0.022309
      dxz     :     0.000666
      dyz     :     0.005057
      dx2y2   :     0.006137
      dxy     :     0.007687
      f0      :     0.000150  f :     0.001122
      f+1     :     0.000087
      f-1     :     0.000263
      f+2     :     0.000100
      f-2     :     0.000064
      f+3     :     0.000252
      f-3     :     0.000207
  1 C s       :     3.204653  s :     3.204653
      pz      :     1.078380  p :     2.763269
      px      :     0.890941
      py      :     0.793948
      dz2     :     0.010746  d :     0.138056
      dxz     :     0.026885
      dyz     :     0.041778
      dx2y2   :     0.029700
      dxy     :     0.028947
      f0      :     0.001780  f :     0.010758
      f+1     :     0.001155
      f-1     :     0.000525
      f+2     :     0.001771
      f-2     :     0.001432
      f+3     :     0.001677
      f-3     :     0.002418
  2 C s       :     3.288006  s :     3.288006
      pz      :     1.073194  p :     2.818616
      px      :     0.960462
      py      :     0.784960
      dz2     :     0.004585  d :     0.044365
      dxz     :     0.024783
      dyz     :     0.001748
      dx2y2   :     0.004328
      dxy     :     0.008921
      f0      :     0.000439  f :     0.003907
      f+1     :     0.001010
      f-1     :     0.000111
      f+2     :     0.000741
      f-2     :     0.000074
      f+3     :     0.000581
      f-3     :     0.000951
  3 H s       :     0.823122  s :     0.823122
      pz      :     0.010637  p :     0.027071
      px      :     0.008735
      py      :     0.007699
  4 H s       :     0.822009  s :     0.822009
      pz      :     0.010285  p :     0.021641
      px      :     0.006199
      py      :     0.005157
  5 H s       :     0.816275  s :     0.816275
      pz      :     0.011941  p :     0.024417
      px      :     0.006954
      py      :     0.005521
  6 H s       :     0.812480  s :     0.812480
      pz      :     0.010985  p :     0.023964
      px      :     0.007631
      py      :     0.005347


                     *******************************
                     * LOEWDIN POPULATION ANALYSIS *
                     *******************************

----------------------
LOEWDIN ATOMIC CHARGES
----------------------
   0 O :   -0.081374
   1 C :   -0.421557
   2 C :   -0.021040
   3 H :    0.121958
   4 H :    0.174970
   5 H :    0.112614
   6 H :    0.114429

-------------------------------
LOEWDIN REDUCED ORBITAL CHARGES
-------------------------------
  0 O s       :     3.589398  s :     3.589398
      pz      :     2.067058  p :     4.432946
      px      :     1.177021
      py      :     1.188867
      dz2     :     0.006046  d :     0.055616
      dxz     :     0.002210
      dyz     :     0.016184
      dx2y2   :     0.016093
      dxy     :     0.015084
      f0      :     0.000459  f :     0.003415
      f+1     :     0.000150
      f-1     :     0.000481
      f+2     :     0.000386
      f-2     :     0.000386
      f+3     :     0.000705
      f-3     :     0.000848
  1 C s       :     2.818444  s :     2.818444
      pz      :     1.075320  p :     2.991778
      px      :     1.032251
      py      :     0.884207
      dz2     :     0.069246  d :     0.539120
      dxz     :     0.105743
      dyz     :     0.113332
      dx2y2   :     0.120589
      dxy     :     0.130210
      f0      :     0.011572  f :     0.072215
      f+1     :     0.007339
      f-1     :     0.005409
      f+2     :     0.009175
      f-2     :     0.010369
      f+3     :     0.015251
      f-3     :     0.013099
  2 C s       :     2.895526  s :     2.895526
      pz      :     1.084516  p :     2.886480
      px      :     1.077918
      py      :     0.724045
      dz2     :     0.028641  d :     0.216564
      dxz     :     0.116191
      dyz     :     0.004741
      dx2y2   :     0.033710
      dxy     :     0.033281
      f0      :     0.003576  f :     0.022471
      f+1     :     0.003936
      f-1     :     0.000788
      f+2     :     0.004593
      f-2     :     0.000981
      f+3     :     0.004089
      f-3     :     0.004508
  3 H s       :     0.798595  s :     0.798595
      pz      :     0.033433  p :     0.079447
      px      :     0.024109
      py      :     0.021905
  4 H s       :     0.769099  s :     0.769099
      pz      :     0.028015  p :     0.055931
      px      :     0.015395
      py      :     0.012521
  5 H s       :     0.811401  s :     0.811401
      pz      :     0.038270  p :     0.075985
      px      :     0.020572
      py      :     0.017143
  6 H s       :     0.811262  s :     0.811262
      pz      :     0.035212  p :     0.074309
      px      :     0.022561
      py      :     0.016536


                      *****************************
                      * MAYER POPULATION ANALYSIS *
                      *****************************

  NA   - Mulliken gross atomic population
  ZA   - Total nuclear charge
  QA   - Mulliken gross atomic charge
  VA   - Mayer's total valence
  BVA  - Mayer's bonded valence
  FA   - Mayer's free valence

  ATOM       NA         ZA         QA         VA         BVA        FA
  0 O      8.3574     8.0000    -0.3574     1.3721     1.0329     0.3392
  1 C      6.1167     6.0000    -0.1167     4.0381     4.0074     0.0307
  2 C      6.1549     6.0000    -0.1549     3.8228     3.1259     0.6969
  3 H      0.8502     1.0000     0.1498     0.9771     0.9955    -0.0184
  4 H      0.8437     1.0000     0.1563     0.9644     0.9393     0.0251
  5 H      0.8407     1.0000     0.1593     0.9608     0.9564     0.0044
  6 H      0.8364     1.0000     0.1636     0.9622     0.9544     0.0078

  Mayer bond orders larger than 0.100000
B(  0-O ,  1-C ) :   0.9558 B(  1-C ,  2-C ) :   1.1374 B(  1-C ,  3-H ) :   0.9952 
B(  1-C ,  4-H ) :   0.9162 B(  2-C ,  5-H ) :   0.9536 B(  2-C ,  6-H ) :   0.9495 



-------
TIMINGS
-------

Total TD-DFT gradient time         ...        6.571 sec

Fock matrix formation       ....       0.942 sec  ( 14.3%)
  Coulomb formation         ....       0.765 sec  ( 81.1% of F)
  RI-J                      ....       0.317 sec  ( 33.7% of F)
  Chain of spheres X        ....       0.447 sec  ( 47.4% of F)
  XC integration            ....       0.178 sec  ( 18.9% of F)
Z-vector equation           ....       2.648 sec  ( 40.3%)
One electron gradient       ....       0.036 sec  (  0.6%)
Prescreening matrices       ....       0.169 sec  (  2.6%)
RI-J Coulomb gradient       ....       0.284 sec  (  4.3%)
COSX gradient               ....       0.395 sec  (  6.0%)
XC gradient                 ....       1.775 sec  ( 27.0%)

Maximum memory used throughout the entire SCFGRAD-calculation: 130.2 MB

                            ***************************************
                            *     ORCA property calculations      *
                            ***************************************

                                    ---------------------
                                    Active property flags
                                    ---------------------
   (+) Dipole Moment


------------------------------------------------------------------------------
                       ORCA ELECTRIC PROPERTIES CALCULATION
------------------------------------------------------------------------------

Dipole Moment Calculation                       ... on
Quadrupole Moment Calculation                   ... off
Polarizability Calculation                      ... off
GBWName                                         ... ox_es1_G_orca0007.gbw
Electron density                                ... ox_es1_G_orca0007.scfp
The origin for moment calculation is the CENTER OF MASS  = (-1.007475, -0.091725  0.037735)

-------------
DIPOLE MOMENT
-------------
                                X             Y             Z
Electronic contribution:     -0.80832       1.28498       0.10736
Nuclear contribution   :      1.85852      -2.42502      -0.07870
                        -----------------------------------------
Total Dipole Moment    :      1.05021      -1.14004       0.02866
                        -----------------------------------------
Magnitude (a.u.)       :      1.55031
Magnitude (Debye)      :      3.94056



--------------------
Rotational spectrum 
--------------------
 
Rotational constants in cm-1:     1.701196     0.315341     0.296154 
Rotational constants in MHz : 51000.569024  9453.697890  8878.459943 

 Dipole components along the rotational axes: 
x,y,z [a.u.] :    -1.484192    -0.447910    -0.000306 
x,y,z [Debye]:    -3.772515    -1.138496    -0.000778 

 

                        *** CIS RELAXED DENSITY ***

------------------------------------------------------------------------------
                       ORCA ELECTRIC PROPERTIES CALCULATION
------------------------------------------------------------------------------

Dipole Moment Calculation                       ... on
Quadrupole Moment Calculation                   ... off
Polarizability Calculation                      ... off
GBWName                                         ... ox_es1_G_orca0007.gbw
Electron density                                ... ox_es1_G_orca0007.cisp
The origin for moment calculation is the CENTER OF MASS  = (-1.007475, -0.091725  0.037735)

-------------
DIPOLE MOMENT
-------------
                                X             Y             Z
Electronic contribution:     -0.88826       1.46403       0.09520
Nuclear contribution   :      1.85852      -2.42502      -0.07870
                        -----------------------------------------
Total Dipole Moment    :      0.97026      -0.96100       0.01650
                        -----------------------------------------
Magnitude (a.u.)       :      1.36572
Magnitude (Debye)      :      3.47139



--------------------
Rotational spectrum 
--------------------
 
Rotational constants in cm-1:     1.701196     0.315341     0.296154 
Rotational constants in MHz : 51000.569024  9453.697890  8878.459943 

 Dipole components along the rotational axes: 
x,y,z [a.u.] :    -1.324104    -0.334434    -0.009854 
x,y,z [Debye]:    -3.365606    -0.850064    -0.025046 

 

Timings for individual modules:

Sum of individual times         ...        9.144 sec (=   0.152 min)
GTO integral calculation        ...        0.261 sec (=   0.004 min)   2.8 %
SCF iterations                  ...        1.280 sec (=   0.021 min)  14.0 %
CIS module                      ...        0.863 sec (=   0.014 min)   9.4 %
SCF Gradient evaluation         ...        6.741 sec (=   0.112 min)  73.7 %
                             ****ORCA TERMINATED NORMALLY****
TOTAL RUN TIME: 0 days 0 hours 0 minutes 9 seconds 452 msec
