
                                 *****************
                                 * O   R   C   A *
                                 *****************

                                            #,                                       
                                            ###                                      
                                            ####                                     
                                            #####                                    
                                            ######                                   
                                           ########,                                 
                                     ,,################,,,,,                         
                               ,,#################################,,                 
                          ,,##########################################,,             
                       ,#########################################, ''#####,          
                    ,#############################################,,   '####,        
                  ,##################################################,,,,####,       
                ,###########''''           ''''###############################       
              ,#####''   ,,,,##########,,,,          '''####'''          '####       
            ,##' ,,,,###########################,,,                        '##       
           ' ,,###''''                  '''############,,,                           
         ,,##''                                '''############,,,,        ,,,,,,###''
      ,#''                                            '''#######################'''  
     '                                                          ''''####''''         
             ,#######,   #######,   ,#######,      ##                                
            ,#'     '#,  ##    ##  ,#'     '#,    #''#        ######   ,####,        
            ##       ##  ##   ,#'  ##            #'  '#       #        #'  '#        
            ##       ##  #######   ##           ,######,      #####,   #    #        
            '#,     ,#'  ##    ##  '#,     ,#' ,#      #,         ##   #,  ,#        
             '#######'   ##     ##  '#######'  #'      '#     #####' # '####'        



                  #######################################################
                  #                        -***-                        #
                  #          Department of theory and spectroscopy      #
                  #    Directorship and core code : Frank Neese         #
                  #        Max Planck Institute fuer Kohlenforschung    #
                  #                Kaiser Wilhelm Platz 1               #
                  #                 D-45470 Muelheim/Ruhr               #
                  #                      Germany                        #
                  #                                                     #
                  #                  All rights reserved                #
                  #                        -***-                        #
                  #######################################################


                         Program Version 5.0.2 -  RELEASE  -


 With contributions from (in alphabetic order):
   Daniel Aravena         : Magnetic Suceptibility
   Michael Atanasov       : Ab Initio Ligand Field Theory (pilot matlab implementation)
   Alexander A. Auer      : GIAO ZORA, VPT2 properties, NMR spectrum
   Ute Becker             : Parallelization
   Giovanni Bistoni       : ED, misc. LED, open-shell LED, HFLD
   Martin Brehm           : Molecular dynamics
   Dmytro Bykov           : SCF Hessian
   Vijay G. Chilkuri      : MRCI spin determinant printing, contributions to CSF-ICE
   Dipayan Datta          : RHF DLPNO-CCSD density
   Achintya Kumar Dutta   : EOM-CC, STEOM-CC
   Dmitry Ganyushin       : Spin-Orbit,Spin-Spin,Magnetic field MRCI
   Miquel Garcia          : C-PCM and meta-GGA Hessian, CC/C-PCM, Gaussian charge scheme
   Yang Guo               : DLPNO-NEVPT2, F12-NEVPT2, CIM, IAO-localization
   Andreas Hansen         : Spin unrestricted coupled pair/coupled cluster methods
   Benjamin Helmich-Paris : MC-RPA, TRAH-SCF, COSX integrals
   Lee Huntington         : MR-EOM, pCC
   Robert Izsak           : Overlap fitted RIJCOSX, COSX-SCS-MP3, EOM
   Marcus Kettner         : VPT2
   Christian Kollmar      : KDIIS, OOCD, Brueckner-CCSD(T), CCSD density, CASPT2, CASPT2-K
   Simone Kossmann        : Meta GGA functionals, TD-DFT gradient, OOMP2, MP2 Hessian
   Martin Krupicka        : Initial AUTO-CI
   Lucas Lang             : DCDCAS
   Marvin Lechner         : AUTO-CI (C++ implementation), FIC-MRCC
   Dagmar Lenk            : GEPOL surface, SMD
   Dimitrios Liakos       : Extrapolation schemes; Compound Job, initial MDCI parallelization
   Dimitrios Manganas     : Further ROCIS development; embedding schemes
   Dimitrios Pantazis     : SARC Basis sets
   Anastasios Papadopoulos: AUTO-CI, single reference methods and gradients
   Taras Petrenko         : DFT Hessian,TD-DFT gradient, ASA, ECA, R-Raman, ABS, FL, XAS/XES, NRVS
   Peter Pinski           : DLPNO-MP2, DLPNO-MP2 Gradient
   Christoph Reimann      : Effective Core Potentials
   Marius Retegan         : Local ZFS, SOC
   Christoph Riplinger    : Optimizer, TS searches, QM/MM, DLPNO-CCSD(T), (RO)-DLPNO pert. Triples
   Tobias Risthaus        : Range-separated hybrids, TD-DFT gradient, RPA, STAB
   Michael Roemelt        : Original ROCIS implementation
   Masaaki Saitow         : Open-shell DLPNO-CCSD energy and density
   Barbara Sandhoefer     : DKH picture change effects
   Avijit Sen             : IP-ROCIS
   Kantharuban Sivalingam : CASSCF convergence, NEVPT2, FIC-MRCI
   Bernardo de Souza      : ESD, SOC TD-DFT
   Georgi Stoychev        : AutoAux, RI-MP2 NMR, DLPNO-MP2 response
   Willem Van den Heuvel  : Paramagnetic NMR
   Boris Wezisla          : Elementary symmetry handling
   Frank Wennmohs         : Technical directorship


 We gratefully acknowledge several colleagues who have allowed us to
 interface, adapt or use parts of their codes:
   Stefan Grimme, W. Hujo, H. Kruse, P. Pracht,  : VdW corrections, initial TS optimization,
                  C. Bannwarth, S. Ehlert          DFT functionals, gCP, sTDA/sTD-DF
   Ed Valeev, F. Pavosevic, A. Kumar             : LibInt (2-el integral package), F12 methods
   Garnet Chan, S. Sharma, J. Yang, R. Olivares  : DMRG
   Ulf Ekstrom                                   : XCFun DFT Library
   Mihaly Kallay                                 : mrcc  (arbitrary order and MRCC methods)
   Jiri Pittner, Ondrej Demel                    : Mk-CCSD
   Frank Weinhold                                : gennbo (NPA and NBO analysis)
   Christopher J. Cramer and Donald G. Truhlar   : smd solvation model
   Lars Goerigk                                  : TD-DFT with DH, B97 family of functionals
   V. Asgeirsson, H. Jonsson                     : NEB implementation
   FAccTs GmbH                                   : IRC, NEB, NEB-TS, DLPNO-Multilevel, CI-OPT
                                                   MM, QMMM, 2- and 3-layer-ONIOM, Crystal-QMMM,
                                                   LR-CPCM, SF, NACMEs, symmetry and pop. for TD-DFT,
                                                   nearIR, NL-DFT gradient (VV10), updates on ESD,
                                                   ML-optimized integration grids
   S Lehtola, MJT Oliveira, MAL Marques          : LibXC Library
   Liviu Ungur et al                             : ANISO software


 Your calculation uses the libint2 library for the computation of 2-el integrals
 For citations please refer to: http://libint.valeyev.net

 Your ORCA version has been built with support for libXC version: 5.1.0
 For citations please refer to: https://tddft.org/programs/libxc/

 This ORCA versions uses:
   CBLAS   interface :  Fast vector & matrix operations
   LAPACKE interface :  Fast linear algebra routines
   SCALAPACK package :  Parallel linear algebra routines
   Shared memory     :  Shared parallel matrices
   BLAS/LAPACK       :  OpenBLAS 0.3.15  USE64BITINT DYNAMIC_ARCH NO_AFFINITY SkylakeX SINGLE_THREADED
        Core in use  :  SkylakeX
   Copyright (c) 2011-2014, The OpenBLAS Project


Your calculation utilizes the atom-pairwise dispersion correction
with the Becke-Johnson damping scheme (D3BJ)
Cite in your paper:
S.Grimme, S.Ehrlich, L.Goerigk, J Comput Chem, (2011), 32, 1456–1465 
S.Grimme, J.Antony, S.Ehrlich and H.Krieg, J.Chem.Phys., 132, (2010), 154104 
   

================================================================================

----- Orbital basis set information -----
Your calculation utilizes the basis: def2-TZVP
   F. Weigend and R. Ahlrichs, Phys. Chem. Chem. Phys. 7, 3297 (2005).

----- AuxJ basis set information -----
Your calculation utilizes the auxiliary basis: def2/J
   F. Weigend, Phys. Chem. Chem. Phys. 8, 1057 (2006).

================================================================================
                                        WARNINGS
                       Please study these warnings very carefully!
================================================================================

INFO   : Checking CIS options ...

WARNING: CIS/ROCIS methods need fully converged wavefunctions
  ===> : Setting SCFConvForced true
         You can overwrite this default with %scf ConvForced false 


INFO   : the flag for use of the SHARK integral package has been found!

================================================================================
                                       INPUT FILE
================================================================================
NAME = ox_es1_A_orca0029.inp
|  1> ! engrad PBE0 D3BJ def2-TZVP  
|  2> %pal nprocs 8 end
|  3> %maxcore 3000
|  4> 
|  5> %tddft
|  6>   nroots 1
|  7>   tda true
|  8>   Iroot 1
|  9>   end 
| 10> *xyz 0 1 
| 11> O   0.07480226557445915 0.7996425928177029 -0.0027791235455227534
| 12> C   -0.714891158684009 -0.5032949423649188 0.12228759898084132
| 13> C   0.7353505990987613 -0.4415507502697553 0.036288331194934596
| 14> H   -1.2397724684131641 -0.6570766087860435 0.8804524972277344
| 15> H   -1.2402493521432 -0.5741696851762483 -0.8527052176922512
| 16> H   1.3434821513319697 -0.6938316438215593 -0.969456461012929
| 17> H   1.2575335239950176 -0.6654845643855652 0.9746857459235474
| 18> *
| 19> 
| 20>                          ****END OF INPUT****
================================================================================

                     *******************************
                     * Energy+Gradient Calculation *
                     *******************************

---------------------------------
CARTESIAN COORDINATES (ANGSTROEM)
---------------------------------
  O      0.074802    0.799643   -0.002779
  C     -0.714891   -0.503295    0.122288
  C      0.735351   -0.441551    0.036288
  H     -1.239772   -0.657077    0.880452
  H     -1.240249   -0.574170   -0.852705
  H      1.343482   -0.693832   -0.969456
  H      1.257534   -0.665485    0.974686

----------------------------
CARTESIAN COORDINATES (A.U.)
----------------------------
  NO LB      ZA    FRAG     MASS         X           Y           Z
   0 O     8.0000    0    15.999    0.141356    1.511106   -0.005252
   1 C     6.0000    0    12.011   -1.350949   -0.951090    0.231090
   2 C     6.0000    0    12.011    1.389611   -0.834410    0.068575
   3 H     1.0000    0     1.008   -2.342830   -1.241695    1.663814
   4 H     1.0000    0     1.008   -2.343732   -1.085023   -1.611379
   5 H     1.0000    0     1.008    2.538813   -1.311152   -1.832007
   6 H     1.0000    0     1.008    2.376394   -1.257584    1.841889

--------------------------------
INTERNAL COORDINATES (ANGSTROEM)
--------------------------------
 O      0   0   0     0.000000000000     0.00000000     0.00000000
 C      1   0   0     1.528693432310     0.00000000     0.00000000
 C      1   2   0     1.406560088253    59.21679341     0.00000000
 H      2   1   3     0.934859991209   119.77467637   118.00481710
 H      2   1   3     1.109790724942   103.12626479   248.50396715
 H      3   1   2     1.202078292428   113.54932819   116.82433686
 H      3   1   2     1.097000942628   115.30496165   253.49254973

---------------------------
INTERNAL COORDINATES (A.U.)
---------------------------
 O      0   0   0     0.000000000000     0.00000000     0.00000000
 C      1   0   0     2.888811929790     0.00000000     0.00000000
 C      1   2   0     2.658013357702    59.21679341     0.00000000
 H      2   1   3     1.766629356946   119.77467637   118.00481710
 H      2   1   3     2.097200536106   103.12626479   248.50396715
 H      3   1   2     2.271598764220   113.54932819   116.82433686
 H      3   1   2     2.073031350221   115.30496165   253.49254973

---------------------
BASIS SET INFORMATION
---------------------
There are 3 groups of distinct atoms

 Group   1 Type O   : 11s6p2d1f contracted to 5s3p2d1f pattern {62111/411/11/1}
 Group   2 Type C   : 11s6p2d1f contracted to 5s3p2d1f pattern {62111/411/11/1}
 Group   3 Type H   : 5s1p contracted to 3s1p pattern {311/1}

Atom   0O    basis set group =>   1
Atom   1C    basis set group =>   2
Atom   2C    basis set group =>   2
Atom   3H    basis set group =>   3
Atom   4H    basis set group =>   3
Atom   5H    basis set group =>   3
Atom   6H    basis set group =>   3
---------------------------------
AUXILIARY/J BASIS SET INFORMATION
---------------------------------
There are 3 groups of distinct atoms

 Group   1 Type O   : 12s5p4d2f1g contracted to 6s4p3d1f1g pattern {711111/2111/211/2/1}
 Group   2 Type C   : 12s5p4d2f1g contracted to 6s4p3d1f1g pattern {711111/2111/211/2/1}
 Group   3 Type H   : 5s2p1d contracted to 3s1p1d pattern {311/2/1}

Atom   0O    basis set group =>   1
Atom   1C    basis set group =>   2
Atom   2C    basis set group =>   2
Atom   3H    basis set group =>   3
Atom   4H    basis set group =>   3
Atom   5H    basis set group =>   3
Atom   6H    basis set group =>   3

Checking for AutoStart:
The File: ox_es1_A_orca0029.gbw exists
Trying to determine its content:
     ... Fine, the file contains calculation information
     ... Fine, the calculation information was read
     ... Fine, the file contains a basis set
     ... Fine, the basis set was read
     ... Fine, the file contains a geometry
     ... Fine, the geometry was read
     ... Fine, the file contains a set of orbitals
     ... Fine, the orbitals can be read
     => possible old guess file was deleted
     => GBW file was renamed to GES file
     => GES file is set as startup file
     => Guess is set to MORead
     ... now leaving AutoStart



           ************************************************************
           *        Program running with 8 parallel MPI-processes     *
           *              working on a common directory               *
           ************************************************************
------------------------------------------------------------------------------
                           ORCA GTO INTEGRAL CALCULATION
                           -- RI-GTO INTEGRALS CHOSEN --
------------------------------------------------------------------------------
------------------------------------------------------------------------------
                   ___                                                        
                  /   \      - P O W E R E D   B Y -                         
                 /     \                                                     
                 |  |  |   _    _      __       _____    __    __             
                 |  |  |  | |  | |    /  \     |  _  \  |  |  /  |          
                  \  \/   | |  | |   /    \    | | | |  |  | /  /          
                 / \  \   | |__| |  /  /\  \   | |_| |  |  |/  /          
                |  |  |   |  __  | /  /__\  \  |    /   |      \           
                |  |  |   | |  | | |   __   |  |    \   |  |\   \          
                \     /   | |  | | |  |  |  |  | |\  \  |  | \   \       
                 \___/    |_|  |_| |__|  |__|  |_| \__\ |__|  \__/        
                                                                              
                      - O R C A' S   B I G   F R I E N D -                    
                                      &                                       
                       - I N T E G R A L  F E E D E R -                       
                                                                              
 v1 FN, 2020, v2 2021                                                         
------------------------------------------------------------------------------


Reading SHARK input file ox_es1_A_orca0029.SHARKINP.tmp ... ok
----------------------
SHARK INTEGRAL PACKAGE
----------------------

Number of atoms                             ...      7
Number of basis functions                   ...    117
Number of shells                            ...     49
Maximum angular momentum                    ...      3
Integral batch strategy                     ... SHARK/LIBINT Hybrid
RI-J (if used) integral strategy            ... SPLIT-RIJ (Revised 2003 algorithm where possible)
Printlevel                                  ...      1
Contraction scheme used                     ... SEGMENTED contraction
Coulomb Range Separation                    ... NOT USED
Exchange Range Separation                   ... NOT USED
Finite Nucleus Model                        ... NOT USED
Auxiliary Coulomb fitting basis             ... AVAILABLE
   # of basis functions in Aux-J            ...    191
   # of shells in Aux-J                     ...     65
   Maximum angular momentum in Aux-J        ...      4
Auxiliary J/K fitting basis                 ... NOT available
Auxiliary Correlation fitting basis         ... NOT available
Auxiliary 'external' fitting basis          ... NOT available
Integral threshold                          ...     2.500000e-11
Primitive cut-off                           ...     2.500000e-12
Primitive pair pre-selection threshold      ...     2.500000e-12

Calculating pre-screening integrals         ... done (  0.0 sec) Dimension = 49
Organizing shell pair data                  ... done (  0.0 sec)
Shell pair information
Total number of shell pairs                 ...      1225
Shell pairs after pre-screening             ...      1220
Total number of primitive shell pairs       ...      3648
Primitive shell pairs kept                  ...      3147
          la=0 lb=0:    373 shell pairs
          la=1 lb=0:    351 shell pairs
          la=1 lb=1:     91 shell pairs
          la=2 lb=0:    162 shell pairs
          la=2 lb=1:     78 shell pairs
          la=2 lb=2:     21 shell pairs
          la=3 lb=0:     81 shell pairs
          la=3 lb=1:     39 shell pairs
          la=3 lb=2:     18 shell pairs
          la=3 lb=3:      6 shell pairs

Calculating one electron integrals          ... done (  0.0 sec)
Calculating RI/J V-Matrix + Cholesky decomp.... done (  0.0 sec)
Calculating Nuclear repulsion               ... done (  0.0 sec) ENN=     74.596761777861 Eh

SHARK setup successfully completed in   0.1 seconds

Maximum memory used throughout the entire GTOINT-calculation: 14.9 MB


           ************************************************************
           *        Program running with 8 parallel MPI-processes     *
           *              working on a common directory               *
           ************************************************************
-------------------------------------------------------------------------------
                                 ORCA SCF
-------------------------------------------------------------------------------

------------
SCF SETTINGS
------------
Hamiltonian:
 Density Functional     Method          .... DFT(GTOs)
 Exchange Functional    Exchange        .... PBE
   PBE kappa parameter   XKappa         ....  0.804000
   PBE mue parameter    XMuePBE         ....  0.219520
 Correlation Functional Correlation     .... PBE
   PBE beta parameter  CBetaPBE         ....  0.066725
 LDA part of GGA corr.  LDAOpt          .... PW91-LDA
 Gradients option       PostSCFGGA      .... off
 Hybrid DFT is turned on
   Fraction HF Exchange ScalHFX         ....  0.250000
   Scaling of DF-GGA-X  ScalDFX         ....  0.750000
   Scaling of DF-GGA-C  ScalDFC         ....  1.000000
   Scaling of DF-LDA-C  ScalLDAC        ....  1.000000
   Perturbative correction              ....  0.000000
   Density functional embedding theory  .... OFF
   NL short-range parameter             ....  6.900000
 RI-approximation to the Coulomb term is turned on
   Number of AuxJ basis functions       .... 191
   RIJ-COSX (HFX calculated with COS-X)).... on


General Settings:
 Integral files         IntName         .... ox_es1_A_orca0029
 Hartree-Fock type      HFTyp           .... RHF
 Total Charge           Charge          ....    0
 Multiplicity           Mult            ....    1
 Number of Electrons    NEL             ....   24
 Basis Dimension        Dim             ....  117
 Nuclear Repulsion      ENuc            ....     74.5967617779 Eh

Convergence Acceleration:
 DIIS                   CNVDIIS         .... on
   Start iteration      DIISMaxIt       ....    12
   Startup error        DIISStart       ....  0.200000
   # of expansion vecs  DIISMaxEq       ....     5
   Bias factor          DIISBfac        ....   1.050
   Max. coefficient     DIISMaxC        ....  10.000
 Trust-Rad. Augm. Hess. CNVTRAH         .... auto
   Auto Start mean grad. ratio tolernc. ....  1.125000
   Auto Start start iteration           ....     1
   Auto Start num. interpolation iter.  ....    10
   Max. Number of Micro iterations      ....    16
   Max. Number of Macro iterations      .... Maxiter - #DIIS iter
   Number of Davidson start vectors     ....     2
   Converg. threshold I  (grad. norm)   ....   1.000e-05
   Converg. threshold II (energy diff.) ....   1.000e-08
   Grad. Scal. Fac. for Micro threshold ....   0.100
   Minimum threshold for Micro iter.    ....   0.010
   NR start threshold (gradient norm)   ....   0.001
   Initial trust radius                 ....   0.400
   Minimum AH scaling param. (alpha)    ....   1.000
   Maximum AH scaling param. (alpha)    .... 1000.000
   Orbital update algorithm             .... Taylor
   White noise on init. David. guess    .... on
   Maximum white noise                  ....   0.010
   Quad. conv. algorithm                .... NR
 SOSCF                  CNVSOSCF        .... on
   Start iteration      SOSCFMaxIt      ....   150
   Startup grad/error   SOSCFStart      ....  0.003300
 Level Shifting         CNVShift        .... on
   Level shift para.    LevelShift      ....    0.2500
   Turn off err/grad.   ShiftErr        ....    0.0010
 Zerner damping         CNVZerner       .... off
 Static damping         CNVDamp         .... on
   Fraction old density DampFac         ....    0.7000
   Max. Damping (<1)    DampMax         ....    0.9800
   Min. Damping (>=0)   DampMin         ....    0.0000
   Turn off err/grad.   DampErr         ....    0.1000
 Fernandez-Rico         CNVRico         .... off

SCF Procedure:
 Maximum # iterations   MaxIter         ....   125
 SCF integral mode      SCFMode         .... Direct
   Integral package                     .... SHARK and LIBINT hybrid scheme
 Reset frequency        DirectResetFreq ....    20
 Integral Threshold     Thresh          ....  2.500e-11 Eh
 Primitive CutOff       TCut            ....  2.500e-12 Eh

Convergence Tolerance:
 Convergence Check Mode ConvCheckMode   .... Total+1el-Energy
 Convergence forced     ConvForced      .... 1
 Energy Change          TolE            ....  1.000e-08 Eh
 1-El. energy change                    ....  1.000e-05 Eh
 Orbital Gradient       TolG            ....  1.000e-05
 Orbital Rotation angle TolX            ....  1.000e-05
 DIIS Error             TolErr          ....  5.000e-07


Diagonalization of the overlap matrix:
Smallest eigenvalue                        ... 3.712e-04
Time for diagonalization                   ...    0.001 sec
Threshold for overlap eigenvalues          ... 1.000e-08
Number of eigenvalues below threshold      ... 0
Time for construction of square roots      ...    0.001 sec
Total time needed                          ...    0.003 sec

---------------------
INITIAL GUESS: MOREAD
---------------------
Guess MOs are being read from file: ox_es1_A_orca0029.ges
Input Geometry matches current geometry (good)
Input basis set matches current basis set (good)
MOs were renormalized
MOs were reorthogonalized (Cholesky)
                      ------------------
                      INITIAL GUESS DONE (   0.0 sec)
                      ------------------
-------------------
DFT GRID GENERATION
-------------------

General Integration Accuracy     IntAcc      ... 4.388
Radial Grid Type                 RadialGrid  ... OptM3 with GC (2021)
Angular Grid (max. ang.)         AngularGrid ... 4 (Lebedev-302)
Angular grid pruning method      GridPruning ... 4 (adaptive)
Weight generation scheme         WeightScheme... Becke
Basis function cutoff            BFCut       ... 1.0000e-11
Integration weight cutoff        WCut        ... 1.0000e-14
Angular grids for H and He will be reduced by one unit
Partially contracted basis set               ... off
Rotationally invariant grid construction     ... off

Total number of grid points                  ...    31316
Total number of batches                      ...      492
Average number of points per batch           ...       63
Average number of grid points per atom       ...     4474
Time for grid setup =    0.117 sec

--------------------
COSX GRID GENERATION
--------------------

GRIDX 1
-------
General Integration Accuracy     IntAcc      ... 3.816
Radial Grid Type                 RadialGrid  ... OptM3 with GC (2021)
Angular Grid (max. ang.)         AngularGrid ... 1 (Lebedev-50)
Angular grid pruning method      GridPruning ... 4 (adaptive)
Weight generation scheme         WeightScheme... Becke
Basis function cutoff            BFCut       ... 1.0000e-11
Integration weight cutoff        WCut        ... 1.0000e-14
Angular grids for H and He will be reduced by one unit
Partially contracted basis set               ... on
Rotationally invariant grid construction     ... off

Total number of grid points                  ...     4038
Total number of batches                      ...       68
Average number of points per batch           ...       59
Average number of grid points per atom       ...      577
UseSFitting                                  ... on

GRIDX 2
-------
General Integration Accuracy     IntAcc      ... 4.020
Radial Grid Type                 RadialGrid  ... OptM3 with GC (2021)
Angular Grid (max. ang.)         AngularGrid ... 2 (Lebedev-110)
Angular grid pruning method      GridPruning ... 4 (adaptive)
Weight generation scheme         WeightScheme... Becke
Basis function cutoff            BFCut       ... 1.0000e-11
Integration weight cutoff        WCut        ... 1.0000e-14
Angular grids for H and He will be reduced by one unit
Partially contracted basis set               ... on
Rotationally invariant grid construction     ... off

Total number of grid points                  ...     8718
Total number of batches                      ...      141
Average number of points per batch           ...       61
Average number of grid points per atom       ...     1245
UseSFitting                                  ... on

GRIDX 3
-------
General Integration Accuracy     IntAcc      ... 4.338
Radial Grid Type                 RadialGrid  ... OptM3 with GC (2021)
Angular Grid (max. ang.)         AngularGrid ... 3 (Lebedev-194)
Angular grid pruning method      GridPruning ... 4 (adaptive)
Weight generation scheme         WeightScheme... Becke
Basis function cutoff            BFCut       ... 1.0000e-11
Integration weight cutoff        WCut        ... 1.0000e-14
Angular grids for H and He will be reduced by one unit
Partially contracted basis set               ... on
Rotationally invariant grid construction     ... off

Total number of grid points                  ...    19239
Total number of batches                      ...      304
Average number of points per batch           ...       63
Average number of grid points per atom       ...     2748
UseSFitting                                  ... on

Time for X-Grid setup             =    0.072 sec

--------------
SCF ITERATIONS
--------------
ITER       Energy         Delta-E        Max-DP      RMS-DP      [F,P]     Damp
               ***  Starting incremental Fock matrix formation  ***
                      *** Initiating the SOSCF procedure ***
                      *** Re-Reading the Fockian *** 
                      *** Removing any level shift *** 
ITER      Energy       Delta-E        Grad      Rot      Max-DP    RMS-DP
  0   -153.63851760 -153.6385175958  0.000001  0.000001  0.000001  0.000000
               *** Restarting incremental Fock matrix formation ***
                  ***Gradient check signals convergence***
              ***Rediagonalizing the Fockian in SOSCF/NRSCF***

               *****************************************************
               *                     SUCCESS                       *
               *           SCF CONVERGED AFTER   1 CYCLES          *
               *****************************************************

Old exchange energy                            =     -4.993472270 Eh
New exchange energy                            =     -4.993463145 Eh
Exchange energy change after final integration =      0.000009124 Eh
Total energy after final integration           =   -153.638508471 Eh
Final COS-X integration done in                =     0.256 sec

----------------
TOTAL SCF ENERGY
----------------

Total Energy       :         -153.63850847 Eh           -4180.71636 eV

Components:
Nuclear Repulsion  :           74.59676178 Eh            2029.88109 eV
Electronic Energy  :         -228.23527025 Eh           -6210.59744 eV
One Electron Energy:         -355.86291491 Eh           -9683.52222 eV
Two Electron Energy:          127.62764466 Eh            3472.92477 eV
Max COSX asymmetry :            0.00000182 Eh               0.00005 eV

Virial components:
Potential Energy   :         -306.62814424 Eh           -8343.77599 eV
Kinetic Energy     :          152.98963576 Eh            4163.05964 eV
Virial Ratio       :            2.00424129


DFT components:
N(Alpha)           :       12.000002024558 electrons
N(Beta)            :       12.000002024558 electrons
N(Total)           :       24.000004049116 electrons
E(X)               :      -14.955165823533 Eh       
E(C)               :       -0.788313769420 Eh       
E(XC)              :      -15.743479592952 Eh       
DFET-embed. en.    :        0.000000000000 Eh       

---------------
SCF CONVERGENCE
---------------

  Last Energy change         ...   -2.1174e-11  Tolerance :   1.0000e-08
  Last MAX-Density change    ...    1.2212e-15  Tolerance :   1.0000e-07
  Last RMS-Density change    ...    2.2327e-17  Tolerance :   5.0000e-09
  Last Orbital Gradient      ...    4.0122e-07  Tolerance :   1.0000e-05
  Last Orbital Rotation      ...    7.0573e-07  Tolerance :   1.0000e-05

             **** THE GBW FILE WAS UPDATED (ox_es1_A_orca0029.gbw) ****
             **** DENSITY ox_es1_A_orca0029.scfp WAS UPDATED ****
             **** ENERGY FILE WAS UPDATED (ox_es1_A_orca0029.en.tmp) ****
             **** THE GBW FILE WAS UPDATED (ox_es1_A_orca0029.gbw) ****
             **** DENSITY ox_es1_A_orca0029.scfp WAS UPDATED ****
----------------
ORBITAL ENERGIES
----------------

  NO   OCC          E(Eh)            E(eV) 
   0   2.0000     -19.220286      -523.0106 
   1   2.0000     -10.288364      -279.9606 
   2   2.0000     -10.267291      -279.3872 
   3   2.0000      -1.085888       -29.5485 
   4   2.0000      -0.719068       -19.5668 
   5   2.0000      -0.650715       -17.7068 
   6   2.0000      -0.533609       -14.5202 
   7   2.0000      -0.495262       -13.4768 
   8   2.0000      -0.417155       -11.3514 
   9   2.0000      -0.382002       -10.3948 
  10   2.0000      -0.338095        -9.2000 
  11   2.0000      -0.285983        -7.7820 
  12   0.0000       0.051275         1.3953 
  13   0.0000       0.058010         1.5785 
  14   0.0000       0.085166         2.3175 
  15   0.0000       0.097869         2.6631 
  16   0.0000       0.106740         2.9045 
  17   0.0000       0.151311         4.1174 
  18   0.0000       0.190081         5.1724 
  19   0.0000       0.211425         5.7532 
  20   0.0000       0.263965         7.1828 
  21   0.0000       0.269630         7.3370 
  22   0.0000       0.284786         7.7494 
  23   0.0000       0.318668         8.6714 
  24   0.0000       0.386063        10.5053 
  25   0.0000       0.397110        10.8059 
  26   0.0000       0.417167        11.3517 
  27   0.0000       0.434336        11.8189 
  28   0.0000       0.452562        12.3148 
  29   0.0000       0.461564        12.5598 
  30   0.0000       0.498396        13.5621 
  31   0.0000       0.523460        14.2441 
  32   0.0000       0.564290        15.3551 
  33   0.0000       0.686811        18.6891 
  34   0.0000       0.703037        19.1306 
  35   0.0000       0.740341        20.1457 
  36   0.0000       0.825039        22.4504 
  37   0.0000       0.838614        22.8198 
  38   0.0000       0.875805        23.8319 
  39   0.0000       0.943407        25.6714 
  40   0.0000       1.009584        27.4722 
  41   0.0000       1.037682        28.2368 
  42   0.0000       1.075712        29.2716 
  43   0.0000       1.084012        29.4975 
  44   0.0000       1.174412        31.9574 
  45   0.0000       1.352932        36.8151 
  46   0.0000       1.466286        39.8997 
  47   0.0000       1.491881        40.5962 
  48   0.0000       1.515119        41.2285 
  49   0.0000       1.530364        41.6433 
  50   0.0000       1.577776        42.9335 
  51   0.0000       1.629305        44.3357 
  52   0.0000       1.654004        45.0077 
  53   0.0000       1.692061        46.0433 
  54   0.0000       1.766706        48.0745 
  55   0.0000       1.822244        49.5858 
  56   0.0000       1.837390        49.9979 
  57   0.0000       1.861508        50.6542 
  58   0.0000       1.926494        52.4226 
  59   0.0000       1.985966        54.0409 
  60   0.0000       2.137116        58.1539 
  61   0.0000       2.143217        58.3199 
  62   0.0000       2.209413        60.1212 
  63   0.0000       2.239273        60.9337 
  64   0.0000       2.265799        61.6555 
  65   0.0000       2.385912        64.9240 
  66   0.0000       2.413031        65.6619 
  67   0.0000       2.472485        67.2797 
  68   0.0000       2.544211        69.2315 
  69   0.0000       2.590821        70.4998 
  70   0.0000       2.623973        71.4019 
  71   0.0000       2.662277        72.4442 
  72   0.0000       2.699764        73.4643 
  73   0.0000       2.712964        73.8235 
  74   0.0000       2.752351        74.8953 
  75   0.0000       2.822890        76.8147 
  76   0.0000       2.929585        79.7181 
  77   0.0000       2.953759        80.3759 
  78   0.0000       2.975277        80.9614 
  79   0.0000       3.015196        82.0476 
  80   0.0000       3.049213        82.9733 
  81   0.0000       3.096265        84.2537 
  82   0.0000       3.146952        85.6329 
  83   0.0000       3.234154        88.0058 
  84   0.0000       3.279695        89.2450 
  85   0.0000       3.346309        91.0577 
  86   0.0000       3.376990        91.8926 
  87   0.0000       3.424783        93.1931 
  88   0.0000       3.561153        96.9039 
  89   0.0000       3.584505        97.5393 
  90   0.0000       3.634137        98.8899 
  91   0.0000       3.691759       100.4579 
  92   0.0000       3.900822       106.1468 
  93   0.0000       4.000651       108.8632 
  94   0.0000       4.104007       111.6757 
  95   0.0000       4.152103       112.9845 
  96   0.0000       4.243046       115.4592 
  97   0.0000       4.284379       116.5839 
  98   0.0000       4.459417       121.3469 
  99   0.0000       4.601710       125.2189 
 100   0.0000       4.749899       129.2513 
 101   0.0000       4.895259       133.2068 
 102   0.0000       5.284620       143.8018 
 103   0.0000       5.399810       146.9363 
 104   0.0000       5.607473       152.5871 
 105   0.0000       5.735304       156.0656 
 106   0.0000       5.774823       157.1409 
 107   0.0000       5.808677       158.0621 
 108   0.0000       6.019683       163.8039 
 109   0.0000       6.572723       178.8529 
 110   0.0000       6.603378       179.6870 
 111   0.0000       6.785433       184.6410 
 112   0.0000       6.964301       189.5083 
 113   0.0000       7.175455       195.2541 
 114   0.0000      22.252294       605.5157 
 115   0.0000      22.477284       611.6380 
 116   0.0000      43.830316      1192.6835 

                    ********************************
                    * MULLIKEN POPULATION ANALYSIS *
                    ********************************

-----------------------
MULLIKEN ATOMIC CHARGES
-----------------------
   0 O :   -0.322495
   1 C :   -0.121303
   2 C :   -0.032546
   3 H :    0.138090
   4 H :    0.124291
   5 H :    0.108894
   6 H :    0.105068
Sum of atomic charges:    0.0000000

--------------------------------
MULLIKEN REDUCED ORBITAL CHARGES
--------------------------------
  0 O s       :     3.868529  s :     3.868529
      pz      :     1.847664  p :     4.412935
      px      :     1.333555
      py      :     1.231717
      dz2     :     0.005391  d :     0.039036
      dxz     :     0.002326
      dyz     :     0.006246
      dx2y2   :     0.011176
      dxy     :     0.013898
      f0      :     0.000232  f :     0.001994
      f+1     :     0.000166
      f-1     :     0.000438
      f+2     :     0.000094
      f-2     :     0.000181
      f+3     :     0.000377
      f-3     :     0.000506
  1 C s       :     3.233033  s :     3.233033
      pz      :     1.067377  p :     2.778851
      px      :     0.924741
      py      :     0.786732
      dz2     :     0.007798  d :     0.099084
      dxz     :     0.024826
      dyz     :     0.022967
      dx2y2   :     0.025350
      dxy     :     0.018142
      f0      :     0.001331  f :     0.010336
      f+1     :     0.001398
      f-1     :     0.000475
      f+2     :     0.001327
      f-2     :     0.001278
      f+3     :     0.002041
      f-3     :     0.002485
  2 C s       :     3.225065  s :     3.225065
      pz      :     1.021527  p :     2.673870
      px      :     0.897276
      py      :     0.755068
      dz2     :     0.006035  d :     0.121716
      dxz     :     0.026829
      dyz     :     0.034183
      dx2y2   :     0.030954
      dxy     :     0.023715
      f0      :     0.001590  f :     0.011895
      f+1     :     0.001374
      f-1     :     0.000686
      f+2     :     0.001547
      f-2     :     0.001569
      f+3     :     0.001853
      f-3     :     0.003277
  3 H s       :     0.837072  s :     0.837072
      pz      :     0.010494  p :     0.024838
      px      :     0.008605
      py      :     0.005739
  4 H s       :     0.854775  s :     0.854775
      pz      :     0.011328  p :     0.020933
      px      :     0.005687
      py      :     0.003919
  5 H s       :     0.874075  s :     0.874075
      pz      :     0.009229  p :     0.017030
      px      :     0.005154
      py      :     0.002646
  6 H s       :     0.873866  s :     0.873866
      pz      :     0.011058  p :     0.021066
      px      :     0.006238
      py      :     0.003771


                     *******************************
                     * LOEWDIN POPULATION ANALYSIS *
                     *******************************

----------------------
LOEWDIN ATOMIC CHARGES
----------------------
   0 O :    0.083094
   1 C :   -0.199389
   2 C :   -0.339647
   3 H :    0.068682
   4 H :    0.134214
   5 H :    0.134738
   6 H :    0.118308

-------------------------------
LOEWDIN REDUCED ORBITAL CHARGES
-------------------------------
  0 O s       :     3.423419  s :     3.423419
      pz      :     1.743202  p :     4.404796
      px      :     1.319917
      py      :     1.341678
      dz2     :     0.011156  d :     0.082948
      dxz     :     0.006556
      dyz     :     0.013539
      dx2y2   :     0.028419
      dxy     :     0.023277
      f0      :     0.000535  f :     0.005742
      f+1     :     0.000220
      f-1     :     0.000863
      f+2     :     0.000206
      f-2     :     0.000767
      f+3     :     0.001095
      f-3     :     0.002057
  1 C s       :     2.814008  s :     2.814008
      pz      :     1.072273  p :     2.916329
      px      :     1.043984
      py      :     0.800072
      dz2     :     0.050269  d :     0.410036
      dxz     :     0.127672
      dyz     :     0.056907
      dx2y2   :     0.092154
      dxy     :     0.083034
      f0      :     0.007405  f :     0.059016
      f+1     :     0.005999
      f-1     :     0.004747
      f+2     :     0.007713
      f-2     :     0.004588
      f+3     :     0.012487
      f-3     :     0.016077
  2 C s       :     2.839343  s :     2.839343
      pz      :     1.034688  p :     2.900720
      px      :     1.035151
      py      :     0.830880
      dz2     :     0.055894  d :     0.521108
      dxz     :     0.134844
      dyz     :     0.098431
      dx2y2   :     0.118641
      dxy     :     0.113298
      f0      :     0.010786  f :     0.078477
      f+1     :     0.005607
      f-1     :     0.006187
      f+2     :     0.009954
      f-2     :     0.007054
      f+3     :     0.015460
      f-3     :     0.023428
  3 H s       :     0.840604  s :     0.840604
      pz      :     0.040393  p :     0.090714
      px      :     0.029600
      py      :     0.020722
  4 H s       :     0.807853  s :     0.807853
      pz      :     0.031841  p :     0.057933
      px      :     0.014894
      py      :     0.011198
  5 H s       :     0.819889  s :     0.819889
      pz      :     0.025810  p :     0.045373
      px      :     0.012444
      py      :     0.007119
  6 H s       :     0.821820  s :     0.821820
      pz      :     0.032556  p :     0.059872
      px      :     0.016404
      py      :     0.010912


                      *****************************
                      * MAYER POPULATION ANALYSIS *
                      *****************************

  NA   - Mulliken gross atomic population
  ZA   - Total nuclear charge
  QA   - Mulliken gross atomic charge
  VA   - Mayer's total valence
  BVA  - Mayer's bonded valence
  FA   - Mayer's free valence

  ATOM       NA         ZA         QA         VA         BVA        FA
  0 O      8.3225     8.0000    -0.3225     1.9809     1.9809     0.0000
  1 C      6.1213     6.0000    -0.1213     3.9724     3.9724     0.0000
  2 C      6.0325     6.0000    -0.0325     3.9880     3.9880    -0.0000
  3 H      0.8619     1.0000     0.1381     0.9565     0.9565     0.0000
  4 H      0.8757     1.0000     0.1243     0.9683     0.9683     0.0000
  5 H      0.8911     1.0000     0.1089     0.9598     0.9598    -0.0000
  6 H      0.8949     1.0000     0.1051     0.9553     0.9553    -0.0000

  Mayer bond orders larger than 0.100000
B(  0-O ,  1-C ) :   0.9433 B(  0-O ,  2-C ) :   1.0207 B(  1-C ,  2-C ) :   1.0800 
B(  1-C ,  3-H ) :   0.9597 B(  1-C ,  4-H ) :   0.9651 B(  2-C ,  5-H ) :   0.9324 
B(  2-C ,  6-H ) :   0.9462 

-------
TIMINGS
-------

Total SCF time: 0 days 0 hours 0 min 1 sec 

Total time                  ....       1.001 sec
Sum of individual times     ....       0.902 sec  ( 90.1%)

Fock matrix formation       ....       0.695 sec  ( 69.5%)
  Split-RI-J                ....       0.110 sec  ( 15.8% of F)
  Chain of spheres X        ....       0.514 sec  ( 73.9% of F)
  XC integration            ....       0.063 sec  (  9.0% of F)
    Basis function eval.    ....       0.018 sec  ( 28.0% of XC)
    Density eval.           ....       0.014 sec  ( 21.9% of XC)
    XC-Functional eval.     ....       0.004 sec  (  6.0% of XC)
    XC-Potential eval.      ....       0.020 sec  ( 32.5% of XC)
Diagonalization             ....       0.002 sec  (  0.2%)
Density matrix formation    ....       0.000 sec  (  0.0%)
Population analysis         ....       0.002 sec  (  0.2%)
Initial guess               ....       0.009 sec  (  0.9%)
Orbital Transformation      ....       0.000 sec  (  0.0%)
Orbital Orthonormalization  ....       0.001 sec  (  0.1%)
DIIS solution               ....       0.001 sec  (  0.1%)
SOSCF solution              ....       0.002 sec  (  0.2%)
Grid generation             ....       0.190 sec  ( 19.0%)

Maximum memory used throughout the entire SCF-calculation: 61.1 MB


           ************************************************************
           *        Program running with 8 parallel MPI-processes     *
           *              working on a common directory               *
           ************************************************************
------------------------------------------------------------------------------
                        ORCA TD-DFT/TDA CALCULATION
------------------------------------------------------------------------------

Input orbitals are from        ... ox_es1_A_orca0029.gbw
CI-vector output               ... ox_es1_A_orca0029.cis
Tamm-Dancoff approximation     ... operative
CIS-Integral strategy          ... AO-integrals
Integral handling              ... AO integral Direct
Max. core memory used          ... 3000 MB
Reference state                ... RHF
Generation of triplets         ... off
Follow IRoot                   ... off
Number of operators            ... 1
Orbital ranges used for CIS calculation:
 Operator 0:  Orbitals   3... 11  to  12...116
XAS localization array:
 Operator 0:  Orbitals  -1... -1

-------------------
XC-INTEGRATION GRID
-------------------

General Integration Accuracy     IntAcc      ... 3.467
Radial Grid Type                 RadialGrid  ... OptM3 with GC (2021)
Angular Grid (max. ang.)         AngularGrid ... 1 (Lebedev-50)
Angular grid pruning method      GridPruning ... 4 (adaptive)
Weight generation scheme         WeightScheme... Becke
Basis function cutoff            BFCut       ... 1.0000e-11
Integration weight cutoff        WCut        ... 1.0000e-14
Angular grids for H and He will be reduced by one unit
Partially contracted basis set               ... off
Rotationally invariant grid construction     ... off

Total number of grid points                  ...     4542
Total number of batches                      ...       75
Average number of points per batch           ...       60
Average number of grid points per atom       ...      649

---------------------
COSX-INTEGRATION GRID
---------------------

General Integration Accuracy     IntAcc      ... 3.067
Radial Grid Type                 RadialGrid  ... OptM3 with GC (2021)
Angular Grid (max. ang.)         AngularGrid ... 1 (Lebedev-50)
Angular grid pruning method      GridPruning ... 4 (adaptive)
Weight generation scheme         WeightScheme... Becke
Basis function cutoff            BFCut       ... 1.0000e-11
Integration weight cutoff        WCut        ... 1.0000e-14
Angular grids for H and He will be reduced by one unit
Partially contracted basis set               ... on
Rotationally invariant grid construction     ... off

Total number of grid points                  ...     2087
Total number of batches                      ...       37
Average number of points per batch           ...       56
Average number of grid points per atom       ...      298

---------------
TD-DFT XC SETUP
---------------

DFT calculation                         ... on
Name of the grid file                   ... ox_es1_A_orca0029.grid_cis.tmp
Exchange functional (TD-DFT)            ... PBE
   PBE kappa parameter  XKappa (TD-DFT) ...  0.804000
   PBE mue parameter   XMuePBE (TD-DFT) ...  0.219520
Correlation functional (TD-DFT)         ... PBE
   PBE beta parameter CBetaPBE (TD-DFT) ...  0.066725
 LDA part of GGA corr.  LDAOpt (TD-DFT) ... PW91-LDA
Hybrid DFT                              ... on
   Exchange mixing (TD-DFT)             ...  0.250
   GGA exch. scaling (TD-DFT)           ...  0.750
   GGA corr. scaling (TD-DFT)           ...  1.000

Building densities             ... done
Calculating rho(r) on the grid ... done
Building xc-kernel on the grid ... done
                    *** TD-DFT CALCULATION INITIALIZED ***

------------------------
DAVIDSON-DIAGONALIZATION
------------------------

Dimension of the eigenvalue problem            ...    945
Number of roots to be determined               ...      1
Maximum size of the expansion space            ...     10
Maximum number of iterations                   ...    100
Convergence tolerance for the residual         ...    2.500e-07
Convergence tolerance for the energies         ...    2.500e-07
Orthogonality tolerance                        ...    1.000e-14
Level Shift                                    ...    0.000e+00
Constructing the preconditioner                ... o.k.
Building the initial guess                     ... o.k.
Number of trial vectors determined             ...     10


                       ****Iteration    0****

   Memory handling for direct AO based CIS:
   Memory per vector needed      ...     1 MB
   Memory needed                 ...     1 MB
   Memory available              ...  3000 MB
   Number of vectors per batch   ...  3000
   Number of batches             ...     1
   Time for densities:            0.000
   Time for RI-J (Direct):        0.015
   Time for K (COSX):             0.056
   Time for XC-Integration:       0.016
   Time for Sigma-Completion:     0.000
   Size of expansion space: 3
   Lowest Energy          :     0.265843549963
   Maximum Energy change  :     0.265843549963 (vector 0)
   Maximum residual norm  :     0.004049704427

                       ****Iteration    1****
   Time for densities:            0.000
   Time for RI-J (Direct):        0.012
   Time for K (COSX):             0.050
   Time for XC-Integration:       0.007
   Time for Sigma-Completion:     0.000
   Size of expansion space: 4
   Lowest Energy          :     0.261829834578
   Maximum Energy change  :     0.004013715384 (vector 0)
   Maximum residual norm  :     0.000404079571

                       ****Iteration    2****
   Time for densities:            0.000
   Time for RI-J (Direct):        0.012
   Time for K (COSX):             0.050
   Time for XC-Integration:       0.007
   Time for Sigma-Completion:     0.000
   Size of expansion space: 5
   Lowest Energy          :     0.261290339180
   Maximum Energy change  :     0.000539495398 (vector 0)
   Maximum residual norm  :     0.000129657637

                       ****Iteration    3****
   Time for densities:            0.000
   Time for RI-J (Direct):        0.012
   Time for K (COSX):             0.050
   Time for XC-Integration:       0.007
   Time for Sigma-Completion:     0.000
   Size of expansion space: 6
   Lowest Energy          :     0.261174731898
   Maximum Energy change  :     0.000115607282 (vector 0)
   Maximum residual norm  :     0.000022139115

                       ****Iteration    4****
   Time for densities:            0.000
   Time for RI-J (Direct):        0.012
   Time for K (COSX):             0.050
   Time for XC-Integration:       0.007
   Time for Sigma-Completion:     0.000
   Size of expansion space: 7
   Lowest Energy          :     0.261143722364
   Maximum Energy change  :     0.000031009535 (vector 0)
   Maximum residual norm  :     0.000005345901

                       ****Iteration    5****
   Time for densities:            0.000
   Time for RI-J (Direct):        0.012
   Time for K (COSX):             0.050
   Time for XC-Integration:       0.007
   Time for Sigma-Completion:     0.000
   Size of expansion space: 8
   Lowest Energy          :     0.261137098772
   Maximum Energy change  :     0.000006623592 (vector 0)
   Maximum residual norm  :     0.000000501450

                       ****Iteration    6****
   Time for densities:            0.000
   Time for RI-J (Direct):        0.012
   Time for K (COSX):             0.050
   Time for XC-Integration:       0.007
   Time for Sigma-Completion:     0.000
   Size of expansion space: 9
   Lowest Energy          :     0.261136516111
   Maximum Energy change  :     0.000000582660 (vector 0)
   Maximum residual norm  :     0.000000056244

      *** CONVERGENCE OF RESIDUAL NORM REACHED ***

Storing the converged CI vectors               ... ox_es1_A_orca0029.cis1

                 *** DAVIDSON DONE ***

Total time for solving the CIS problem:     0.504sec

------------------------------------
TD-DFT/TDA EXCITED STATES (SINGLETS)
------------------------------------

the weight of the individual excitations are printed if larger than 1.0e-02

STATE  1:  E=   0.261137 au      7.106 eV    57312.8 cm**-1 <S**2> =   0.000000
    11a ->  12a  :     0.927190 (c=  0.96290723)
    11a ->  13a  :     0.043275 (c= -0.20802662)


-----------------------------
TD-DFT/TDA-EXCITATION SPECTRA
-----------------------------

Center of mass = (  0.0671, -0.0500,  0.0812)
Calculating the Dipole integrals                  ... done
Transforming integrals                            ... done
Calculating the Linear Momentum integrals         ... done
Transforming integrals                            ... done
Calculating angular momentum integrals            ... done
Transforming integrals                            ... done

-----------------------------------------------------------------------------
         ABSORPTION SPECTRUM VIA TRANSITION ELECTRIC DIPOLE MOMENTS
-----------------------------------------------------------------------------
State   Energy    Wavelength  fosc         T2        TX        TY        TZ  
        (cm-1)      (nm)                 (au**2)    (au)      (au)      (au) 
-----------------------------------------------------------------------------
   1   57312.8    174.5   0.003206806   0.01842  -0.05300  -0.04113  -0.11798

-----------------------------------------------------------------------------
         ABSORPTION SPECTRUM VIA TRANSITION VELOCITY DIPOLE MOMENTS
-----------------------------------------------------------------------------
State   Energy    Wavelength   fosc        P2         PX        PY        PZ  
        (cm-1)      (nm)                 (au**2)     (au)      (au)      (au) 
-----------------------------------------------------------------------------
   1   57312.8    174.5   0.016551114   0.00648   0.01034   0.00723   0.07952

-------------------------------------------------------------------
                             CD SPECTRUM
-------------------------------------------------------------------
State  Energy     Wavelength     R         MX        MY        MZ   
       (cm-1)       (nm)     (1e40*cgs)   (au)      (au)      (au)  
-------------------------------------------------------------------
   1   57312.8    174.5      8.00587  -0.18824  -0.17509   0.00167

-------------------------------------------------------------------
         CD SPECTRUM VIA TRANSITION VELOCITY DIPOLE MOMENTS        
-------------------------------------------------------------------
State  Energy     Wavelength     R         MX        MY        MZ   
       (cm-1)       (nm)     (1e40*cgs)   (au)      (au)      (au)  
-------------------------------------------------------------------
   1   57312.8    174.5     -5.56135  -0.18824  -0.17509   0.00167

Total run time:        0.769 sec

           *** ORCA-CIS/TD-DFT FINISHED WITHOUT ERROR ***

Maximum memory used throughout the entire CIS-calculation: 49.4 MB

-----------------------
CIS/TD-DFT TOTAL ENERGY
-----------------------

    E(SCF)  =   -153.638508471 Eh
    DE(CIS) =      0.261136516 Eh (Root  1)
    ----------------------------- ---------
    E(tot)  =   -153.377371955 Eh



-------------------------------------------------------------------------------
                          DFT DISPERSION CORRECTION                            
                                                                               
                              DFTD3 V3.1  Rev 1                                
                          USING Becke-Johnson damping                          
-------------------------------------------------------------------------------
The PBE0 functional is recognized
Active option DFTDOPT                   ...         4   

molecular C6(AA) [au] = 351.401745 


            DFT-D V3
 parameters
 s6 scaling factor         :     1.0000 
 a1 scaling factor         :     0.4145 
 s8 scaling factor         :     1.2177 
 a2 scaling factor         :     4.8593 
 ad hoc parameters k1-k3   :    16.0000     1.3333    -4.0000 

 Edisp/kcal,au: -1.511205449499  -0.002408258920 
 E6   /kcal   :  -0.990775069 
 E8   /kcal   :  -0.520430380 
 % E8         :  34.438095802 

-------------------------   ----------------
Dispersion correction           -0.002408259
-------------------------   ----------------


-------------------------   --------------------
FINAL SINGLE POINT ENERGY      -153.379780214156
-------------------------   --------------------



           ************************************************************
           *        Program running with 8 parallel MPI-processes     *
           *              working on a common directory               *
           ************************************************************
------------------------------------------------------------------------------
                         ORCA SCF GRADIENT CALCULATION
------------------------------------------------------------------------------


------------------------
TD-DFT GRADIENT XC SETUP
------------------------

Building densities                     ... done
Calculating rho(r) on the grid         ... done
Building xc-kernel on the grid         ... done
Building xc 3rd derivative on the grid      ... done
                *** TD-DFT GRADIENT CALCULATION INITIALIZED ***

-------------------
TD-DFT/TDA GRADIENT
-------------------

Reference wavefunction             ... RHF
State of interest                  ... 1
Basis dimension                    ... 117
DFT-XC contribution needed         ... YES
RI-approximation                   ... ON
CIS-vectors being read from        ... ox_es1_A_orca0029.cis

 => Number of Vectors found: 1
 => Orbital Window: 3...11 -> 12...116

Reading the CIS file                     ... done
Norm of the CI vector                    ... 1.000000000
Making the CIS (pseudo)densities         ... done
Making operators G(D) and Q(T)           ... done
Transforming the Fock operators          ... done
Making the frozen-core relaxed density   ... done
Constructing the G(H) operator           ... done
Transforming the G(H) operator           ... done
Calculating the CIS Lagrangian           ... done
Solving the Z-vector equations           ... done
Finalizing the relaxed density           ... done
Storing the relaxed density              ... done
Constructing the G(Z) operator           ... done
Transforming the G(Z) operator           ... done
Making the W-matrix                      ... done
Finalizing the W-matrix                  ... done
Transforming the W-matrix                ... done
Nuclear repulsion gradient               ... done
One-Electron gradient                    ... done
Dispersion correction                    ... done
Prescreening matrices                    ... done
COSX-gradient                            ... done
Coulomb gradient (RI)                    ... done
Exchange-Correlation gradient            ... done

                 ---------------------------
                 EXCITED STATE GRADIENT DONE
                 ---------------------------

------------------
CARTESIAN GRADIENT
------------------

   1   O   :   -0.097763182   -0.132558816    0.013967652
   2   C   :   -0.005074196    0.126318223    0.149061326
   3   C   :    0.006860008    0.012319268    0.022499867
   4   H   :    0.080457098    0.024537187   -0.132394314
   5   H   :   -0.001464567   -0.007374652   -0.013563918
   6   H   :    0.025847067   -0.013938525   -0.045429798
   7   H   :   -0.008843070   -0.009337010    0.005901864

Difference to translation invariance:
           :    0.0000191589   -0.0000343245    0.0000426787

Difference to rotation invariance:
           :    0.0000373122   -0.0001243697   -0.0003352405

Norm of the cartesian gradient     ...    0.3069227543
RMS gradient                       ...    0.0669760359
MAX gradient                       ...    0.1490613260

------------------------------------------------------------------------------
                  RELAXED CIS/TDA DENSITY POPULATION ANALYSIS
                                   IROOT 1
------------------------------------------------------------------------------
------------------------------------------------------------------------------
                           ORCA POPULATION ANALYSIS
------------------------------------------------------------------------------
Input electron density              ... ox_es1_A_orca0029.cisp
BaseName (.gbw .S,...)              ... ox_es1_A_orca0029

                    ********************************
                    * MULLIKEN POPULATION ANALYSIS *
                    ********************************

-----------------------
MULLIKEN ATOMIC CHARGES
-----------------------
   0 O :    0.116561
   1 C :   -0.657859
   2 C :   -0.118842
   3 H :    0.177801
   4 H :    0.147914
   5 H :    0.172622
   6 H :    0.161803
Sum of atomic charges:    0.0000000

--------------------------------
MULLIKEN REDUCED ORBITAL CHARGES
--------------------------------
  0 O s       :     3.749567  s :     3.749567
      pz      :     1.103555  p :     4.096898
      px      :     1.556276
      py      :     1.437067
      dz2     :     0.003532  d :     0.035616
      dxz     :     0.002714
      dyz     :     0.006269
      dx2y2   :     0.010290
      dxy     :     0.012811
      f0      :     0.000071  f :     0.001357
      f+1     :    -0.000029
      f-1     :     0.000148
      f+2     :     0.000095
      f-2     :     0.000182
      f+3     :     0.000370
      f-3     :     0.000519
  1 C s       :     3.278686  s :     3.278686
      pz      :     1.087547  p :     3.283354
      px      :     0.868748
      py      :     1.327059
      dz2     :     0.009305  d :     0.086163
      dxz     :     0.016344
      dyz     :     0.005070
      dx2y2   :     0.033138
      dxy     :     0.022305
      f0      :     0.000941  f :     0.009656
      f+1     :     0.001266
      f-1     :     0.000724
      f+2     :     0.001061
      f-2     :     0.000761
      f+3     :     0.002822
      f-3     :     0.002081
  2 C s       :     3.233533  s :     3.233533
      pz      :     1.023697  p :     2.779107
      px      :     0.996815
      py      :     0.758595
      dz2     :     0.006996  d :     0.095417
      dxz     :     0.024510
      dyz     :     0.012891
      dx2y2   :     0.029781
      dxy     :     0.021239
      f0      :     0.000974  f :     0.010784
      f+1     :     0.001520
      f-1     :     0.000567
      f+2     :     0.000941
      f-2     :     0.001102
      f+3     :     0.002602
      f-3     :     0.003077
  3 H s       :     0.790565  s :     0.790565
      pz      :     0.009691  p :     0.031635
      px      :     0.008149
      py      :     0.013794
  4 H s       :     0.828165  s :     0.828165
      pz      :     0.010718  p :     0.023921
      px      :     0.005868
      py      :     0.007335
  5 H s       :     0.809448  s :     0.809448
      pz      :     0.009728  p :     0.017930
      px      :     0.005577
      py      :     0.002626
  6 H s       :     0.815978  s :     0.815978
      pz      :     0.011370  p :     0.022219
      px      :     0.007138
      py      :     0.003711


                     *******************************
                     * LOEWDIN POPULATION ANALYSIS *
                     *******************************

----------------------
LOEWDIN ATOMIC CHARGES
----------------------
   0 O :    0.352111
   1 C :   -0.549531
   2 C :   -0.336557
   3 H :    0.068935
   4 H :    0.137549
   5 H :    0.173597
   6 H :    0.153897

-------------------------------
LOEWDIN REDUCED ORBITAL CHARGES
-------------------------------
  0 O s       :     3.477931  s :     3.477931
      pz      :     1.052325  p :     4.065236
      px      :     1.519912
      py      :     1.492999
      dz2     :     0.012407  d :     0.099007
      dxz     :     0.007664
      dyz     :     0.014077
      dx2y2   :     0.031968
      dxy     :     0.032891
      f0      :     0.000550  f :     0.005715
      f+1     :     0.000133
      f-1     :     0.000714
      f+2     :     0.000203
      f-2     :     0.000806
      f+3     :     0.001189
      f-3     :     0.002121
  1 C s       :     2.812869  s :     2.812869
      pz      :     1.064498  p :     3.174311
      px      :     1.016788
      py      :     1.093026
      dz2     :     0.077953  d :     0.495103
      dxz     :     0.110783
      dyz     :     0.023976
      dx2y2   :     0.143974
      dxy     :     0.138417
      f0      :     0.006183  f :     0.067249
      f+1     :     0.005957
      f-1     :     0.007691
      f+2     :     0.005674
      f-2     :     0.003118
      f+3     :     0.023167
      f-3     :     0.015460
  2 C s       :     2.842140  s :     2.842140
      pz      :     1.010584  p :     2.958822
      px      :     1.096322
      py      :     0.851916
      dz2     :     0.064158  d :     0.458113
      dxz     :     0.123074
      dyz     :     0.044430
      dx2y2   :     0.119343
      dxy     :     0.107109
      f0      :     0.007604  f :     0.077482
      f+1     :     0.005983
      f-1     :     0.006503
      f+2     :     0.006943
      f-2     :     0.004979
      f+3     :     0.022537
      f-3     :     0.022933
  3 H s       :     0.823591  s :     0.823591
      pz      :     0.038799  p :     0.107474
      px      :     0.028873
      py      :     0.039802
  4 H s       :     0.797069  s :     0.797069
      pz      :     0.030383  p :     0.065382
      px      :     0.015030
      py      :     0.019969
  5 H s       :     0.779097  s :     0.779097
      pz      :     0.026857  p :     0.047306
      px      :     0.013568
      py      :     0.006882
  6 H s       :     0.783170  s :     0.783170
      pz      :     0.033291  p :     0.062933
      px      :     0.019050
      py      :     0.010593


                      *****************************
                      * MAYER POPULATION ANALYSIS *
                      *****************************

  NA   - Mulliken gross atomic population
  ZA   - Total nuclear charge
  QA   - Mulliken gross atomic charge
  VA   - Mayer's total valence
  BVA  - Mayer's bonded valence
  FA   - Mayer's free valence

  ATOM       NA         ZA         QA         VA         BVA        FA
  0 O      7.8834     8.0000     0.1166     1.7767     1.0540     0.7227
  1 C      6.6579     6.0000    -0.6579     4.0649     3.1687     0.8961
  2 C      6.1188     6.0000    -0.1188     3.9171     3.7762     0.1410
  3 H      0.8222     1.0000     0.1778     0.9881     0.9701     0.0180
  4 H      0.8521     1.0000     0.1479     0.9716     0.9439     0.0277
  5 H      0.8274     1.0000     0.1726     0.9560     0.9148     0.0412
  6 H      0.8382     1.0000     0.1618     0.9690     0.9268     0.0423

  Mayer bond orders larger than 0.100000
B(  0-O ,  1-C ) :   0.1538 B(  0-O ,  2-C ) :   0.9052 B(  1-C ,  2-C ) :   1.0775 
B(  1-C ,  3-H ) :   0.9735 B(  1-C ,  4-H ) :   0.9435 B(  2-C ,  5-H ) :   0.8901 
B(  2-C ,  6-H ) :   0.9041 


-------
TIMINGS
-------

Total TD-DFT gradient time         ...        5.086 sec

Fock matrix formation       ....       0.856 sec  ( 16.8%)
  Coulomb formation         ....       0.696 sec  ( 81.3% of F)
  RI-J                      ....       0.292 sec  ( 34.1% of F)
  Chain of spheres X        ....       0.404 sec  ( 47.2% of F)
  XC integration            ....       0.160 sec  ( 18.7% of F)
Z-vector equation           ....       1.423 sec  ( 28.0%)
One electron gradient       ....       0.032 sec  (  0.6%)
Prescreening matrices       ....       0.157 sec  (  3.1%)
RI-J Coulomb gradient       ....       0.248 sec  (  4.9%)
COSX gradient               ....       0.353 sec  (  6.9%)
XC gradient                 ....       1.704 sec  ( 33.5%)

Maximum memory used throughout the entire SCFGRAD-calculation: 130.3 MB

                            ***************************************
                            *     ORCA property calculations      *
                            ***************************************

                                    ---------------------
                                    Active property flags
                                    ---------------------
   (+) Dipole Moment


------------------------------------------------------------------------------
                       ORCA ELECTRIC PROPERTIES CALCULATION
------------------------------------------------------------------------------

Dipole Moment Calculation                       ... on
Quadrupole Moment Calculation                   ... off
Polarizability Calculation                      ... off
GBWName                                         ... ox_es1_A_orca0029.gbw
Electron density                                ... ox_es1_A_orca0029.scfp
The origin for moment calculation is the CENTER OF MASS  = ( 0.067110, -0.050032  0.081222)

-------------
DIPOLE MOMENT
-------------
                                X             Y             Z
Electronic contribution:     -0.07368       1.54082       0.21323
Nuclear contribution   :     -0.01918      -2.31883      -0.13103
                        -----------------------------------------
Total Dipole Moment    :     -0.09285      -0.77801       0.08220
                        -----------------------------------------
Magnitude (a.u.)       :      0.78783
Magnitude (Debye)      :      2.00250



--------------------
Rotational spectrum 
--------------------
 
Rotational constants in cm-1:     0.836259     0.724800     0.460885 
Rotational constants in MHz : 25070.419660 21728.959800 13816.976084 

 Dipole components along the rotational axes: 
x,y,z [a.u.] :    -0.432357     0.658096     0.025545 
x,y,z [Debye]:    -1.098965     1.672747     0.064929 

 

                        *** CIS RELAXED DENSITY ***

------------------------------------------------------------------------------
                       ORCA ELECTRIC PROPERTIES CALCULATION
------------------------------------------------------------------------------

Dipole Moment Calculation                       ... on
Quadrupole Moment Calculation                   ... off
Polarizability Calculation                      ... off
GBWName                                         ... ox_es1_A_orca0029.gbw
Electron density                                ... ox_es1_A_orca0029.cisp
The origin for moment calculation is the CENTER OF MASS  = ( 0.067110, -0.050032  0.081222)

-------------
DIPOLE MOMENT
-------------
                                X             Y             Z
Electronic contribution:      0.74758       2.25611       0.11807
Nuclear contribution   :     -0.01918      -2.31883      -0.13103
                        -----------------------------------------
Total Dipole Moment    :      0.72840      -0.06272      -0.01296
                        -----------------------------------------
Magnitude (a.u.)       :      0.73121
Magnitude (Debye)      :      1.85860



--------------------
Rotational spectrum 
--------------------
 
Rotational constants in cm-1:     0.836259     0.724800     0.460885 
Rotational constants in MHz : 25070.419660 21728.959800 13816.976084 

 Dipole components along the rotational axes: 
x,y,z [a.u.] :     0.624735     0.379373     0.021325 
x,y,z [Debye]:     1.587950     0.964290     0.054204 

 

Timings for individual modules:

Sum of individual times         ...        8.267 sec (=   0.138 min)
GTO integral calculation        ...        0.323 sec (=   0.005 min)   3.9 %
SCF iterations                  ...        1.236 sec (=   0.021 min)  15.0 %
CIS module                      ...        1.417 sec (=   0.024 min)  17.1 %
SCF Gradient evaluation         ...        5.291 sec (=   0.088 min)  64.0 %
                             ****ORCA TERMINATED NORMALLY****
TOTAL RUN TIME: 0 days 0 hours 0 minutes 8 seconds 652 msec
