
                                 *****************
                                 * O   R   C   A *
                                 *****************

                                            #,                                       
                                            ###                                      
                                            ####                                     
                                            #####                                    
                                            ######                                   
                                           ########,                                 
                                     ,,################,,,,,                         
                               ,,#################################,,                 
                          ,,##########################################,,             
                       ,#########################################, ''#####,          
                    ,#############################################,,   '####,        
                  ,##################################################,,,,####,       
                ,###########''''           ''''###############################       
              ,#####''   ,,,,##########,,,,          '''####'''          '####       
            ,##' ,,,,###########################,,,                        '##       
           ' ,,###''''                  '''############,,,                           
         ,,##''                                '''############,,,,        ,,,,,,###''
      ,#''                                            '''#######################'''  
     '                                                          ''''####''''         
             ,#######,   #######,   ,#######,      ##                                
            ,#'     '#,  ##    ##  ,#'     '#,    #''#        ######   ,####,        
            ##       ##  ##   ,#'  ##            #'  '#       #        #'  '#        
            ##       ##  #######   ##           ,######,      #####,   #    #        
            '#,     ,#'  ##    ##  '#,     ,#' ,#      #,         ##   #,  ,#        
             '#######'   ##     ##  '#######'  #'      '#     #####' # '####'        



                  #######################################################
                  #                        -***-                        #
                  #          Department of theory and spectroscopy      #
                  #    Directorship and core code : Frank Neese         #
                  #        Max Planck Institute fuer Kohlenforschung    #
                  #                Kaiser Wilhelm Platz 1               #
                  #                 D-45470 Muelheim/Ruhr               #
                  #                      Germany                        #
                  #                                                     #
                  #                  All rights reserved                #
                  #                        -***-                        #
                  #######################################################


                         Program Version 5.0.2 -  RELEASE  -


 With contributions from (in alphabetic order):
   Daniel Aravena         : Magnetic Suceptibility
   Michael Atanasov       : Ab Initio Ligand Field Theory (pilot matlab implementation)
   Alexander A. Auer      : GIAO ZORA, VPT2 properties, NMR spectrum
   Ute Becker             : Parallelization
   Giovanni Bistoni       : ED, misc. LED, open-shell LED, HFLD
   Martin Brehm           : Molecular dynamics
   Dmytro Bykov           : SCF Hessian
   Vijay G. Chilkuri      : MRCI spin determinant printing, contributions to CSF-ICE
   Dipayan Datta          : RHF DLPNO-CCSD density
   Achintya Kumar Dutta   : EOM-CC, STEOM-CC
   Dmitry Ganyushin       : Spin-Orbit,Spin-Spin,Magnetic field MRCI
   Miquel Garcia          : C-PCM and meta-GGA Hessian, CC/C-PCM, Gaussian charge scheme
   Yang Guo               : DLPNO-NEVPT2, F12-NEVPT2, CIM, IAO-localization
   Andreas Hansen         : Spin unrestricted coupled pair/coupled cluster methods
   Benjamin Helmich-Paris : MC-RPA, TRAH-SCF, COSX integrals
   Lee Huntington         : MR-EOM, pCC
   Robert Izsak           : Overlap fitted RIJCOSX, COSX-SCS-MP3, EOM
   Marcus Kettner         : VPT2
   Christian Kollmar      : KDIIS, OOCD, Brueckner-CCSD(T), CCSD density, CASPT2, CASPT2-K
   Simone Kossmann        : Meta GGA functionals, TD-DFT gradient, OOMP2, MP2 Hessian
   Martin Krupicka        : Initial AUTO-CI
   Lucas Lang             : DCDCAS
   Marvin Lechner         : AUTO-CI (C++ implementation), FIC-MRCC
   Dagmar Lenk            : GEPOL surface, SMD
   Dimitrios Liakos       : Extrapolation schemes; Compound Job, initial MDCI parallelization
   Dimitrios Manganas     : Further ROCIS development; embedding schemes
   Dimitrios Pantazis     : SARC Basis sets
   Anastasios Papadopoulos: AUTO-CI, single reference methods and gradients
   Taras Petrenko         : DFT Hessian,TD-DFT gradient, ASA, ECA, R-Raman, ABS, FL, XAS/XES, NRVS
   Peter Pinski           : DLPNO-MP2, DLPNO-MP2 Gradient
   Christoph Reimann      : Effective Core Potentials
   Marius Retegan         : Local ZFS, SOC
   Christoph Riplinger    : Optimizer, TS searches, QM/MM, DLPNO-CCSD(T), (RO)-DLPNO pert. Triples
   Tobias Risthaus        : Range-separated hybrids, TD-DFT gradient, RPA, STAB
   Michael Roemelt        : Original ROCIS implementation
   Masaaki Saitow         : Open-shell DLPNO-CCSD energy and density
   Barbara Sandhoefer     : DKH picture change effects
   Avijit Sen             : IP-ROCIS
   Kantharuban Sivalingam : CASSCF convergence, NEVPT2, FIC-MRCI
   Bernardo de Souza      : ESD, SOC TD-DFT
   Georgi Stoychev        : AutoAux, RI-MP2 NMR, DLPNO-MP2 response
   Willem Van den Heuvel  : Paramagnetic NMR
   Boris Wezisla          : Elementary symmetry handling
   Frank Wennmohs         : Technical directorship


 We gratefully acknowledge several colleagues who have allowed us to
 interface, adapt or use parts of their codes:
   Stefan Grimme, W. Hujo, H. Kruse, P. Pracht,  : VdW corrections, initial TS optimization,
                  C. Bannwarth, S. Ehlert          DFT functionals, gCP, sTDA/sTD-DF
   Ed Valeev, F. Pavosevic, A. Kumar             : LibInt (2-el integral package), F12 methods
   Garnet Chan, S. Sharma, J. Yang, R. Olivares  : DMRG
   Ulf Ekstrom                                   : XCFun DFT Library
   Mihaly Kallay                                 : mrcc  (arbitrary order and MRCC methods)
   Jiri Pittner, Ondrej Demel                    : Mk-CCSD
   Frank Weinhold                                : gennbo (NPA and NBO analysis)
   Christopher J. Cramer and Donald G. Truhlar   : smd solvation model
   Lars Goerigk                                  : TD-DFT with DH, B97 family of functionals
   V. Asgeirsson, H. Jonsson                     : NEB implementation
   FAccTs GmbH                                   : IRC, NEB, NEB-TS, DLPNO-Multilevel, CI-OPT
                                                   MM, QMMM, 2- and 3-layer-ONIOM, Crystal-QMMM,
                                                   LR-CPCM, SF, NACMEs, symmetry and pop. for TD-DFT,
                                                   nearIR, NL-DFT gradient (VV10), updates on ESD,
                                                   ML-optimized integration grids
   S Lehtola, MJT Oliveira, MAL Marques          : LibXC Library
   Liviu Ungur et al                             : ANISO software


 Your calculation uses the libint2 library for the computation of 2-el integrals
 For citations please refer to: http://libint.valeyev.net

 Your ORCA version has been built with support for libXC version: 5.1.0
 For citations please refer to: https://tddft.org/programs/libxc/

 This ORCA versions uses:
   CBLAS   interface :  Fast vector & matrix operations
   LAPACKE interface :  Fast linear algebra routines
   SCALAPACK package :  Parallel linear algebra routines
   Shared memory     :  Shared parallel matrices
   BLAS/LAPACK       :  OpenBLAS 0.3.15  USE64BITINT DYNAMIC_ARCH NO_AFFINITY SkylakeX SINGLE_THREADED
        Core in use  :  SkylakeX
   Copyright (c) 2011-2014, The OpenBLAS Project


Your calculation utilizes the atom-pairwise dispersion correction
with the Becke-Johnson damping scheme (D3BJ)
Cite in your paper:
S.Grimme, S.Ehrlich, L.Goerigk, J Comput Chem, (2011), 32, 1456–1465 
S.Grimme, J.Antony, S.Ehrlich and H.Krieg, J.Chem.Phys., 132, (2010), 154104 
   

================================================================================

----- Orbital basis set information -----
Your calculation utilizes the basis: def2-TZVP
   F. Weigend and R. Ahlrichs, Phys. Chem. Chem. Phys. 7, 3297 (2005).

----- AuxJ basis set information -----
Your calculation utilizes the auxiliary basis: def2/J
   F. Weigend, Phys. Chem. Chem. Phys. 8, 1057 (2006).

================================================================================
                                        WARNINGS
                       Please study these warnings very carefully!
================================================================================

INFO   : Checking CIS options ...

WARNING: CIS/ROCIS methods need fully converged wavefunctions
  ===> : Setting SCFConvForced true
         You can overwrite this default with %scf ConvForced false 


INFO   : the flag for use of the SHARK integral package has been found!

================================================================================
                                       INPUT FILE
================================================================================
NAME = ox_es1_A_orca0045.inp
|  1> ! engrad PBE0 D3BJ def2-TZVP  
|  2> %pal nprocs 8 end
|  3> %maxcore 3000
|  4> 
|  5> %tddft
|  6>   nroots 1
|  7>   tda true
|  8>   Iroot 1
|  9>   end 
| 10> *xyz 0 1 
| 11> O   -0.05350418831630763 0.6906480514537631 -0.03459529349406223
| 12> C   -0.7311688908177749 -0.4348535175338654 -0.012061802892816494
| 13> C   0.7464923098257148 -0.5095974612095222 0.07218823020366298
| 14> H   -1.2679304889196283 -0.6124060184205936 0.9371124873188852
| 15> H   -1.2409851090423107 -0.6397825459883899 -0.8975907919991343
| 16> H   1.295958957993377 -0.6018132334933785 -0.9101501615149266
| 17> H   1.2992730578794256 -0.6727575947143614 0.9919820307724736
| 18> *
| 19> 
| 20>                          ****END OF INPUT****
================================================================================

                     *******************************
                     * Energy+Gradient Calculation *
                     *******************************

---------------------------------
CARTESIAN COORDINATES (ANGSTROEM)
---------------------------------
  O     -0.053504    0.690648   -0.034595
  C     -0.731169   -0.434854   -0.012062
  C      0.746492   -0.509597    0.072188
  H     -1.267930   -0.612406    0.937112
  H     -1.240985   -0.639783   -0.897591
  H      1.295959   -0.601813   -0.910150
  H      1.299273   -0.672758    0.991982

----------------------------
CARTESIAN COORDINATES (A.U.)
----------------------------
  NO LB      ZA    FRAG     MASS         X           Y           Z
   0 O     8.0000    0    15.999   -0.101108    1.305136   -0.065376
   1 C     6.0000    0    12.011   -1.381709   -0.821754   -0.022794
   2 C     6.0000    0    12.011    1.410666   -0.963000    0.136416
   3 H     1.0000    0     1.008   -2.396041   -1.157280    1.770886
   4 H     1.0000    0     1.008   -2.345122   -1.209014   -1.696201
   5 H     1.0000    0     1.008    2.449008   -1.137262   -1.719935
   6 H     1.0000    0     1.008    2.455270   -1.271328    1.874574

--------------------------------
INTERNAL COORDINATES (ANGSTROEM)
--------------------------------
 O      0   0   0     0.000000000000     0.00000000     0.00000000
 C      1   0   0     1.313960040872     0.00000000     0.00000000
 C      1   2   0     1.446370080111    64.73423684     0.00000000
 H      2   1   3     1.104793979422   113.76375264   107.14054299
 H      2   1   3     1.042146857989   113.96418158   245.43937306
 H      3   1   2     1.129338772004   105.82192707   111.03288993
 H      3   1   2     1.085453094403   117.96771959   246.41884639

---------------------------
INTERNAL COORDINATES (A.U.)
---------------------------
 O      0   0   0     0.000000000000     0.00000000     0.00000000
 C      1   0   0     2.483024628164     0.00000000     0.00000000
 C      1   2   0     2.733243339708    64.73423684     0.00000000
 H      2   1   3     2.087758055512   113.76375264   107.14054299
 H      2   1   3     1.969372152925   113.96418158   245.43937306
 H      3   1   2     2.134140991506   105.82192707   111.03288993
 H      3   1   2     2.051209079639   117.96771959   246.41884639

---------------------
BASIS SET INFORMATION
---------------------
There are 3 groups of distinct atoms

 Group   1 Type O   : 11s6p2d1f contracted to 5s3p2d1f pattern {62111/411/11/1}
 Group   2 Type C   : 11s6p2d1f contracted to 5s3p2d1f pattern {62111/411/11/1}
 Group   3 Type H   : 5s1p contracted to 3s1p pattern {311/1}

Atom   0O    basis set group =>   1
Atom   1C    basis set group =>   2
Atom   2C    basis set group =>   2
Atom   3H    basis set group =>   3
Atom   4H    basis set group =>   3
Atom   5H    basis set group =>   3
Atom   6H    basis set group =>   3
---------------------------------
AUXILIARY/J BASIS SET INFORMATION
---------------------------------
There are 3 groups of distinct atoms

 Group   1 Type O   : 12s5p4d2f1g contracted to 6s4p3d1f1g pattern {711111/2111/211/2/1}
 Group   2 Type C   : 12s5p4d2f1g contracted to 6s4p3d1f1g pattern {711111/2111/211/2/1}
 Group   3 Type H   : 5s2p1d contracted to 3s1p1d pattern {311/2/1}

Atom   0O    basis set group =>   1
Atom   1C    basis set group =>   2
Atom   2C    basis set group =>   2
Atom   3H    basis set group =>   3
Atom   4H    basis set group =>   3
Atom   5H    basis set group =>   3
Atom   6H    basis set group =>   3

Checking for AutoStart:
The File: ox_es1_A_orca0045.gbw exists
Trying to determine its content:
     ... Fine, the file contains calculation information
     ... Fine, the calculation information was read
     ... Fine, the file contains a basis set
     ... Fine, the basis set was read
     ... Fine, the file contains a geometry
     ... Fine, the geometry was read
     ... Fine, the file contains a set of orbitals
     ... Fine, the orbitals can be read
     => possible old guess file was deleted
     => GBW file was renamed to GES file
     => GES file is set as startup file
     => Guess is set to MORead
     ... now leaving AutoStart



           ************************************************************
           *        Program running with 8 parallel MPI-processes     *
           *              working on a common directory               *
           ************************************************************
------------------------------------------------------------------------------
                           ORCA GTO INTEGRAL CALCULATION
                           -- RI-GTO INTEGRALS CHOSEN --
------------------------------------------------------------------------------
------------------------------------------------------------------------------
                   ___                                                        
                  /   \      - P O W E R E D   B Y -                         
                 /     \                                                     
                 |  |  |   _    _      __       _____    __    __             
                 |  |  |  | |  | |    /  \     |  _  \  |  |  /  |          
                  \  \/   | |  | |   /    \    | | | |  |  | /  /          
                 / \  \   | |__| |  /  /\  \   | |_| |  |  |/  /          
                |  |  |   |  __  | /  /__\  \  |    /   |      \           
                |  |  |   | |  | | |   __   |  |    \   |  |\   \          
                \     /   | |  | | |  |  |  |  | |\  \  |  | \   \       
                 \___/    |_|  |_| |__|  |__|  |_| \__\ |__|  \__/        
                                                                              
                      - O R C A' S   B I G   F R I E N D -                    
                                      &                                       
                       - I N T E G R A L  F E E D E R -                       
                                                                              
 v1 FN, 2020, v2 2021                                                         
------------------------------------------------------------------------------


Reading SHARK input file ox_es1_A_orca0045.SHARKINP.tmp ... ok
----------------------
SHARK INTEGRAL PACKAGE
----------------------

Number of atoms                             ...      7
Number of basis functions                   ...    117
Number of shells                            ...     49
Maximum angular momentum                    ...      3
Integral batch strategy                     ... SHARK/LIBINT Hybrid
RI-J (if used) integral strategy            ... SPLIT-RIJ (Revised 2003 algorithm where possible)
Printlevel                                  ...      1
Contraction scheme used                     ... SEGMENTED contraction
Coulomb Range Separation                    ... NOT USED
Exchange Range Separation                   ... NOT USED
Finite Nucleus Model                        ... NOT USED
Auxiliary Coulomb fitting basis             ... AVAILABLE
   # of basis functions in Aux-J            ...    191
   # of shells in Aux-J                     ...     65
   Maximum angular momentum in Aux-J        ...      4
Auxiliary J/K fitting basis                 ... NOT available
Auxiliary Correlation fitting basis         ... NOT available
Auxiliary 'external' fitting basis          ... NOT available
Integral threshold                          ...     2.500000e-11
Primitive cut-off                           ...     2.500000e-12
Primitive pair pre-selection threshold      ...     2.500000e-12

Calculating pre-screening integrals         ... done (  0.0 sec) Dimension = 49
Organizing shell pair data                  ... done (  0.0 sec)
Shell pair information
Total number of shell pairs                 ...      1225
Shell pairs after pre-screening             ...      1221
Total number of primitive shell pairs       ...      3648
Primitive shell pairs kept                  ...      3157
          la=0 lb=0:    374 shell pairs
          la=1 lb=0:    351 shell pairs
          la=1 lb=1:     91 shell pairs
          la=2 lb=0:    162 shell pairs
          la=2 lb=1:     78 shell pairs
          la=2 lb=2:     21 shell pairs
          la=3 lb=0:     81 shell pairs
          la=3 lb=1:     39 shell pairs
          la=3 lb=2:     18 shell pairs
          la=3 lb=3:      6 shell pairs

Calculating one electron integrals          ... done (  0.0 sec)
Calculating RI/J V-Matrix + Cholesky decomp.... done (  0.0 sec)
Calculating Nuclear repulsion               ... done (  0.0 sec) ENN=     76.641181447127 Eh

SHARK setup successfully completed in   0.1 seconds

Maximum memory used throughout the entire GTOINT-calculation: 14.9 MB


           ************************************************************
           *        Program running with 8 parallel MPI-processes     *
           *              working on a common directory               *
           ************************************************************
-------------------------------------------------------------------------------
                                 ORCA SCF
-------------------------------------------------------------------------------

------------
SCF SETTINGS
------------
Hamiltonian:
 Density Functional     Method          .... DFT(GTOs)
 Exchange Functional    Exchange        .... PBE
   PBE kappa parameter   XKappa         ....  0.804000
   PBE mue parameter    XMuePBE         ....  0.219520
 Correlation Functional Correlation     .... PBE
   PBE beta parameter  CBetaPBE         ....  0.066725
 LDA part of GGA corr.  LDAOpt          .... PW91-LDA
 Gradients option       PostSCFGGA      .... off
 Hybrid DFT is turned on
   Fraction HF Exchange ScalHFX         ....  0.250000
   Scaling of DF-GGA-X  ScalDFX         ....  0.750000
   Scaling of DF-GGA-C  ScalDFC         ....  1.000000
   Scaling of DF-LDA-C  ScalLDAC        ....  1.000000
   Perturbative correction              ....  0.000000
   Density functional embedding theory  .... OFF
   NL short-range parameter             ....  6.900000
 RI-approximation to the Coulomb term is turned on
   Number of AuxJ basis functions       .... 191
   RIJ-COSX (HFX calculated with COS-X)).... on


General Settings:
 Integral files         IntName         .... ox_es1_A_orca0045
 Hartree-Fock type      HFTyp           .... RHF
 Total Charge           Charge          ....    0
 Multiplicity           Mult            ....    1
 Number of Electrons    NEL             ....   24
 Basis Dimension        Dim             ....  117
 Nuclear Repulsion      ENuc            ....     76.6411814471 Eh

Convergence Acceleration:
 DIIS                   CNVDIIS         .... on
   Start iteration      DIISMaxIt       ....    12
   Startup error        DIISStart       ....  0.200000
   # of expansion vecs  DIISMaxEq       ....     5
   Bias factor          DIISBfac        ....   1.050
   Max. coefficient     DIISMaxC        ....  10.000
 Trust-Rad. Augm. Hess. CNVTRAH         .... auto
   Auto Start mean grad. ratio tolernc. ....  1.125000
   Auto Start start iteration           ....     1
   Auto Start num. interpolation iter.  ....    10
   Max. Number of Micro iterations      ....    16
   Max. Number of Macro iterations      .... Maxiter - #DIIS iter
   Number of Davidson start vectors     ....     2
   Converg. threshold I  (grad. norm)   ....   1.000e-05
   Converg. threshold II (energy diff.) ....   1.000e-08
   Grad. Scal. Fac. for Micro threshold ....   0.100
   Minimum threshold for Micro iter.    ....   0.010
   NR start threshold (gradient norm)   ....   0.001
   Initial trust radius                 ....   0.400
   Minimum AH scaling param. (alpha)    ....   1.000
   Maximum AH scaling param. (alpha)    .... 1000.000
   Orbital update algorithm             .... Taylor
   White noise on init. David. guess    .... on
   Maximum white noise                  ....   0.010
   Quad. conv. algorithm                .... NR
 SOSCF                  CNVSOSCF        .... on
   Start iteration      SOSCFMaxIt      ....   150
   Startup grad/error   SOSCFStart      ....  0.003300
 Level Shifting         CNVShift        .... on
   Level shift para.    LevelShift      ....    0.2500
   Turn off err/grad.   ShiftErr        ....    0.0010
 Zerner damping         CNVZerner       .... off
 Static damping         CNVDamp         .... on
   Fraction old density DampFac         ....    0.7000
   Max. Damping (<1)    DampMax         ....    0.9800
   Min. Damping (>=0)   DampMin         ....    0.0000
   Turn off err/grad.   DampErr         ....    0.1000
 Fernandez-Rico         CNVRico         .... off

SCF Procedure:
 Maximum # iterations   MaxIter         ....   125
 SCF integral mode      SCFMode         .... Direct
   Integral package                     .... SHARK and LIBINT hybrid scheme
 Reset frequency        DirectResetFreq ....    20
 Integral Threshold     Thresh          ....  2.500e-11 Eh
 Primitive CutOff       TCut            ....  2.500e-12 Eh

Convergence Tolerance:
 Convergence Check Mode ConvCheckMode   .... Total+1el-Energy
 Convergence forced     ConvForced      .... 1
 Energy Change          TolE            ....  1.000e-08 Eh
 1-El. energy change                    ....  1.000e-05 Eh
 Orbital Gradient       TolG            ....  1.000e-05
 Orbital Rotation angle TolX            ....  1.000e-05
 DIIS Error             TolErr          ....  5.000e-07


Diagonalization of the overlap matrix:
Smallest eigenvalue                        ... 4.063e-04
Time for diagonalization                   ...    0.001 sec
Threshold for overlap eigenvalues          ... 1.000e-08
Number of eigenvalues below threshold      ... 0
Time for construction of square roots      ...    0.001 sec
Total time needed                          ...    0.003 sec

---------------------
INITIAL GUESS: MOREAD
---------------------
Guess MOs are being read from file: ox_es1_A_orca0045.ges
Input Geometry matches current geometry (good)
Input basis set matches current basis set (good)
MOs were renormalized
MOs were reorthogonalized (Cholesky)
                      ------------------
                      INITIAL GUESS DONE (   0.0 sec)
                      ------------------
-------------------
DFT GRID GENERATION
-------------------

General Integration Accuracy     IntAcc      ... 4.388
Radial Grid Type                 RadialGrid  ... OptM3 with GC (2021)
Angular Grid (max. ang.)         AngularGrid ... 4 (Lebedev-302)
Angular grid pruning method      GridPruning ... 4 (adaptive)
Weight generation scheme         WeightScheme... Becke
Basis function cutoff            BFCut       ... 1.0000e-11
Integration weight cutoff        WCut        ... 1.0000e-14
Angular grids for H and He will be reduced by one unit
Partially contracted basis set               ... off
Rotationally invariant grid construction     ... off

Total number of grid points                  ...    31310
Total number of batches                      ...      493
Average number of points per batch           ...       63
Average number of grid points per atom       ...     4473
Time for grid setup =    0.117 sec

--------------------
COSX GRID GENERATION
--------------------

GRIDX 1
-------
General Integration Accuracy     IntAcc      ... 3.816
Radial Grid Type                 RadialGrid  ... OptM3 with GC (2021)
Angular Grid (max. ang.)         AngularGrid ... 1 (Lebedev-50)
Angular grid pruning method      GridPruning ... 4 (adaptive)
Weight generation scheme         WeightScheme... Becke
Basis function cutoff            BFCut       ... 1.0000e-11
Integration weight cutoff        WCut        ... 1.0000e-14
Angular grids for H and He will be reduced by one unit
Partially contracted basis set               ... on
Rotationally invariant grid construction     ... off

Total number of grid points                  ...     4034
Total number of batches                      ...       67
Average number of points per batch           ...       60
Average number of grid points per atom       ...      576
UseSFitting                                  ... on

GRIDX 2
-------
General Integration Accuracy     IntAcc      ... 4.020
Radial Grid Type                 RadialGrid  ... OptM3 with GC (2021)
Angular Grid (max. ang.)         AngularGrid ... 2 (Lebedev-110)
Angular grid pruning method      GridPruning ... 4 (adaptive)
Weight generation scheme         WeightScheme... Becke
Basis function cutoff            BFCut       ... 1.0000e-11
Integration weight cutoff        WCut        ... 1.0000e-14
Angular grids for H and He will be reduced by one unit
Partially contracted basis set               ... on
Rotationally invariant grid construction     ... off

Total number of grid points                  ...     8711
Total number of batches                      ...      140
Average number of points per batch           ...       62
Average number of grid points per atom       ...     1244
UseSFitting                                  ... on

GRIDX 3
-------
General Integration Accuracy     IntAcc      ... 4.338
Radial Grid Type                 RadialGrid  ... OptM3 with GC (2021)
Angular Grid (max. ang.)         AngularGrid ... 3 (Lebedev-194)
Angular grid pruning method      GridPruning ... 4 (adaptive)
Weight generation scheme         WeightScheme... Becke
Basis function cutoff            BFCut       ... 1.0000e-11
Integration weight cutoff        WCut        ... 1.0000e-14
Angular grids for H and He will be reduced by one unit
Partially contracted basis set               ... on
Rotationally invariant grid construction     ... off

Total number of grid points                  ...    19239
Total number of batches                      ...      303
Average number of points per batch           ...       63
Average number of grid points per atom       ...     2748
UseSFitting                                  ... on

Time for X-Grid setup             =    0.072 sec

--------------
SCF ITERATIONS
--------------
ITER       Energy         Delta-E        Max-DP      RMS-DP      [F,P]     Damp
               ***  Starting incremental Fock matrix formation  ***
                      *** Initiating the SOSCF procedure ***
                      *** Re-Reading the Fockian *** 
                      *** Removing any level shift *** 
ITER      Energy       Delta-E        Grad      Rot      Max-DP    RMS-DP
  0   -153.66059405 -153.6605940507  0.000001  0.000001  0.000001  0.000000
               *** Restarting incremental Fock matrix formation ***
                  ***Gradient check signals convergence***
              ***Rediagonalizing the Fockian in SOSCF/NRSCF***

               *****************************************************
               *                     SUCCESS                       *
               *           SCF CONVERGED AFTER   1 CYCLES          *
               *****************************************************

Old exchange energy                            =     -5.007370810 Eh
New exchange energy                            =     -5.007358631 Eh
Exchange energy change after final integration =      0.000012180 Eh
Total energy after final integration           =   -153.660581871 Eh
Final COS-X integration done in                =     0.261 sec

----------------
TOTAL SCF ENERGY
----------------

Total Energy       :         -153.66058187 Eh           -4181.31701 eV

Components:
Nuclear Repulsion  :           76.64118145 Eh            2085.51257 eV
Electronic Energy  :         -230.30176332 Eh           -6266.82958 eV
One Electron Energy:         -359.85024208 Eh           -9792.02290 eV
Two Electron Energy:          129.54847876 Eh            3525.19332 eV
Max COSX asymmetry :            0.00000224 Eh               0.00006 eV

Virial components:
Potential Energy   :         -306.79001556 Eh           -8348.18074 eV
Kinetic Energy     :          153.12943369 Eh            4166.86373 eV
Virial Ratio       :            2.00346862


DFT components:
N(Alpha)           :       12.000001695694 electrons
N(Beta)            :       12.000001695694 electrons
N(Total)           :       24.000003391388 electrons
E(X)               :      -14.986617731771 Eh       
E(C)               :       -0.793502386314 Eh       
E(XC)              :      -15.780120118084 Eh       
DFET-embed. en.    :        0.000000000000 Eh       

---------------
SCF CONVERGENCE
---------------

  Last Energy change         ...    1.3983e-11  Tolerance :   1.0000e-08
  Last MAX-Density change    ...    9.9920e-16  Tolerance :   1.0000e-07
  Last RMS-Density change    ...    1.9051e-17  Tolerance :   5.0000e-09
  Last Orbital Gradient      ...    4.3571e-07  Tolerance :   1.0000e-05
  Last Orbital Rotation      ...    4.9014e-07  Tolerance :   1.0000e-05

             **** THE GBW FILE WAS UPDATED (ox_es1_A_orca0045.gbw) ****
             **** DENSITY ox_es1_A_orca0045.scfp WAS UPDATED ****
             **** ENERGY FILE WAS UPDATED (ox_es1_A_orca0045.en.tmp) ****
             **** THE GBW FILE WAS UPDATED (ox_es1_A_orca0045.gbw) ****
             **** DENSITY ox_es1_A_orca0045.scfp WAS UPDATED ****
----------------
ORBITAL ENERGIES
----------------

  NO   OCC          E(Eh)            E(eV) 
   0   2.0000     -19.218285      -522.9561 
   1   2.0000     -10.280258      -279.7400 
   2   2.0000     -10.269767      -279.4546 
   3   2.0000      -1.138802       -30.9884 
   4   2.0000      -0.688523       -18.7357 
   5   2.0000      -0.662465       -18.0266 
   6   2.0000      -0.542248       -14.7553 
   7   2.0000      -0.507387       -13.8067 
   8   2.0000      -0.429541       -11.6884 
   9   2.0000      -0.398948       -10.8559 
  10   2.0000      -0.322963        -8.7883 
  11   2.0000      -0.285331        -7.7643 
  12   0.0000       0.064104         1.7444 
  13   0.0000       0.072798         1.9809 
  14   0.0000       0.086155         2.3444 
  15   0.0000       0.100984         2.7479 
  16   0.0000       0.121667         3.3107 
  17   0.0000       0.151141         4.1128 
  18   0.0000       0.192541         5.2393 
  19   0.0000       0.207989         5.6597 
  20   0.0000       0.267914         7.2903 
  21   0.0000       0.273869         7.4524 
  22   0.0000       0.288089         7.8393 
  23   0.0000       0.354856         9.6561 
  24   0.0000       0.395752        10.7690 
  25   0.0000       0.401360        10.9216 
  26   0.0000       0.424144        11.5416 
  27   0.0000       0.439442        11.9578 
  28   0.0000       0.451057        12.2739 
  29   0.0000       0.480617        13.0783 
  30   0.0000       0.491756        13.3814 
  31   0.0000       0.522670        14.2226 
  32   0.0000       0.539174        14.6717 
  33   0.0000       0.702097        19.1050 
  34   0.0000       0.710603        19.3365 
  35   0.0000       0.736265        20.0348 
  36   0.0000       0.825363        22.4593 
  37   0.0000       0.834993        22.7213 
  38   0.0000       0.891692        24.2642 
  39   0.0000       0.935645        25.4602 
  40   0.0000       1.022374        27.8202 
  41   0.0000       1.053087        28.6559 
  42   0.0000       1.054961        28.7070 
  43   0.0000       1.078551        29.3489 
  44   0.0000       1.181963        32.1629 
  45   0.0000       1.358907        36.9777 
  46   0.0000       1.443095        39.2686 
  47   0.0000       1.510980        41.1159 
  48   0.0000       1.520130        41.3648 
  49   0.0000       1.530750        41.6538 
  50   0.0000       1.607315        43.7373 
  51   0.0000       1.637780        44.5663 
  52   0.0000       1.649552        44.8866 
  53   0.0000       1.672379        45.5077 
  54   0.0000       1.757106        47.8133 
  55   0.0000       1.797787        48.9203 
  56   0.0000       1.831648        49.8417 
  57   0.0000       1.910851        51.9969 
  58   0.0000       1.953736        53.1639 
  59   0.0000       2.004700        54.5507 
  60   0.0000       2.133146        58.0458 
  61   0.0000       2.155781        58.6618 
  62   0.0000       2.209453        60.1223 
  63   0.0000       2.245480        61.1026 
  64   0.0000       2.275705        61.9251 
  65   0.0000       2.415612        65.7321 
  66   0.0000       2.436675        66.3053 
  67   0.0000       2.479914        67.4819 
  68   0.0000       2.563270        69.7501 
  69   0.0000       2.588137        70.4268 
  70   0.0000       2.617757        71.2328 
  71   0.0000       2.679848        72.9224 
  72   0.0000       2.724745        74.1441 
  73   0.0000       2.747578        74.7654 
  74   0.0000       2.776064        75.5405 
  75   0.0000       2.835376        77.1545 
  76   0.0000       2.905522        79.0633 
  77   0.0000       2.956139        80.4406 
  78   0.0000       3.008328        81.8608 
  79   0.0000       3.037836        82.6637 
  80   0.0000       3.077762        83.7502 
  81   0.0000       3.099827        84.3506 
  82   0.0000       3.118856        84.8684 
  83   0.0000       3.267527        88.9139 
  84   0.0000       3.319961        90.3407 
  85   0.0000       3.349835        91.1537 
  86   0.0000       3.373043        91.7852 
  87   0.0000       3.435908        93.4958 
  88   0.0000       3.547528        96.5331 
  89   0.0000       3.585063        97.5545 
  90   0.0000       3.694028       100.5196 
  91   0.0000       3.740150       101.7746 
  92   0.0000       3.871486       105.3485 
  93   0.0000       4.025109       109.5288 
  94   0.0000       4.052490       110.2739 
  95   0.0000       4.081768       111.0705 
  96   0.0000       4.218479       114.7907 
  97   0.0000       4.281994       116.5190 
  98   0.0000       4.369276       118.8941 
  99   0.0000       4.623922       125.8233 
 100   0.0000       4.676072       127.2424 
 101   0.0000       4.894967       133.1988 
 102   0.0000       5.367266       146.0507 
 103   0.0000       5.490204       149.3960 
 104   0.0000       5.709509       155.3636 
 105   0.0000       5.865648       159.6124 
 106   0.0000       5.953183       161.9943 
 107   0.0000       5.968255       162.4045 
 108   0.0000       6.164295       167.7390 
 109   0.0000       6.654501       181.0782 
 110   0.0000       6.691443       182.0834 
 111   0.0000       6.834796       185.9842 
 112   0.0000       6.992303       190.2702 
 113   0.0000       7.203721       196.0232 
 114   0.0000      22.240776       605.2023 
 115   0.0000      22.636162       615.9613 
 116   0.0000      43.909260      1194.8317 

                    ********************************
                    * MULLIKEN POPULATION ANALYSIS *
                    ********************************

-----------------------
MULLIKEN ATOMIC CHARGES
-----------------------
   0 O :   -0.298765
   1 C :   -0.024797
   2 C :   -0.126060
   3 H :    0.090346
   4 H :    0.101918
   5 H :    0.123547
   6 H :    0.133810
Sum of atomic charges:    0.0000000

--------------------------------
MULLIKEN REDUCED ORBITAL CHARGES
--------------------------------
  0 O s       :     3.835917  s :     3.835917
      pz      :     1.818066  p :     4.412226
      px      :     1.298475
      py      :     1.295684
      dz2     :     0.005806  d :     0.048114
      dxz     :     0.003652
      dyz     :     0.007885
      dx2y2   :     0.013793
      dxy     :     0.016977
      f0      :     0.000320  f :     0.002508
      f+1     :     0.000227
      f-1     :     0.000483
      f+2     :     0.000097
      f-2     :     0.000288
      f+3     :     0.000367
      f-3     :     0.000725
  1 C s       :     3.200250  s :     3.200250
      pz      :     1.028564  p :     2.681445
      px      :     0.879328
      py      :     0.773553
      dz2     :     0.005708  d :     0.129297
      dxz     :     0.029285
      dyz     :     0.036614
      dx2y2   :     0.035308
      dxy     :     0.022381
      f0      :     0.002012  f :     0.013805
      f+1     :     0.001543
      f-1     :     0.000699
      f+2     :     0.001414
      f-2     :     0.002161
      f+3     :     0.002302
      f-3     :     0.003674
  2 C s       :     3.251357  s :     3.251357
      pz      :     1.047991  p :     2.760578
      px      :     0.897560
      py      :     0.815026
      dz2     :     0.007542  d :     0.102650
      dxz     :     0.025491
      dyz     :     0.025439
      dx2y2   :     0.026928
      dxy     :     0.017250
      f0      :     0.001526  f :     0.011475
      f+1     :     0.001503
      f-1     :     0.000487
      f+2     :     0.001232
      f-2     :     0.001681
      f+3     :     0.002286
      f-3     :     0.002760
  3 H s       :     0.889047  s :     0.889047
      pz      :     0.010875  p :     0.020607
      px      :     0.006056
      py      :     0.003676
  4 H s       :     0.875575  s :     0.875575
      pz      :     0.011189  p :     0.022507
      px      :     0.006749
      py      :     0.004569
  5 H s       :     0.855945  s :     0.855945
      pz      :     0.011022  p :     0.020508
      px      :     0.005608
      py      :     0.003878
  6 H s       :     0.844610  s :     0.844610
      pz      :     0.011003  p :     0.021580
      px      :     0.006561
      py      :     0.004016


                     *******************************
                     * LOEWDIN POPULATION ANALYSIS *
                     *******************************

----------------------
LOEWDIN ATOMIC CHARGES
----------------------
   0 O :    0.180234
   1 C :   -0.381100
   2 C :   -0.266747
   3 H :    0.117354
   4 H :    0.102564
   5 H :    0.130572
   6 H :    0.117123

-------------------------------
LOEWDIN REDUCED ORBITAL CHARGES
-------------------------------
  0 O s       :     3.326309  s :     3.326309
      pz      :     1.681834  p :     4.371718
      px      :     1.282254
      py      :     1.407630
      dz2     :     0.012085  d :     0.112997
      dxz     :     0.011086
      dyz     :     0.019512
      dx2y2   :     0.040097
      dxy     :     0.030216
      f0      :     0.000910  f :     0.008742
      f+1     :     0.000349
      f-1     :     0.000966
      f+2     :     0.000220
      f-2     :     0.001402
      f+3     :     0.001454
      f-3     :     0.003441
  1 C s       :     2.803790  s :     2.803790
      pz      :     1.040938  p :     2.915848
      px      :     1.005772
      py      :     0.869138
      dz2     :     0.060992  d :     0.564562
      dxz     :     0.145370
      dyz     :     0.111528
      dx2y2   :     0.128373
      dxy     :     0.118298
      f0      :     0.014664  f :     0.096901
      f+1     :     0.007094
      f-1     :     0.006786
      f+2     :     0.010004
      f-2     :     0.011705
      f+3     :     0.017733
      f-3     :     0.028914
  2 C s       :     2.845868  s :     2.845868
      pz      :     1.052240  p :     2.927671
      px      :     1.017471
      py      :     0.857959
      dz2     :     0.053032  d :     0.425574
      dxz     :     0.128112
      dyz     :     0.067034
      dx2y2   :     0.093024
      dxy     :     0.084371
      f0      :     0.009483  f :     0.067635
      f+1     :     0.005938
      f-1     :     0.004999
      f+2     :     0.007298
      f-2     :     0.006934
      f+3     :     0.014253
      f-3     :     0.018730
  3 H s       :     0.825274  s :     0.825274
      pz      :     0.031219  p :     0.057372
      px      :     0.015678
      py      :     0.010474
  4 H s       :     0.829805  s :     0.829805
      pz      :     0.034800  p :     0.067630
      px      :     0.018884
      py      :     0.013946
  5 H s       :     0.813181  s :     0.813181
      pz      :     0.031045  p :     0.056247
      px      :     0.014416
      py      :     0.010785
  6 H s       :     0.819390  s :     0.819390
      pz      :     0.033292  p :     0.063488
      px      :     0.018150
      py      :     0.012046


                      *****************************
                      * MAYER POPULATION ANALYSIS *
                      *****************************

  NA   - Mulliken gross atomic population
  ZA   - Total nuclear charge
  QA   - Mulliken gross atomic charge
  VA   - Mayer's total valence
  BVA  - Mayer's bonded valence
  FA   - Mayer's free valence

  ATOM       NA         ZA         QA         VA         BVA        FA
  0 O      8.2988     8.0000    -0.2988     1.9894     1.9894     0.0000
  1 C      6.0248     6.0000    -0.0248     4.0158     4.0158    -0.0000
  2 C      6.1261     6.0000    -0.1261     3.9448     3.9448     0.0000
  3 H      0.9097     1.0000     0.0903     0.9607     0.9607    -0.0000
  4 H      0.8981     1.0000     0.1019     0.9576     0.9576    -0.0000
  5 H      0.8765     1.0000     0.1235     0.9685     0.9685     0.0000
  6 H      0.8662     1.0000     0.1338     0.9619     0.9619     0.0000

  Mayer bond orders larger than 0.100000
B(  0-O ,  1-C ) :   1.0293 B(  0-O ,  2-C ) :   0.9489 B(  1-C ,  2-C ) :   1.0653 
B(  1-C ,  3-H ) :   0.9518 B(  1-C ,  4-H ) :   0.9543 B(  2-C ,  5-H ) :   0.9615 
B(  2-C ,  6-H ) :   0.9489 

-------
TIMINGS
-------

Total SCF time: 0 days 0 hours 0 min 0 sec 

Total time                  ....       0.990 sec
Sum of individual times     ....       0.903 sec  ( 91.2%)

Fock matrix formation       ....       0.699 sec  ( 70.6%)
  Split-RI-J                ....       0.114 sec  ( 16.4% of F)
  Chain of spheres X        ....       0.519 sec  ( 74.3% of F)
  XC integration            ....       0.063 sec  (  9.1% of F)
    Basis function eval.    ....       0.018 sec  ( 27.6% of XC)
    Density eval.           ....       0.014 sec  ( 21.4% of XC)
    XC-Functional eval.     ....       0.004 sec  (  5.8% of XC)
    XC-Potential eval.      ....       0.021 sec  ( 33.5% of XC)
Diagonalization             ....       0.002 sec  (  0.2%)
Density matrix formation    ....       0.000 sec  (  0.0%)
Population analysis         ....       0.002 sec  (  0.2%)
Initial guess               ....       0.007 sec  (  0.7%)
Orbital Transformation      ....       0.000 sec  (  0.0%)
Orbital Orthonormalization  ....       0.001 sec  (  0.1%)
DIIS solution               ....       0.001 sec  (  0.1%)
SOSCF solution              ....       0.002 sec  (  0.2%)
Grid generation             ....       0.189 sec  ( 19.1%)

Maximum memory used throughout the entire SCF-calculation: 61.1 MB


           ************************************************************
           *        Program running with 8 parallel MPI-processes     *
           *              working on a common directory               *
           ************************************************************
------------------------------------------------------------------------------
                        ORCA TD-DFT/TDA CALCULATION
------------------------------------------------------------------------------

Input orbitals are from        ... ox_es1_A_orca0045.gbw
CI-vector output               ... ox_es1_A_orca0045.cis
Tamm-Dancoff approximation     ... operative
CIS-Integral strategy          ... AO-integrals
Integral handling              ... AO integral Direct
Max. core memory used          ... 3000 MB
Reference state                ... RHF
Generation of triplets         ... off
Follow IRoot                   ... off
Number of operators            ... 1
Orbital ranges used for CIS calculation:
 Operator 0:  Orbitals   3... 11  to  12...116
XAS localization array:
 Operator 0:  Orbitals  -1... -1

-------------------
XC-INTEGRATION GRID
-------------------

General Integration Accuracy     IntAcc      ... 3.467
Radial Grid Type                 RadialGrid  ... OptM3 with GC (2021)
Angular Grid (max. ang.)         AngularGrid ... 1 (Lebedev-50)
Angular grid pruning method      GridPruning ... 4 (adaptive)
Weight generation scheme         WeightScheme... Becke
Basis function cutoff            BFCut       ... 1.0000e-11
Integration weight cutoff        WCut        ... 1.0000e-14
Angular grids for H and He will be reduced by one unit
Partially contracted basis set               ... off
Rotationally invariant grid construction     ... off

Total number of grid points                  ...     4533
Total number of batches                      ...       75
Average number of points per batch           ...       60
Average number of grid points per atom       ...      648

---------------------
COSX-INTEGRATION GRID
---------------------

General Integration Accuracy     IntAcc      ... 3.067
Radial Grid Type                 RadialGrid  ... OptM3 with GC (2021)
Angular Grid (max. ang.)         AngularGrid ... 1 (Lebedev-50)
Angular grid pruning method      GridPruning ... 4 (adaptive)
Weight generation scheme         WeightScheme... Becke
Basis function cutoff            BFCut       ... 1.0000e-11
Integration weight cutoff        WCut        ... 1.0000e-14
Angular grids for H and He will be reduced by one unit
Partially contracted basis set               ... on
Rotationally invariant grid construction     ... off

Total number of grid points                  ...     2085
Total number of batches                      ...       37
Average number of points per batch           ...       56
Average number of grid points per atom       ...      298

---------------
TD-DFT XC SETUP
---------------

DFT calculation                         ... on
Name of the grid file                   ... ox_es1_A_orca0045.grid_cis.tmp
Exchange functional (TD-DFT)            ... PBE
   PBE kappa parameter  XKappa (TD-DFT) ...  0.804000
   PBE mue parameter   XMuePBE (TD-DFT) ...  0.219520
Correlation functional (TD-DFT)         ... PBE
   PBE beta parameter CBetaPBE (TD-DFT) ...  0.066725
 LDA part of GGA corr.  LDAOpt (TD-DFT) ... PW91-LDA
Hybrid DFT                              ... on
   Exchange mixing (TD-DFT)             ...  0.250
   GGA exch. scaling (TD-DFT)           ...  0.750
   GGA corr. scaling (TD-DFT)           ...  1.000

Building densities             ... done
Calculating rho(r) on the grid ... done
Building xc-kernel on the grid ... done
                    *** TD-DFT CALCULATION INITIALIZED ***

------------------------
DAVIDSON-DIAGONALIZATION
------------------------

Dimension of the eigenvalue problem            ...    945
Number of roots to be determined               ...      1
Maximum size of the expansion space            ...     10
Maximum number of iterations                   ...    100
Convergence tolerance for the residual         ...    2.500e-07
Convergence tolerance for the energies         ...    2.500e-07
Orthogonality tolerance                        ...    1.000e-14
Level Shift                                    ...    0.000e+00
Constructing the preconditioner                ... o.k.
Building the initial guess                     ... o.k.
Number of trial vectors determined             ...     10


                       ****Iteration    0****

   Memory handling for direct AO based CIS:
   Memory per vector needed      ...     1 MB
   Memory needed                 ...     1 MB
   Memory available              ...  3000 MB
   Number of vectors per batch   ...  3000
   Number of batches             ...     1
   Time for densities:            0.000
   Time for RI-J (Direct):        0.016
   Time for K (COSX):             0.055
   Time for XC-Integration:       0.016
   Time for Sigma-Completion:     0.000
   Size of expansion space: 3
   Lowest Energy          :     0.292120557115
   Maximum Energy change  :     0.292120557115 (vector 0)
   Maximum residual norm  :     0.002567326540

                       ****Iteration    1****
   Time for densities:            0.000
   Time for RI-J (Direct):        0.012
   Time for K (COSX):             0.049
   Time for XC-Integration:       0.007
   Time for Sigma-Completion:     0.000
   Size of expansion space: 4
   Lowest Energy          :     0.289182550023
   Maximum Energy change  :     0.002938007091 (vector 0)
   Maximum residual norm  :     0.000503034034

                       ****Iteration    2****
   Time for densities:            0.000
   Time for RI-J (Direct):        0.012
   Time for K (COSX):             0.049
   Time for XC-Integration:       0.006
   Time for Sigma-Completion:     0.000
   Size of expansion space: 5
   Lowest Energy          :     0.288140833563
   Maximum Energy change  :     0.001041716460 (vector 0)
   Maximum residual norm  :     0.000207748885

                       ****Iteration    3****
   Time for densities:            0.000
   Time for RI-J (Direct):        0.013
   Time for K (COSX):             0.049
   Time for XC-Integration:       0.007
   Time for Sigma-Completion:     0.000
   Size of expansion space: 6
   Lowest Energy          :     0.287873614779
   Maximum Energy change  :     0.000267218784 (vector 0)
   Maximum residual norm  :     0.000057384827

                       ****Iteration    4****
   Time for densities:            0.000
   Time for RI-J (Direct):        0.012
   Time for K (COSX):             0.049
   Time for XC-Integration:       0.007
   Time for Sigma-Completion:     0.000
   Size of expansion space: 7
   Lowest Energy          :     0.287805220762
   Maximum Energy change  :     0.000068394017 (vector 0)
   Maximum residual norm  :     0.000008639477

                       ****Iteration    5****
   Time for densities:            0.000
   Time for RI-J (Direct):        0.012
   Time for K (COSX):             0.049
   Time for XC-Integration:       0.007
   Time for Sigma-Completion:     0.000
   Size of expansion space: 8
   Lowest Energy          :     0.287793804240
   Maximum Energy change  :     0.000011416522 (vector 0)
   Maximum residual norm  :     0.000000552007

                       ****Iteration    6****
   Time for densities:            0.000
   Time for RI-J (Direct):        0.012
   Time for K (COSX):             0.049
   Time for XC-Integration:       0.007
   Time for Sigma-Completion:     0.000
   Size of expansion space: 9
   Lowest Energy          :     0.287793031950
   Maximum Energy change  :     0.000000772290 (vector 0)
   Maximum residual norm  :     0.000000104766

      *** CONVERGENCE OF RESIDUAL NORM REACHED ***

Storing the converged CI vectors               ... ox_es1_A_orca0045.cis1

                 *** DAVIDSON DONE ***

Total time for solving the CIS problem:     0.502sec

------------------------------------
TD-DFT/TDA EXCITED STATES (SINGLETS)
------------------------------------

the weight of the individual excitations are printed if larger than 1.0e-02

STATE  1:  E=   0.287793 au      7.831 eV    63163.3 cm**-1 <S**2> =   0.000000
    11a ->  12a  :     0.200793 (c=  0.44809882)
    11a ->  13a  :     0.699068 (c= -0.83610291)
    11a ->  14a  :     0.054780 (c=  0.23405190)
    11a ->  15a  :     0.011997 (c=  0.10952998)
    11a ->  16a  :     0.022293 (c=  0.14930706)


-----------------------------
TD-DFT/TDA-EXCITATION SPECTRA
-----------------------------

Center of mass = ( -0.0251, -0.1219,  0.0125)
Calculating the Dipole integrals                  ... done
Transforming integrals                            ... done
Calculating the Linear Momentum integrals         ... done
Transforming integrals                            ... done
Calculating angular momentum integrals            ... done
Transforming integrals                            ... done

-----------------------------------------------------------------------------
         ABSORPTION SPECTRUM VIA TRANSITION ELECTRIC DIPOLE MOMENTS
-----------------------------------------------------------------------------
State   Energy    Wavelength  fosc         T2        TX        TY        TZ  
        (cm-1)      (nm)                 (au**2)    (au)      (au)      (au) 
-----------------------------------------------------------------------------
   1   63163.3    158.3   0.000916207   0.00478  -0.05005   0.01771  -0.04423

-----------------------------------------------------------------------------
         ABSORPTION SPECTRUM VIA TRANSITION VELOCITY DIPOLE MOMENTS
-----------------------------------------------------------------------------
State   Energy    Wavelength   fosc        P2         PX        PY        PZ  
        (cm-1)      (nm)                 (au**2)     (au)      (au)      (au) 
-----------------------------------------------------------------------------
   1   63163.3    158.3   0.003240877   0.00140   0.00826  -0.00085  -0.03647

-------------------------------------------------------------------
                             CD SPECTRUM
-------------------------------------------------------------------
State  Energy     Wavelength     R         MX        MY        MZ   
       (cm-1)       (nm)     (1e40*cgs)   (au)      (au)      (au)  
-------------------------------------------------------------------
   1   63163.3    158.3     -7.93918   0.27659  -0.18716  -0.00721

-------------------------------------------------------------------
         CD SPECTRUM VIA TRANSITION VELOCITY DIPOLE MOMENTS        
-------------------------------------------------------------------
State  Energy     Wavelength     R         MX        MY        MZ   
       (cm-1)       (nm)     (1e40*cgs)   (au)      (au)      (au)  
-------------------------------------------------------------------
   1   63163.3    158.3      4.43472   0.27659  -0.18716  -0.00721

Total run time:        0.762 sec

           *** ORCA-CIS/TD-DFT FINISHED WITHOUT ERROR ***

Maximum memory used throughout the entire CIS-calculation: 49.4 MB

-----------------------
CIS/TD-DFT TOTAL ENERGY
-----------------------

    E(SCF)  =   -153.660581871 Eh
    DE(CIS) =      0.287793032 Eh (Root  1)
    ----------------------------- ---------
    E(tot)  =   -153.372788839 Eh



-------------------------------------------------------------------------------
                          DFT DISPERSION CORRECTION                            
                                                                               
                              DFTD3 V3.1  Rev 1                                
                          USING Becke-Johnson damping                          
-------------------------------------------------------------------------------
The PBE0 functional is recognized
Active option DFTDOPT                   ...         4   

molecular C6(AA) [au] = 350.820598 


            DFT-D V3
 parameters
 s6 scaling factor         :     1.0000 
 a1 scaling factor         :     0.4145 
 s8 scaling factor         :     1.2177 
 a2 scaling factor         :     4.8593 
 ad hoc parameters k1-k3   :    16.0000     1.3333    -4.0000 

 Edisp/kcal,au: -1.508889002063  -0.002404567426 
 E6   /kcal   :  -0.989455828 
 E8   /kcal   :  -0.519433174 
 % E8         :  34.424876428 

-------------------------   ----------------
Dispersion correction           -0.002404567
-------------------------   ----------------


-------------------------   --------------------
FINAL SINGLE POINT ENERGY      -153.375193406429
-------------------------   --------------------



           ************************************************************
           *        Program running with 8 parallel MPI-processes     *
           *              working on a common directory               *
           ************************************************************
------------------------------------------------------------------------------
                         ORCA SCF GRADIENT CALCULATION
------------------------------------------------------------------------------


------------------------
TD-DFT GRADIENT XC SETUP
------------------------

Building densities                     ... done
Calculating rho(r) on the grid         ... done
Building xc-kernel on the grid         ... done
Building xc 3rd derivative on the grid      ... done
                *** TD-DFT GRADIENT CALCULATION INITIALIZED ***

-------------------
TD-DFT/TDA GRADIENT
-------------------

Reference wavefunction             ... RHF
State of interest                  ... 1
Basis dimension                    ... 117
DFT-XC contribution needed         ... YES
RI-approximation                   ... ON
CIS-vectors being read from        ... ox_es1_A_orca0045.cis

 => Number of Vectors found: 1
 => Orbital Window: 3...11 -> 12...116

Reading the CIS file                     ... done
Norm of the CI vector                    ... 1.000000000
Making the CIS (pseudo)densities         ... done
Making operators G(D) and Q(T)           ... done
Transforming the Fock operators          ... done
Making the frozen-core relaxed density   ... done
Constructing the G(H) operator           ... done
Transforming the G(H) operator           ... done
Calculating the CIS Lagrangian           ... done
Solving the Z-vector equations           ... done
Finalizing the relaxed density           ... done
Storing the relaxed density              ... done
Constructing the G(Z) operator           ... done
Transforming the G(Z) operator           ... done
Making the W-matrix                      ... done
Finalizing the W-matrix                  ... done
Transforming the W-matrix                ... done
Nuclear repulsion gradient               ... done
One-Electron gradient                    ... done
Dispersion correction                    ... done
Prescreening matrices                    ... done
COSX-gradient                            ... done
Coulomb gradient (RI)                    ... done
Exchange-Correlation gradient            ... done

                 ---------------------------
                 EXCITED STATE GRADIENT DONE
                 ---------------------------

------------------
CARTESIAN GRADIENT
------------------

   1   O   :    0.018371932   -0.150550112    0.009642872
   2   C   :    0.014428472    0.057226560   -0.047460047
   3   C   :   -0.067583625    0.119845572    0.016594794
   4   H   :    0.005704400   -0.005454228    0.008600267
   5   H   :    0.024287279    0.006493653    0.027909557
   6   H   :    0.000651889   -0.015788929   -0.013456881
   7   H   :    0.004045416   -0.011727058   -0.001824530

Difference to translation invariance:
           :   -0.0000942362    0.0000454586    0.0000060313

Difference to rotation invariance:
           :    0.0001464940    0.0001014440    0.0002387760

Norm of the cartesian gradient     ...    0.2239922257
RMS gradient                       ...    0.0488791109
MAX gradient                       ...    0.1505501116

------------------------------------------------------------------------------
                  RELAXED CIS/TDA DENSITY POPULATION ANALYSIS
                                   IROOT 1
------------------------------------------------------------------------------
------------------------------------------------------------------------------
                           ORCA POPULATION ANALYSIS
------------------------------------------------------------------------------
Input electron density              ... ox_es1_A_orca0045.cisp
BaseName (.gbw .S,...)              ... ox_es1_A_orca0045

                    ********************************
                    * MULLIKEN POPULATION ANALYSIS *
                    ********************************

-----------------------
MULLIKEN ATOMIC CHARGES
-----------------------
   0 O :    0.181763
   1 C :   -0.234095
   2 C :   -0.479574
   3 H :    0.175639
   4 H :    0.165658
   5 H :    0.037039
   6 H :    0.153570
Sum of atomic charges:    0.0000000

--------------------------------
MULLIKEN REDUCED ORBITAL CHARGES
--------------------------------
  0 O s       :     3.723481  s :     3.723481
      pz      :     1.144935  p :     4.044907
      px      :     1.481170
      py      :     1.418802
      dz2     :     0.005134  d :     0.047808
      dxz     :     0.004239
      dyz     :     0.008739
      dx2y2   :     0.013880
      dxy     :     0.015816
      f0      :     0.000188  f :     0.002041
      f+1     :     0.000023
      f-1     :     0.000255
      f+2     :     0.000107
      f-2     :     0.000308
      f+3     :     0.000380
      f-3     :     0.000781
  1 C s       :     3.241326  s :     3.241326
      pz      :     1.022870  p :     2.886991
      px      :     1.118795
      py      :     0.745326
      dz2     :     0.001421  d :     0.093669
      dxz     :     0.023114
      dyz     :     0.013921
      dx2y2   :     0.034420
      dxy     :     0.020793
      f0      :     0.001220  f :     0.012109
      f+1     :     0.001661
      f-1     :     0.000592
      f+2     :     0.000888
      f-2     :     0.001514
      f+3     :     0.002752
      f-3     :     0.003483
  2 C s       :     3.168499  s :     3.168499
      pz      :     1.077211  p :     3.212757
      px      :     0.837376
      py      :     1.298170
      dz2     :     0.016813  d :     0.087876
      dxz     :     0.014229
      dyz     :     0.005998
      dx2y2   :     0.028934
      dxy     :     0.021901
      f0      :     0.001088  f :     0.010442
      f+1     :     0.001490
      f-1     :     0.000711
      f+2     :     0.000958
      f-2     :     0.001076
      f+3     :     0.002673
      f-3     :     0.002446
  3 H s       :     0.801464  s :     0.801464
      pz      :     0.011218  p :     0.022897
      px      :     0.008044
      py      :     0.003635
  4 H s       :     0.809538  s :     0.809538
      pz      :     0.011833  p :     0.024804
      px      :     0.008472
      py      :     0.004499
  5 H s       :     0.936594  s :     0.936594
      pz      :     0.013166  p :     0.026368
      px      :     0.006479
      py      :     0.006723
  6 H s       :     0.818941  s :     0.818941
      pz      :     0.011789  p :     0.027489
      px      :     0.006652
      py      :     0.009049


                     *******************************
                     * LOEWDIN POPULATION ANALYSIS *
                     *******************************

----------------------
LOEWDIN ATOMIC CHARGES
----------------------
   0 O :    0.469365
   1 C :   -0.386640
   2 C :   -0.601815
   3 H :    0.167278
   4 H :    0.135701
   5 H :    0.094773
   6 H :    0.121338

-------------------------------
LOEWDIN REDUCED ORBITAL CHARGES
-------------------------------
  0 O s       :     3.371311  s :     3.371311
      pz      :     1.074864  p :     4.028094
      px      :     1.456942
      py      :     1.496288
      dz2     :     0.011192  d :     0.122748
      dxz     :     0.012601
      dyz     :     0.019075
      dx2y2   :     0.045201
      dxy     :     0.034679
      f0      :     0.000893  f :     0.008483
      f+1     :     0.000221
      f-1     :     0.000754
      f+2     :     0.000207
      f-2     :     0.001478
      f+3     :     0.001301
      f-3     :     0.003629
  1 C s       :     2.803824  s :     2.803824
      pz      :     1.005706  p :     2.981625
      px      :     1.099402
      py      :     0.876517
      dz2     :     0.081737  d :     0.510385
      dxz     :     0.121745
      dyz     :     0.051311
      dx2y2   :     0.140579
      dxy     :     0.115013
      f0      :     0.010107  f :     0.090806
      f+1     :     0.008269
      f-1     :     0.007115
      f+2     :     0.006784
      f-2     :     0.008145
      f+3     :     0.020332
      f-3     :     0.030055
  2 C s       :     2.849860  s :     2.849860
      pz      :     1.048318  p :     3.156028
      px      :     0.991178
      py      :     1.116532
      dz2     :     0.088435  d :     0.522491
      dxz     :     0.105847
      dyz     :     0.027904
      dx2y2   :     0.162019
      dxy     :     0.138286
      f0      :     0.007535  f :     0.073435
      f+1     :     0.006031
      f-1     :     0.007173
      f+2     :     0.004965
      f-2     :     0.004696
      f+3     :     0.024322
      f-3     :     0.018713
  3 H s       :     0.769286  s :     0.769286
      pz      :     0.032245  p :     0.063436
      px      :     0.020551
      py      :     0.010641
  4 H s       :     0.790822  s :     0.790822
      pz      :     0.036328  p :     0.073477
      px      :     0.022998
      py      :     0.014151
  5 H s       :     0.831758  s :     0.831758
      pz      :     0.039321  p :     0.073469
      px      :     0.016603
      py      :     0.017545
  6 H s       :     0.799218  s :     0.799218
      pz      :     0.037639  p :     0.079443
      px      :     0.018382
      py      :     0.023422


                      *****************************
                      * MAYER POPULATION ANALYSIS *
                      *****************************

  NA   - Mulliken gross atomic population
  ZA   - Total nuclear charge
  QA   - Mulliken gross atomic charge
  VA   - Mayer's total valence
  BVA  - Mayer's bonded valence
  FA   - Mayer's free valence

  ATOM       NA         ZA         QA         VA         BVA        FA
  0 O      7.8182     8.0000     0.1818     1.8660     1.2603     0.6057
  1 C      6.2341     6.0000    -0.2341     3.8530     3.5654     0.2877
  2 C      6.4796     6.0000    -0.4796     3.7998     3.1294     0.6704
  3 H      0.8244     1.0000     0.1756     0.9650     0.9052     0.0597
  4 H      0.8343     1.0000     0.1657     0.9713     0.9296     0.0417
  5 H      0.9630     1.0000     0.0370     1.1200     0.9584     0.1616
  6 H      0.8464     1.0000     0.1536     1.0350     0.9731     0.0619

  Mayer bond orders larger than 0.100000
B(  0-O ,  1-C ) :   0.8553 B(  0-O ,  2-C ) :   0.4472 B(  1-C ,  2-C ) :   0.8264 
B(  1-C ,  3-H ) :   0.8829 B(  1-C ,  4-H ) :   0.9135 B(  2-C ,  5-H ) :   0.9013 
B(  2-C ,  6-H ) :   0.9383 


-------
TIMINGS
-------

Total TD-DFT gradient time         ...        5.483 sec

Fock matrix formation       ....       0.849 sec  ( 15.5%)
  Coulomb formation         ....       0.686 sec  ( 80.8% of F)
  RI-J                      ....       0.297 sec  ( 34.9% of F)
  Chain of spheres X        ....       0.388 sec  ( 45.8% of F)
  XC integration            ....       0.163 sec  ( 19.2% of F)
Z-vector equation           ....       1.381 sec  ( 25.2%)
One electron gradient       ....       0.032 sec  (  0.6%)
Prescreening matrices       ....       0.168 sec  (  3.1%)
RI-J Coulomb gradient       ....       0.285 sec  (  5.2%)
COSX gradient               ....       0.409 sec  (  7.5%)
XC gradient                 ....       2.028 sec  ( 37.0%)

Maximum memory used throughout the entire SCFGRAD-calculation: 130.3 MB

                            ***************************************
                            *     ORCA property calculations      *
                            ***************************************

                                    ---------------------
                                    Active property flags
                                    ---------------------
   (+) Dipole Moment


------------------------------------------------------------------------------
                       ORCA ELECTRIC PROPERTIES CALCULATION
------------------------------------------------------------------------------

Dipole Moment Calculation                       ... on
Quadrupole Moment Calculation                   ... off
Polarizability Calculation                      ... off
GBWName                                         ... ox_es1_A_orca0045.gbw
Electron density                                ... ox_es1_A_orca0045.scfp
The origin for moment calculation is the CENTER OF MASS  = (-0.025093, -0.121874  0.012483)

-------------
DIPOLE MOMENT
-------------
                                X             Y             Z
Electronic contribution:     -0.08455       1.52411      -0.05570
Nuclear contribution   :      0.13022      -2.11736       0.08845
                        -----------------------------------------
Total Dipole Moment    :      0.04566      -0.59325       0.03275
                        -----------------------------------------
Magnitude (a.u.)       :      0.59590
Magnitude (Debye)      :      1.51467



--------------------
Rotational spectrum 
--------------------
 
Rotational constants in cm-1:     0.957001     0.712265     0.491914 
Rotational constants in MHz : 28690.163112 21353.179831 14747.222192 

 Dipole components along the rotational axes: 
x,y,z [a.u.] :    -0.198188    -0.561843    -0.012479 
x,y,z [Debye]:    -0.503753    -1.428091    -0.031718 

 

                        *** CIS RELAXED DENSITY ***

------------------------------------------------------------------------------
                       ORCA ELECTRIC PROPERTIES CALCULATION
------------------------------------------------------------------------------

Dipole Moment Calculation                       ... on
Quadrupole Moment Calculation                   ... off
Polarizability Calculation                      ... off
GBWName                                         ... ox_es1_A_orca0045.gbw
Electron density                                ... ox_es1_A_orca0045.cisp
The origin for moment calculation is the CENTER OF MASS  = (-0.025093, -0.121874  0.012483)

-------------
DIPOLE MOMENT
-------------
                                X             Y             Z
Electronic contribution:     -1.01432       2.01623       0.04814
Nuclear contribution   :      0.13022      -2.11736       0.08845
                        -----------------------------------------
Total Dipole Moment    :     -0.88411      -0.10113       0.13659
                        -----------------------------------------
Magnitude (a.u.)       :      0.90029
Magnitude (Debye)      :      2.28836



--------------------
Rotational spectrum 
--------------------
 
Rotational constants in cm-1:     0.957001     0.712265     0.491914 
Rotational constants in MHz : 28690.163112 21353.179831 14747.222192 

 Dipole components along the rotational axes: 
x,y,z [a.u.] :     0.818523    -0.335340     0.167610 
x,y,z [Debye]:     2.080521    -0.852366     0.426031 

 

Timings for individual modules:

Sum of individual times         ...        8.195 sec (=   0.137 min)
GTO integral calculation        ...        0.331 sec (=   0.006 min)   4.0 %
SCF iterations                  ...        1.182 sec (=   0.020 min)  14.4 %
CIS module                      ...        0.996 sec (=   0.017 min)  12.2 %
SCF Gradient evaluation         ...        5.686 sec (=   0.095 min)  69.4 %
                             ****ORCA TERMINATED NORMALLY****
TOTAL RUN TIME: 0 days 0 hours 0 minutes 8 seconds 555 msec
