
                                 *****************
                                 * O   R   C   A *
                                 *****************

                                            #,                                       
                                            ###                                      
                                            ####                                     
                                            #####                                    
                                            ######                                   
                                           ########,                                 
                                     ,,################,,,,,                         
                               ,,#################################,,                 
                          ,,##########################################,,             
                       ,#########################################, ''#####,          
                    ,#############################################,,   '####,        
                  ,##################################################,,,,####,       
                ,###########''''           ''''###############################       
              ,#####''   ,,,,##########,,,,          '''####'''          '####       
            ,##' ,,,,###########################,,,                        '##       
           ' ,,###''''                  '''############,,,                           
         ,,##''                                '''############,,,,        ,,,,,,###''
      ,#''                                            '''#######################'''  
     '                                                          ''''####''''         
             ,#######,   #######,   ,#######,      ##                                
            ,#'     '#,  ##    ##  ,#'     '#,    #''#        ######   ,####,        
            ##       ##  ##   ,#'  ##            #'  '#       #        #'  '#        
            ##       ##  #######   ##           ,######,      #####,   #    #        
            '#,     ,#'  ##    ##  '#,     ,#' ,#      #,         ##   #,  ,#        
             '#######'   ##     ##  '#######'  #'      '#     #####' # '####'        



                  #######################################################
                  #                        -***-                        #
                  #          Department of theory and spectroscopy      #
                  #    Directorship and core code : Frank Neese         #
                  #        Max Planck Institute fuer Kohlenforschung    #
                  #                Kaiser Wilhelm Platz 1               #
                  #                 D-45470 Muelheim/Ruhr               #
                  #                      Germany                        #
                  #                                                     #
                  #                  All rights reserved                #
                  #                        -***-                        #
                  #######################################################


                         Program Version 5.0.2 -  RELEASE  -


 With contributions from (in alphabetic order):
   Daniel Aravena         : Magnetic Suceptibility
   Michael Atanasov       : Ab Initio Ligand Field Theory (pilot matlab implementation)
   Alexander A. Auer      : GIAO ZORA, VPT2 properties, NMR spectrum
   Ute Becker             : Parallelization
   Giovanni Bistoni       : ED, misc. LED, open-shell LED, HFLD
   Martin Brehm           : Molecular dynamics
   Dmytro Bykov           : SCF Hessian
   Vijay G. Chilkuri      : MRCI spin determinant printing, contributions to CSF-ICE
   Dipayan Datta          : RHF DLPNO-CCSD density
   Achintya Kumar Dutta   : EOM-CC, STEOM-CC
   Dmitry Ganyushin       : Spin-Orbit,Spin-Spin,Magnetic field MRCI
   Miquel Garcia          : C-PCM and meta-GGA Hessian, CC/C-PCM, Gaussian charge scheme
   Yang Guo               : DLPNO-NEVPT2, F12-NEVPT2, CIM, IAO-localization
   Andreas Hansen         : Spin unrestricted coupled pair/coupled cluster methods
   Benjamin Helmich-Paris : MC-RPA, TRAH-SCF, COSX integrals
   Lee Huntington         : MR-EOM, pCC
   Robert Izsak           : Overlap fitted RIJCOSX, COSX-SCS-MP3, EOM
   Marcus Kettner         : VPT2
   Christian Kollmar      : KDIIS, OOCD, Brueckner-CCSD(T), CCSD density, CASPT2, CASPT2-K
   Simone Kossmann        : Meta GGA functionals, TD-DFT gradient, OOMP2, MP2 Hessian
   Martin Krupicka        : Initial AUTO-CI
   Lucas Lang             : DCDCAS
   Marvin Lechner         : AUTO-CI (C++ implementation), FIC-MRCC
   Dagmar Lenk            : GEPOL surface, SMD
   Dimitrios Liakos       : Extrapolation schemes; Compound Job, initial MDCI parallelization
   Dimitrios Manganas     : Further ROCIS development; embedding schemes
   Dimitrios Pantazis     : SARC Basis sets
   Anastasios Papadopoulos: AUTO-CI, single reference methods and gradients
   Taras Petrenko         : DFT Hessian,TD-DFT gradient, ASA, ECA, R-Raman, ABS, FL, XAS/XES, NRVS
   Peter Pinski           : DLPNO-MP2, DLPNO-MP2 Gradient
   Christoph Reimann      : Effective Core Potentials
   Marius Retegan         : Local ZFS, SOC
   Christoph Riplinger    : Optimizer, TS searches, QM/MM, DLPNO-CCSD(T), (RO)-DLPNO pert. Triples
   Tobias Risthaus        : Range-separated hybrids, TD-DFT gradient, RPA, STAB
   Michael Roemelt        : Original ROCIS implementation
   Masaaki Saitow         : Open-shell DLPNO-CCSD energy and density
   Barbara Sandhoefer     : DKH picture change effects
   Avijit Sen             : IP-ROCIS
   Kantharuban Sivalingam : CASSCF convergence, NEVPT2, FIC-MRCI
   Bernardo de Souza      : ESD, SOC TD-DFT
   Georgi Stoychev        : AutoAux, RI-MP2 NMR, DLPNO-MP2 response
   Willem Van den Heuvel  : Paramagnetic NMR
   Boris Wezisla          : Elementary symmetry handling
   Frank Wennmohs         : Technical directorship


 We gratefully acknowledge several colleagues who have allowed us to
 interface, adapt or use parts of their codes:
   Stefan Grimme, W. Hujo, H. Kruse, P. Pracht,  : VdW corrections, initial TS optimization,
                  C. Bannwarth, S. Ehlert          DFT functionals, gCP, sTDA/sTD-DF
   Ed Valeev, F. Pavosevic, A. Kumar             : LibInt (2-el integral package), F12 methods
   Garnet Chan, S. Sharma, J. Yang, R. Olivares  : DMRG
   Ulf Ekstrom                                   : XCFun DFT Library
   Mihaly Kallay                                 : mrcc  (arbitrary order and MRCC methods)
   Jiri Pittner, Ondrej Demel                    : Mk-CCSD
   Frank Weinhold                                : gennbo (NPA and NBO analysis)
   Christopher J. Cramer and Donald G. Truhlar   : smd solvation model
   Lars Goerigk                                  : TD-DFT with DH, B97 family of functionals
   V. Asgeirsson, H. Jonsson                     : NEB implementation
   FAccTs GmbH                                   : IRC, NEB, NEB-TS, DLPNO-Multilevel, CI-OPT
                                                   MM, QMMM, 2- and 3-layer-ONIOM, Crystal-QMMM,
                                                   LR-CPCM, SF, NACMEs, symmetry and pop. for TD-DFT,
                                                   nearIR, NL-DFT gradient (VV10), updates on ESD,
                                                   ML-optimized integration grids
   S Lehtola, MJT Oliveira, MAL Marques          : LibXC Library
   Liviu Ungur et al                             : ANISO software


 Your calculation uses the libint2 library for the computation of 2-el integrals
 For citations please refer to: http://libint.valeyev.net

 Your ORCA version has been built with support for libXC version: 5.1.0
 For citations please refer to: https://tddft.org/programs/libxc/

 This ORCA versions uses:
   CBLAS   interface :  Fast vector & matrix operations
   LAPACKE interface :  Fast linear algebra routines
   SCALAPACK package :  Parallel linear algebra routines
   Shared memory     :  Shared parallel matrices
   BLAS/LAPACK       :  OpenBLAS 0.3.15  USE64BITINT DYNAMIC_ARCH NO_AFFINITY SkylakeX SINGLE_THREADED
        Core in use  :  SkylakeX
   Copyright (c) 2011-2014, The OpenBLAS Project


Your calculation utilizes the atom-pairwise dispersion correction
with the Becke-Johnson damping scheme (D3BJ)
Cite in your paper:
S.Grimme, S.Ehrlich, L.Goerigk, J Comput Chem, (2011), 32, 1456–1465 
S.Grimme, J.Antony, S.Ehrlich and H.Krieg, J.Chem.Phys., 132, (2010), 154104 
   

================================================================================

----- Orbital basis set information -----
Your calculation utilizes the basis: def2-TZVP
   F. Weigend and R. Ahlrichs, Phys. Chem. Chem. Phys. 7, 3297 (2005).

----- AuxJ basis set information -----
Your calculation utilizes the auxiliary basis: def2/J
   F. Weigend, Phys. Chem. Chem. Phys. 8, 1057 (2006).

================================================================================
                                        WARNINGS
                       Please study these warnings very carefully!
================================================================================

INFO   : Checking CIS options ...

WARNING: CIS/ROCIS methods need fully converged wavefunctions
  ===> : Setting SCFConvForced true
         You can overwrite this default with %scf ConvForced false 


INFO   : the flag for use of the SHARK integral package has been found!

================================================================================
                                       INPUT FILE
================================================================================
NAME = ox_es1_C_orca0008.inp
|  1> ! engrad PBE0 D3BJ def2-TZVP  
|  2> %pal nprocs 8 end
|  3> %maxcore 3000
|  4> 
|  5> %tddft
|  6>   nroots 1
|  7>   tda true
|  8>   Iroot 1
|  9>   end 
| 10> *xyz 0 1 
| 11> O   -0.46430289815404746 0.973537165352685 -0.031209473125896902
| 12> C   -0.7939272974355485 -0.41247106442901516 -0.04014381412657148
| 13> C   0.8072150884372953 -0.4964285973461756 -0.04629932584482809
| 14> H   -1.2825963845722257 -0.6630972534391893 0.8519164071621523
| 15> H   -1.3567817987694006 -0.6179948631810166 -0.8133580655965585
| 16> H   1.376200905951856 -0.6267438778291547 -0.9775896169205007
| 17> H   1.2945288943013684 -0.6481060376858524 0.902351037289904
| 18> *
| 19> 
| 20>                          ****END OF INPUT****
================================================================================

                     *******************************
                     * Energy+Gradient Calculation *
                     *******************************

---------------------------------
CARTESIAN COORDINATES (ANGSTROEM)
---------------------------------
  O     -0.464303    0.973537   -0.031209
  C     -0.793927   -0.412471   -0.040144
  C      0.807215   -0.496429   -0.046299
  H     -1.282596   -0.663097    0.851916
  H     -1.356782   -0.617995   -0.813358
  H      1.376201   -0.626744   -0.977590
  H      1.294529   -0.648106    0.902351

----------------------------
CARTESIAN COORDINATES (A.U.)
----------------------------
  NO LB      ZA    FRAG     MASS         X           Y           Z
   0 O     8.0000    0    15.999   -0.877405    1.839719   -0.058977
   1 C     6.0000    0    12.011   -1.500305   -0.779457   -0.075861
   2 C     6.0000    0    12.011    1.525415   -0.938114   -0.087493
   3 H     1.0000    0     1.008   -2.423756   -1.253072    1.609889
   4 H     1.0000    0     1.008   -2.563946   -1.167841   -1.537024
   5 H     1.0000    0     1.008    2.600643   -1.184374   -1.847377
   6 H     1.0000    0     1.008    2.446305   -1.224743    1.705196

--------------------------------
INTERNAL COORDINATES (ANGSTROEM)
--------------------------------
 O      0   0   0     0.000000000000     0.00000000     0.00000000
 C      1   0   0     1.424693258240     0.00000000     0.00000000
 C      2   1   0     1.603353890286    79.62557322     0.00000000
 H      2   1   3     1.047560213900   109.59314927   115.31109814
 H      2   1   3     0.978215467165   110.02789996   237.32845148
 H      3   2   1     1.099103516104   121.76450507   263.43027897
 H      3   2   1     1.077227136109   117.11294816    97.14245505

---------------------------
INTERNAL COORDINATES (A.U.)
---------------------------
 O      0   0   0     0.000000000000     0.00000000     0.00000000
 C      1   0   0     2.692280082917     0.00000000     0.00000000
 C      2   1   0     3.029899748399    79.62557322     0.00000000
 H      2   1   3     1.979601913063   109.59314927   115.31109814
 H      2   1   3     1.848559332908   110.02789996   237.32845148
 H      3   2   1     2.077004638266   121.76450507   263.43027897
 H      3   2   1     2.035664271274   117.11294816    97.14245505

---------------------
BASIS SET INFORMATION
---------------------
There are 3 groups of distinct atoms

 Group   1 Type O   : 11s6p2d1f contracted to 5s3p2d1f pattern {62111/411/11/1}
 Group   2 Type C   : 11s6p2d1f contracted to 5s3p2d1f pattern {62111/411/11/1}
 Group   3 Type H   : 5s1p contracted to 3s1p pattern {311/1}

Atom   0O    basis set group =>   1
Atom   1C    basis set group =>   2
Atom   2C    basis set group =>   2
Atom   3H    basis set group =>   3
Atom   4H    basis set group =>   3
Atom   5H    basis set group =>   3
Atom   6H    basis set group =>   3
---------------------------------
AUXILIARY/J BASIS SET INFORMATION
---------------------------------
There are 3 groups of distinct atoms

 Group   1 Type O   : 12s5p4d2f1g contracted to 6s4p3d1f1g pattern {711111/2111/211/2/1}
 Group   2 Type C   : 12s5p4d2f1g contracted to 6s4p3d1f1g pattern {711111/2111/211/2/1}
 Group   3 Type H   : 5s2p1d contracted to 3s1p1d pattern {311/2/1}

Atom   0O    basis set group =>   1
Atom   1C    basis set group =>   2
Atom   2C    basis set group =>   2
Atom   3H    basis set group =>   3
Atom   4H    basis set group =>   3
Atom   5H    basis set group =>   3
Atom   6H    basis set group =>   3

Checking for AutoStart:
The File: ox_es1_C_orca0008.gbw exists
Trying to determine its content:
     ... Fine, the file contains calculation information
     ... Fine, the calculation information was read
     ... Fine, the file contains a basis set
     ... Fine, the basis set was read
     ... Fine, the file contains a geometry
     ... Fine, the geometry was read
     ... Fine, the file contains a set of orbitals
     ... Fine, the orbitals can be read
     => possible old guess file was deleted
     => GBW file was renamed to GES file
     => GES file is set as startup file
     => Guess is set to MORead
     ... now leaving AutoStart



           ************************************************************
           *        Program running with 8 parallel MPI-processes     *
           *              working on a common directory               *
           ************************************************************
------------------------------------------------------------------------------
                           ORCA GTO INTEGRAL CALCULATION
                           -- RI-GTO INTEGRALS CHOSEN --
------------------------------------------------------------------------------
------------------------------------------------------------------------------
                   ___                                                        
                  /   \      - P O W E R E D   B Y -                         
                 /     \                                                     
                 |  |  |   _    _      __       _____    __    __             
                 |  |  |  | |  | |    /  \     |  _  \  |  |  /  |          
                  \  \/   | |  | |   /    \    | | | |  |  | /  /          
                 / \  \   | |__| |  /  /\  \   | |_| |  |  |/  /          
                |  |  |   |  __  | /  /__\  \  |    /   |      \           
                |  |  |   | |  | | |   __   |  |    \   |  |\   \          
                \     /   | |  | | |  |  |  |  | |\  \  |  | \   \       
                 \___/    |_|  |_| |__|  |__|  |_| \__\ |__|  \__/        
                                                                              
                      - O R C A' S   B I G   F R I E N D -                    
                                      &                                       
                       - I N T E G R A L  F E E D E R -                       
                                                                              
 v1 FN, 2020, v2 2021                                                         
------------------------------------------------------------------------------


Reading SHARK input file ox_es1_C_orca0008.SHARKINP.tmp ... ok
----------------------
SHARK INTEGRAL PACKAGE
----------------------

Number of atoms                             ...      7
Number of basis functions                   ...    117
Number of shells                            ...     49
Maximum angular momentum                    ...      3
Integral batch strategy                     ... SHARK/LIBINT Hybrid
RI-J (if used) integral strategy            ... SPLIT-RIJ (Revised 2003 algorithm where possible)
Printlevel                                  ...      1
Contraction scheme used                     ... SEGMENTED contraction
Coulomb Range Separation                    ... NOT USED
Exchange Range Separation                   ... NOT USED
Finite Nucleus Model                        ... NOT USED
Auxiliary Coulomb fitting basis             ... AVAILABLE
   # of basis functions in Aux-J            ...    191
   # of shells in Aux-J                     ...     65
   Maximum angular momentum in Aux-J        ...      4
Auxiliary J/K fitting basis                 ... NOT available
Auxiliary Correlation fitting basis         ... NOT available
Auxiliary 'external' fitting basis          ... NOT available
Integral threshold                          ...     2.500000e-11
Primitive cut-off                           ...     2.500000e-12
Primitive pair pre-selection threshold      ...     2.500000e-12

Calculating pre-screening integrals         ... done (  0.0 sec) Dimension = 49
Organizing shell pair data                  ... done (  0.0 sec)
Shell pair information
Total number of shell pairs                 ...      1225
Shell pairs after pre-screening             ...      1217
Total number of primitive shell pairs       ...      3648
Primitive shell pairs kept                  ...      3103
          la=0 lb=0:    370 shell pairs
          la=1 lb=0:    351 shell pairs
          la=1 lb=1:     91 shell pairs
          la=2 lb=0:    162 shell pairs
          la=2 lb=1:     78 shell pairs
          la=2 lb=2:     21 shell pairs
          la=3 lb=0:     81 shell pairs
          la=3 lb=1:     39 shell pairs
          la=3 lb=2:     18 shell pairs
          la=3 lb=3:      6 shell pairs

Calculating one electron integrals          ... done (  0.0 sec)
Calculating RI/J V-Matrix + Cholesky decomp.... done (  0.0 sec)
Calculating Nuclear repulsion               ... done (  0.0 sec) ENN=     69.192231090628 Eh

SHARK setup successfully completed in   0.1 seconds

Maximum memory used throughout the entire GTOINT-calculation: 14.9 MB


           ************************************************************
           *        Program running with 8 parallel MPI-processes     *
           *              working on a common directory               *
           ************************************************************
-------------------------------------------------------------------------------
                                 ORCA SCF
-------------------------------------------------------------------------------

------------
SCF SETTINGS
------------
Hamiltonian:
 Density Functional     Method          .... DFT(GTOs)
 Exchange Functional    Exchange        .... PBE
   PBE kappa parameter   XKappa         ....  0.804000
   PBE mue parameter    XMuePBE         ....  0.219520
 Correlation Functional Correlation     .... PBE
   PBE beta parameter  CBetaPBE         ....  0.066725
 LDA part of GGA corr.  LDAOpt          .... PW91-LDA
 Gradients option       PostSCFGGA      .... off
 Hybrid DFT is turned on
   Fraction HF Exchange ScalHFX         ....  0.250000
   Scaling of DF-GGA-X  ScalDFX         ....  0.750000
   Scaling of DF-GGA-C  ScalDFC         ....  1.000000
   Scaling of DF-LDA-C  ScalLDAC        ....  1.000000
   Perturbative correction              ....  0.000000
   Density functional embedding theory  .... OFF
   NL short-range parameter             ....  6.900000
 RI-approximation to the Coulomb term is turned on
   Number of AuxJ basis functions       .... 191
   RIJ-COSX (HFX calculated with COS-X)).... on


General Settings:
 Integral files         IntName         .... ox_es1_C_orca0008
 Hartree-Fock type      HFTyp           .... RHF
 Total Charge           Charge          ....    0
 Multiplicity           Mult            ....    1
 Number of Electrons    NEL             ....   24
 Basis Dimension        Dim             ....  117
 Nuclear Repulsion      ENuc            ....     69.1922310906 Eh

Convergence Acceleration:
 DIIS                   CNVDIIS         .... on
   Start iteration      DIISMaxIt       ....    12
   Startup error        DIISStart       ....  0.200000
   # of expansion vecs  DIISMaxEq       ....     5
   Bias factor          DIISBfac        ....   1.050
   Max. coefficient     DIISMaxC        ....  10.000
 Trust-Rad. Augm. Hess. CNVTRAH         .... auto
   Auto Start mean grad. ratio tolernc. ....  1.125000
   Auto Start start iteration           ....     1
   Auto Start num. interpolation iter.  ....    10
   Max. Number of Micro iterations      ....    16
   Max. Number of Macro iterations      .... Maxiter - #DIIS iter
   Number of Davidson start vectors     ....     2
   Converg. threshold I  (grad. norm)   ....   1.000e-05
   Converg. threshold II (energy diff.) ....   1.000e-08
   Grad. Scal. Fac. for Micro threshold ....   0.100
   Minimum threshold for Micro iter.    ....   0.010
   NR start threshold (gradient norm)   ....   0.001
   Initial trust radius                 ....   0.400
   Minimum AH scaling param. (alpha)    ....   1.000
   Maximum AH scaling param. (alpha)    .... 1000.000
   Orbital update algorithm             .... Taylor
   White noise on init. David. guess    .... on
   Maximum white noise                  ....   0.010
   Quad. conv. algorithm                .... NR
 SOSCF                  CNVSOSCF        .... on
   Start iteration      SOSCFMaxIt      ....   150
   Startup grad/error   SOSCFStart      ....  0.003300
 Level Shifting         CNVShift        .... on
   Level shift para.    LevelShift      ....    0.2500
   Turn off err/grad.   ShiftErr        ....    0.0010
 Zerner damping         CNVZerner       .... off
 Static damping         CNVDamp         .... on
   Fraction old density DampFac         ....    0.7000
   Max. Damping (<1)    DampMax         ....    0.9800
   Min. Damping (>=0)   DampMin         ....    0.0000
   Turn off err/grad.   DampErr         ....    0.1000
 Fernandez-Rico         CNVRico         .... off

SCF Procedure:
 Maximum # iterations   MaxIter         ....   125
 SCF integral mode      SCFMode         .... Direct
   Integral package                     .... SHARK and LIBINT hybrid scheme
 Reset frequency        DirectResetFreq ....    20
 Integral Threshold     Thresh          ....  2.500e-11 Eh
 Primitive CutOff       TCut            ....  2.500e-12 Eh

Convergence Tolerance:
 Convergence Check Mode ConvCheckMode   .... Total+1el-Energy
 Convergence forced     ConvForced      .... 1
 Energy Change          TolE            ....  1.000e-08 Eh
 1-El. energy change                    ....  1.000e-05 Eh
 Orbital Gradient       TolG            ....  1.000e-05
 Orbital Rotation angle TolX            ....  1.000e-05
 DIIS Error             TolErr          ....  5.000e-07


Diagonalization of the overlap matrix:
Smallest eigenvalue                        ... 9.325e-04
Time for diagonalization                   ...    0.001 sec
Threshold for overlap eigenvalues          ... 1.000e-08
Number of eigenvalues below threshold      ... 0
Time for construction of square roots      ...    0.001 sec
Total time needed                          ...    0.003 sec

---------------------
INITIAL GUESS: MOREAD
---------------------
Guess MOs are being read from file: ox_es1_C_orca0008.ges
Input Geometry matches current geometry (good)
Input basis set matches current basis set (good)
MOs were renormalized
MOs were reorthogonalized (Cholesky)
                      ------------------
                      INITIAL GUESS DONE (   0.0 sec)
                      ------------------
-------------------
DFT GRID GENERATION
-------------------

General Integration Accuracy     IntAcc      ... 4.388
Radial Grid Type                 RadialGrid  ... OptM3 with GC (2021)
Angular Grid (max. ang.)         AngularGrid ... 4 (Lebedev-302)
Angular grid pruning method      GridPruning ... 4 (adaptive)
Weight generation scheme         WeightScheme... Becke
Basis function cutoff            BFCut       ... 1.0000e-11
Integration weight cutoff        WCut        ... 1.0000e-14
Angular grids for H and He will be reduced by one unit
Partially contracted basis set               ... off
Rotationally invariant grid construction     ... off

Total number of grid points                  ...    31330
Total number of batches                      ...      494
Average number of points per batch           ...       63
Average number of grid points per atom       ...     4476
Time for grid setup =    0.118 sec

--------------------
COSX GRID GENERATION
--------------------

GRIDX 1
-------
General Integration Accuracy     IntAcc      ... 3.816
Radial Grid Type                 RadialGrid  ... OptM3 with GC (2021)
Angular Grid (max. ang.)         AngularGrid ... 1 (Lebedev-50)
Angular grid pruning method      GridPruning ... 4 (adaptive)
Weight generation scheme         WeightScheme... Becke
Basis function cutoff            BFCut       ... 1.0000e-11
Integration weight cutoff        WCut        ... 1.0000e-14
Angular grids for H and He will be reduced by one unit
Partially contracted basis set               ... on
Rotationally invariant grid construction     ... off

Total number of grid points                  ...     4037
Total number of batches                      ...       67
Average number of points per batch           ...       60
Average number of grid points per atom       ...      577
UseSFitting                                  ... on

GRIDX 2
-------
General Integration Accuracy     IntAcc      ... 4.020
Radial Grid Type                 RadialGrid  ... OptM3 with GC (2021)
Angular Grid (max. ang.)         AngularGrid ... 2 (Lebedev-110)
Angular grid pruning method      GridPruning ... 4 (adaptive)
Weight generation scheme         WeightScheme... Becke
Basis function cutoff            BFCut       ... 1.0000e-11
Integration weight cutoff        WCut        ... 1.0000e-14
Angular grids for H and He will be reduced by one unit
Partially contracted basis set               ... on
Rotationally invariant grid construction     ... off

Total number of grid points                  ...     8738
Total number of batches                      ...      139
Average number of points per batch           ...       62
Average number of grid points per atom       ...     1248
UseSFitting                                  ... on

GRIDX 3
-------
General Integration Accuracy     IntAcc      ... 4.338
Radial Grid Type                 RadialGrid  ... OptM3 with GC (2021)
Angular Grid (max. ang.)         AngularGrid ... 3 (Lebedev-194)
Angular grid pruning method      GridPruning ... 4 (adaptive)
Weight generation scheme         WeightScheme... Becke
Basis function cutoff            BFCut       ... 1.0000e-11
Integration weight cutoff        WCut        ... 1.0000e-14
Angular grids for H and He will be reduced by one unit
Partially contracted basis set               ... on
Rotationally invariant grid construction     ... off

Total number of grid points                  ...    19268
Total number of batches                      ...      305
Average number of points per batch           ...       63
Average number of grid points per atom       ...     2753
UseSFitting                                  ... on

Time for X-Grid setup             =    0.074 sec

--------------
SCF ITERATIONS
--------------
ITER       Energy         Delta-E        Max-DP      RMS-DP      [F,P]     Damp
               ***  Starting incremental Fock matrix formation  ***
                      *** Initiating the SOSCF procedure ***
                      *** Re-Reading the Fockian *** 
                      *** Removing any level shift *** 
ITER      Energy       Delta-E        Grad      Rot      Max-DP    RMS-DP
  0   -153.59034914 -153.5903491408  0.000001  0.000001  0.000001  0.000000
               *** Restarting incremental Fock matrix formation ***
                  ***Gradient check signals convergence***
              ***Rediagonalizing the Fockian in SOSCF/NRSCF***

               *****************************************************
               *                     SUCCESS                       *
               *           SCF CONVERGED AFTER   1 CYCLES          *
               *****************************************************

Old exchange energy                            =     -4.962905683 Eh
New exchange energy                            =     -4.962912211 Eh
Exchange energy change after final integration =     -0.000006527 Eh
Total energy after final integration           =   -153.590355668 Eh
Final COS-X integration done in                =     0.256 sec

----------------
TOTAL SCF ENERGY
----------------

Total Energy       :         -153.59035567 Eh           -4179.40605 eV

Components:
Nuclear Repulsion  :           69.19223109 Eh            1882.81633 eV
Electronic Energy  :         -222.78258676 Eh           -6062.22238 eV
One Electron Energy:         -345.22620525 Eh           -9394.08263 eV
Two Electron Energy:          122.44361849 Eh            3331.86025 eV
Max COSX asymmetry :            0.00000129 Eh               0.00004 eV

Virial components:
Potential Energy   :         -306.30151911 Eh           -8334.88807 eV
Kinetic Energy     :          152.71116344 Eh            4155.48202 eV
Virial Ratio       :            2.00575722


DFT components:
N(Alpha)           :       11.999999047026 electrons
N(Beta)            :       11.999999047026 electrons
N(Total)           :       23.999998094052 electrons
E(X)               :      -14.889514913267 Eh       
E(C)               :       -0.773752111996 Eh       
E(XC)              :      -15.663267025264 Eh       
DFET-embed. en.    :        0.000000000000 Eh       

---------------
SCF CONVERGENCE
---------------

  Last Energy change         ...   -7.0770e-12  Tolerance :   1.0000e-08
  Last MAX-Density change    ...    7.7716e-16  Tolerance :   1.0000e-07
  Last RMS-Density change    ...    2.2810e-17  Tolerance :   5.0000e-09
  Last Orbital Gradient      ...    4.7056e-07  Tolerance :   1.0000e-05
  Last Orbital Rotation      ...    2.0870e-06  Tolerance :   1.0000e-05

             **** THE GBW FILE WAS UPDATED (ox_es1_C_orca0008.gbw) ****
             **** DENSITY ox_es1_C_orca0008.scfp WAS UPDATED ****
             **** ENERGY FILE WAS UPDATED (ox_es1_C_orca0008.en.tmp) ****
             **** THE GBW FILE WAS UPDATED (ox_es1_C_orca0008.gbw) ****
             **** DENSITY ox_es1_C_orca0008.scfp WAS UPDATED ****
----------------
ORBITAL ENERGIES
----------------

  NO   OCC          E(Eh)            E(eV) 
   0   2.0000     -19.210983      -522.7574 
   1   2.0000     -10.314906      -280.6828 
   2   2.0000     -10.271173      -279.4928 
   3   2.0000      -1.007072       -27.4038 
   4   2.0000      -0.730089       -19.8667 
   5   2.0000      -0.659757       -17.9529 
   6   2.0000      -0.512739       -13.9523 
   7   2.0000      -0.474187       -12.9033 
   8   2.0000      -0.433443       -11.7946 
   9   2.0000      -0.390749       -10.6328 
  10   2.0000      -0.298277        -8.1165 
  11   2.0000      -0.272496        -7.4150 
  12   0.0000      -0.072812        -1.9813 
  13   0.0000       0.061575         1.6755 
  14   0.0000       0.073890         2.0106 
  15   0.0000       0.100641         2.7386 
  16   0.0000       0.109971         2.9925 
  17   0.0000       0.151562         4.1242 
  18   0.0000       0.186002         5.0614 
  19   0.0000       0.188275         5.1232 
  20   0.0000       0.245881         6.6908 
  21   0.0000       0.254185         6.9167 
  22   0.0000       0.266840         7.2611 
  23   0.0000       0.304385         8.2827 
  24   0.0000       0.355776         9.6812 
  25   0.0000       0.401306        10.9201 
  26   0.0000       0.421835        11.4787 
  27   0.0000       0.431084        11.7304 
  28   0.0000       0.447195        12.1688 
  29   0.0000       0.484526        13.1846 
  30   0.0000       0.497889        13.5483 
  31   0.0000       0.534577        14.5466 
  32   0.0000       0.562176        15.2976 
  33   0.0000       0.649779        17.6814 
  34   0.0000       0.662194        18.0192 
  35   0.0000       0.740965        20.1627 
  36   0.0000       0.810744        22.0615 
  37   0.0000       0.814538        22.1647 
  38   0.0000       0.867051        23.5937 
  39   0.0000       0.912502        24.8304 
  40   0.0000       0.959716        26.1152 
  41   0.0000       1.007944        27.4275 
  42   0.0000       1.038224        28.2515 
  43   0.0000       1.063763        28.9465 
  44   0.0000       1.150695        31.3120 
  45   0.0000       1.333806        36.2947 
  46   0.0000       1.387112        37.7452 
  47   0.0000       1.454974        39.5918 
  48   0.0000       1.507387        41.0181 
  49   0.0000       1.514278        41.2056 
  50   0.0000       1.597666        43.4747 
  51   0.0000       1.613903        43.9165 
  52   0.0000       1.645243        44.7693 
  53   0.0000       1.673423        45.5362 
  54   0.0000       1.727251        47.0009 
  55   0.0000       1.756443        47.7953 
  56   0.0000       1.829001        49.7697 
  57   0.0000       1.852234        50.4018 
  58   0.0000       1.898934        51.6726 
  59   0.0000       1.969685        53.5979 
  60   0.0000       1.987747        54.0893 
  61   0.0000       2.102100        57.2010 
  62   0.0000       2.121933        57.7407 
  63   0.0000       2.213722        60.2384 
  64   0.0000       2.250557        61.2408 
  65   0.0000       2.345698        63.8297 
  66   0.0000       2.390861        65.0586 
  67   0.0000       2.478039        67.4309 
  68   0.0000       2.505678        68.1830 
  69   0.0000       2.536451        69.0203 
  70   0.0000       2.599645        70.7399 
  71   0.0000       2.609459        71.0070 
  72   0.0000       2.640549        71.8530 
  73   0.0000       2.698748        73.4367 
  74   0.0000       2.768241        75.3277 
  75   0.0000       2.797409        76.1214 
  76   0.0000       2.860589        77.8406 
  77   0.0000       2.937788        79.9413 
  78   0.0000       2.979987        81.0896 
  79   0.0000       3.014418        82.0265 
  80   0.0000       3.022305        82.2411 
  81   0.0000       3.079682        83.8024 
  82   0.0000       3.095141        84.2231 
  83   0.0000       3.135183        85.3127 
  84   0.0000       3.182998        86.6138 
  85   0.0000       3.233974        88.0009 
  86   0.0000       3.289146        89.5022 
  87   0.0000       3.369699        91.6942 
  88   0.0000       3.419023        93.0363 
  89   0.0000       3.539367        96.3111 
  90   0.0000       3.553013        96.6824 
  91   0.0000       3.656511        99.4987 
  92   0.0000       3.696821       100.5956 
  93   0.0000       3.759480       102.3007 
  94   0.0000       3.897790       106.0643 
  95   0.0000       4.061601       110.5218 
  96   0.0000       4.144496       112.7775 
  97   0.0000       4.253058       115.7316 
  98   0.0000       4.351317       118.4054 
  99   0.0000       4.513141       122.8088 
 100   0.0000       4.586210       124.7971 
 101   0.0000       4.797589       130.5490 
 102   0.0000       5.234329       142.4333 
 103   0.0000       5.269064       143.3785 
 104   0.0000       5.370969       146.1515 
 105   0.0000       5.395837       146.8282 
 106   0.0000       5.752089       156.5223 
 107   0.0000       5.783309       157.3719 
 108   0.0000       5.942996       161.7171 
 109   0.0000       6.408117       174.3737 
 110   0.0000       6.496502       176.7788 
 111   0.0000       6.757570       183.8828 
 112   0.0000       6.895195       187.6278 
 113   0.0000       6.985204       190.0771 
 114   0.0000      22.057920       600.2265 
 115   0.0000      22.557225       613.8133 
 116   0.0000      43.670268      1188.3284 

                    ********************************
                    * MULLIKEN POPULATION ANALYSIS *
                    ********************************

-----------------------
MULLIKEN ATOMIC CHARGES
-----------------------
   0 O :   -0.368980
   1 C :   -0.005862
   2 C :   -0.174193
   3 H :    0.102680
   4 H :    0.117793
   5 H :    0.166142
   6 H :    0.162420
Sum of atomic charges:    0.0000000

--------------------------------
MULLIKEN REDUCED ORBITAL CHARGES
--------------------------------
  0 O s       :     3.904445  s :     3.904445
      pz      :     1.903511  p :     4.437632
      px      :     1.315695
      py      :     1.218427
      dz2     :     0.003585  d :     0.025639
      dxz     :     0.000697
      dyz     :     0.004728
      dx2y2   :     0.007819
      dxy     :     0.008810
      f0      :     0.000148  f :     0.001264
      f+1     :     0.000084
      f-1     :     0.000320
      f+2     :     0.000111
      f-2     :     0.000054
      f+3     :     0.000306
      f-3     :     0.000241
  1 C s       :     3.184464  s :     3.184464
      pz      :     1.066197  p :     2.678314
      px      :     0.890565
      py      :     0.721552
      dz2     :     0.007615  d :     0.133087
      dxz     :     0.018376
      dyz     :     0.041701
      dx2y2   :     0.027743
      dxy     :     0.037653
      f0      :     0.001467  f :     0.009996
      f+1     :     0.001167
      f-1     :     0.000780
      f+2     :     0.002157
      f-2     :     0.000483
      f+3     :     0.001628
      f-3     :     0.002314
  2 C s       :     3.319787  s :     3.319787
      pz      :     1.052569  p :     2.794877
      px      :     0.959783
      py      :     0.782525
      dz2     :     0.008502  d :     0.054389
      dxz     :     0.017687
      dyz     :     0.007210
      dx2y2   :     0.008967
      dxy     :     0.012023
      f0      :     0.000568  f :     0.005141
      f+1     :     0.001173
      f-1     :     0.000106
      f+2     :     0.000551
      f-2     :     0.000371
      f+3     :     0.001304
      f-3     :     0.001067
  3 H s       :     0.875269  s :     0.875269
      pz      :     0.011107  p :     0.022052
      px      :     0.006585
      py      :     0.004360
  4 H s       :     0.858382  s :     0.858382
      pz      :     0.010351  p :     0.023825
      px      :     0.008293
      py      :     0.005181
  5 H s       :     0.811450  s :     0.811450
      pz      :     0.011394  p :     0.022408
      px      :     0.006924
      py      :     0.004089
  6 H s       :     0.814518  s :     0.814518
      pz      :     0.012208  p :     0.023062
      px      :     0.006425
      py      :     0.004429


                     *******************************
                     * LOEWDIN POPULATION ANALYSIS *
                     *******************************

----------------------
LOEWDIN ATOMIC CHARGES
----------------------
   0 O :   -0.045849
   1 C :   -0.332219
   2 C :   -0.051617
   3 H :    0.102575
   4 H :    0.080057
   5 H :    0.126450
   6 H :    0.120602

-------------------------------
LOEWDIN REDUCED ORBITAL CHARGES
-------------------------------
  0 O s       :     3.545667  s :     3.545667
      pz      :     1.823828  p :     4.440634
      px      :     1.280206
      py      :     1.336600
      dz2     :     0.007616  d :     0.055961
      dxz     :     0.001670
      dyz     :     0.012089
      dx2y2   :     0.018201
      dxy     :     0.016386
      f0      :     0.000363  f :     0.003587
      f+1     :     0.000122
      f-1     :     0.000600
      f+2     :     0.000498
      f-2     :     0.000218
      f+3     :     0.000920
      f-3     :     0.000866
  1 C s       :     2.820822  s :     2.820822
      pz      :     1.094365  p :     2.920584
      px      :     0.991844
      py      :     0.834374
      dz2     :     0.057345  d :     0.523516
      dxz     :     0.093994
      dyz     :     0.117228
      dx2y2   :     0.130742
      dxy     :     0.124207
      f0      :     0.008343  f :     0.067296
      f+1     :     0.005103
      f-1     :     0.007480
      f+2     :     0.013630
      f-2     :     0.002745
      f+3     :     0.011496
      f-3     :     0.018501
  2 C s       :     2.938812  s :     2.938812
      pz      :     1.094869  p :     2.885541
      px      :     1.042147
      py      :     0.748525
      dz2     :     0.035699  d :     0.207000
      dxz     :     0.081502
      dyz     :     0.014609
      dx2y2   :     0.037609
      dxy     :     0.037580
      f0      :     0.002838  f :     0.020264
      f+1     :     0.003125
      f-1     :     0.001079
      f+2     :     0.003083
      f-2     :     0.001007
      f+3     :     0.004554
      f-3     :     0.004577
  3 H s       :     0.830186  s :     0.830186
      pz      :     0.034789  p :     0.067238
      px      :     0.018991
      py      :     0.013459
  4 H s       :     0.839307  s :     0.839307
      pz      :     0.036869  p :     0.080636
      px      :     0.026448
      py      :     0.017320
  5 H s       :     0.807773  s :     0.807773
      pz      :     0.034598  p :     0.065777
      px      :     0.019736
      py      :     0.011443
  6 H s       :     0.810316  s :     0.810316
      pz      :     0.037610  p :     0.069081
      px      :     0.018761
      py      :     0.012710


                      *****************************
                      * MAYER POPULATION ANALYSIS *
                      *****************************

  NA   - Mulliken gross atomic population
  ZA   - Total nuclear charge
  QA   - Mulliken gross atomic charge
  VA   - Mayer's total valence
  BVA  - Mayer's bonded valence
  FA   - Mayer's free valence

  ATOM       NA         ZA         QA         VA         BVA        FA
  0 O      8.3690     8.0000    -0.3690     1.9170     1.9170     0.0000
  1 C      6.0059     6.0000    -0.0059     4.0190     4.0190    -0.0000
  2 C      6.1742     6.0000    -0.1742     3.8117     3.8117     0.0000
  3 H      0.8973     1.0000     0.1027     0.9545     0.9545     0.0000
  4 H      0.8822     1.0000     0.1178     0.9518     0.9518    -0.0000
  5 H      0.8339     1.0000     0.1661     0.9581     0.9581     0.0000
  6 H      0.8376     1.0000     0.1624     0.9577     0.9577     0.0000

  Mayer bond orders larger than 0.100000
B(  0-O ,  1-C ) :   1.0431 B(  0-O ,  2-C ) :   0.8761 B(  1-C ,  2-C ) :   1.0353 
B(  1-C ,  3-H ) :   0.9639 B(  1-C ,  4-H ) :   0.9683 B(  2-C ,  5-H ) :   0.9440 
B(  2-C ,  6-H ) :   0.9467 

-------
TIMINGS
-------

Total SCF time: 0 days 0 hours 0 min 1 sec 

Total time                  ....       1.015 sec
Sum of individual times     ....       0.912 sec  ( 89.9%)

Fock matrix formation       ....       0.701 sec  ( 69.1%)
  Split-RI-J                ....       0.113 sec  ( 16.1% of F)
  Chain of spheres X        ....       0.518 sec  ( 73.8% of F)
  XC integration            ....       0.061 sec  (  8.7% of F)
    Basis function eval.    ....       0.017 sec  ( 28.0% of XC)
    Density eval.           ....       0.013 sec  ( 21.8% of XC)
    XC-Functional eval.     ....       0.004 sec  (  6.0% of XC)
    XC-Potential eval.      ....       0.019 sec  ( 30.9% of XC)
Diagonalization             ....       0.002 sec  (  0.2%)
Density matrix formation    ....       0.000 sec  (  0.0%)
Population analysis         ....       0.003 sec  (  0.3%)
Initial guess               ....       0.010 sec  (  1.0%)
Orbital Transformation      ....       0.000 sec  (  0.0%)
Orbital Orthonormalization  ....       0.001 sec  (  0.1%)
DIIS solution               ....       0.001 sec  (  0.1%)
SOSCF solution              ....       0.002 sec  (  0.2%)
Grid generation             ....       0.192 sec  ( 18.9%)

Maximum memory used throughout the entire SCF-calculation: 61.1 MB


           ************************************************************
           *        Program running with 8 parallel MPI-processes     *
           *              working on a common directory               *
           ************************************************************
------------------------------------------------------------------------------
                        ORCA TD-DFT/TDA CALCULATION
------------------------------------------------------------------------------

Input orbitals are from        ... ox_es1_C_orca0008.gbw
CI-vector output               ... ox_es1_C_orca0008.cis
Tamm-Dancoff approximation     ... operative
CIS-Integral strategy          ... AO-integrals
Integral handling              ... AO integral Direct
Max. core memory used          ... 3000 MB
Reference state                ... RHF
Generation of triplets         ... off
Follow IRoot                   ... off
Number of operators            ... 1
Orbital ranges used for CIS calculation:
 Operator 0:  Orbitals   3... 11  to  12...116
XAS localization array:
 Operator 0:  Orbitals  -1... -1

-------------------
XC-INTEGRATION GRID
-------------------

General Integration Accuracy     IntAcc      ... 3.467
Radial Grid Type                 RadialGrid  ... OptM3 with GC (2021)
Angular Grid (max. ang.)         AngularGrid ... 1 (Lebedev-50)
Angular grid pruning method      GridPruning ... 4 (adaptive)
Weight generation scheme         WeightScheme... Becke
Basis function cutoff            BFCut       ... 1.0000e-11
Integration weight cutoff        WCut        ... 1.0000e-14
Angular grids for H and He will be reduced by one unit
Partially contracted basis set               ... off
Rotationally invariant grid construction     ... off

Total number of grid points                  ...     4541
Total number of batches                      ...       76
Average number of points per batch           ...       59
Average number of grid points per atom       ...      649

---------------------
COSX-INTEGRATION GRID
---------------------

General Integration Accuracy     IntAcc      ... 3.067
Radial Grid Type                 RadialGrid  ... OptM3 with GC (2021)
Angular Grid (max. ang.)         AngularGrid ... 1 (Lebedev-50)
Angular grid pruning method      GridPruning ... 4 (adaptive)
Weight generation scheme         WeightScheme... Becke
Basis function cutoff            BFCut       ... 1.0000e-11
Integration weight cutoff        WCut        ... 1.0000e-14
Angular grids for H and He will be reduced by one unit
Partially contracted basis set               ... on
Rotationally invariant grid construction     ... off

Total number of grid points                  ...     2087
Total number of batches                      ...       37
Average number of points per batch           ...       56
Average number of grid points per atom       ...      298

---------------
TD-DFT XC SETUP
---------------

DFT calculation                         ... on
Name of the grid file                   ... ox_es1_C_orca0008.grid_cis.tmp
Exchange functional (TD-DFT)            ... PBE
   PBE kappa parameter  XKappa (TD-DFT) ...  0.804000
   PBE mue parameter   XMuePBE (TD-DFT) ...  0.219520
Correlation functional (TD-DFT)         ... PBE
   PBE beta parameter CBetaPBE (TD-DFT) ...  0.066725
 LDA part of GGA corr.  LDAOpt (TD-DFT) ... PW91-LDA
Hybrid DFT                              ... on
   Exchange mixing (TD-DFT)             ...  0.250
   GGA exch. scaling (TD-DFT)           ...  0.750
   GGA corr. scaling (TD-DFT)           ...  1.000

Building densities             ... done
Calculating rho(r) on the grid ... done
Building xc-kernel on the grid ... done
                    *** TD-DFT CALCULATION INITIALIZED ***

------------------------
DAVIDSON-DIAGONALIZATION
------------------------

Dimension of the eigenvalue problem            ...    945
Number of roots to be determined               ...      1
Maximum size of the expansion space            ...     10
Maximum number of iterations                   ...    100
Convergence tolerance for the residual         ...    2.500e-07
Convergence tolerance for the energies         ...    2.500e-07
Orthogonality tolerance                        ...    1.000e-14
Level Shift                                    ...    0.000e+00
Constructing the preconditioner                ... o.k.
Building the initial guess                     ... o.k.
Number of trial vectors determined             ...     10


                       ****Iteration    0****

   Memory handling for direct AO based CIS:
   Memory per vector needed      ...     1 MB
   Memory needed                 ...     1 MB
   Memory available              ...  3000 MB
   Number of vectors per batch   ...  3000
   Number of batches             ...     1
   Time for densities:            0.000
   Time for RI-J (Direct):        0.016
   Time for K (COSX):             0.056
   Time for XC-Integration:       0.015
   Time for Sigma-Completion:     0.000
   Size of expansion space: 3
   Lowest Energy          :     0.116959130556
   Maximum Energy change  :     0.116959130556 (vector 0)
   Maximum residual norm  :     0.003178346942

                       ****Iteration    1****
   Time for densities:            0.000
   Time for RI-J (Direct):        0.012
   Time for K (COSX):             0.050
   Time for XC-Integration:       0.006
   Time for Sigma-Completion:     0.000
   Size of expansion space: 4
   Lowest Energy          :     0.114588970637
   Maximum Energy change  :     0.002370159920 (vector 0)
   Maximum residual norm  :     0.000068705859

                       ****Iteration    2****
   Time for densities:            0.000
   Time for RI-J (Direct):        0.012
   Time for K (COSX):             0.050
   Time for XC-Integration:       0.007
   Time for Sigma-Completion:     0.000
   Size of expansion space: 5
   Lowest Energy          :     0.114545481944
   Maximum Energy change  :     0.000043488692 (vector 0)
   Maximum residual norm  :     0.000001400451

                       ****Iteration    3****
   Time for densities:            0.000
   Time for RI-J (Direct):        0.012
   Time for K (COSX):             0.050
   Time for XC-Integration:       0.006
   Time for Sigma-Completion:     0.000
   Size of expansion space: 6
   Lowest Energy          :     0.114544042581
   Maximum Energy change  :     0.000001439363 (vector 0)
   Maximum residual norm  :     0.000000094198

      *** CONVERGENCE OF RESIDUAL NORM REACHED ***

Storing the converged CI vectors               ... ox_es1_C_orca0008.cis1

                 *** DAVIDSON DONE ***

Total time for solving the CIS problem:     0.298sec

------------------------------------
TD-DFT/TDA EXCITED STATES (SINGLETS)
------------------------------------

the weight of the individual excitations are printed if larger than 1.0e-02

STATE  1:  E=   0.114544 au      3.117 eV    25139.5 cm**-1 <S**2> =   0.000000
    11a ->  12a  :     0.989961 (c=  0.99496801)


-----------------------------
TD-DFT/TDA-EXCITATION SPECTRA
-----------------------------

Center of mass = ( -0.3105,  0.0893, -0.0675)
Calculating the Dipole integrals                  ... done
Transforming integrals                            ... done
Calculating the Linear Momentum integrals         ... done
Transforming integrals                            ... done
Calculating angular momentum integrals            ... done
Transforming integrals                            ... done

-----------------------------------------------------------------------------
         ABSORPTION SPECTRUM VIA TRANSITION ELECTRIC DIPOLE MOMENTS
-----------------------------------------------------------------------------
State   Energy    Wavelength  fosc         T2        TX        TY        TZ  
        (cm-1)      (nm)                 (au**2)    (au)      (au)      (au) 
-----------------------------------------------------------------------------
   1   25139.5    397.8   0.000912059   0.01194  -0.01956   0.00964   0.10709

-----------------------------------------------------------------------------
         ABSORPTION SPECTRUM VIA TRANSITION VELOCITY DIPOLE MOMENTS
-----------------------------------------------------------------------------
State   Energy    Wavelength   fosc        P2         PX        PY        PZ  
        (cm-1)      (nm)                 (au**2)     (au)      (au)      (au) 
-----------------------------------------------------------------------------
   1   25139.5    397.8   0.008377446   0.00144  -0.00252   0.00246  -0.03777

-------------------------------------------------------------------
                             CD SPECTRUM
-------------------------------------------------------------------
State  Energy     Wavelength     R         MX        MY        MZ   
       (cm-1)       (nm)     (1e40*cgs)   (au)      (au)      (au)  
-------------------------------------------------------------------
   1   25139.5    397.8     -1.26080  -0.03161  -0.25819  -0.00751

-------------------------------------------------------------------
         CD SPECTRUM VIA TRANSITION VELOCITY DIPOLE MOMENTS        
-------------------------------------------------------------------
State  Energy     Wavelength     R         MX        MY        MZ   
       (cm-1)       (nm)     (1e40*cgs)   (au)      (au)      (au)  
-------------------------------------------------------------------
   1   25139.5    397.8     -1.12096  -0.03161  -0.25819  -0.00751

Total run time:        0.580 sec

           *** ORCA-CIS/TD-DFT FINISHED WITHOUT ERROR ***

Maximum memory used throughout the entire CIS-calculation: 49.4 MB

-----------------------
CIS/TD-DFT TOTAL ENERGY
-----------------------

    E(SCF)  =   -153.590355668 Eh
    DE(CIS) =      0.114544043 Eh (Root  1)
    ----------------------------- ---------
    E(tot)  =   -153.475811625 Eh



-------------------------------------------------------------------------------
                          DFT DISPERSION CORRECTION                            
                                                                               
                              DFTD3 V3.1  Rev 1                                
                          USING Becke-Johnson damping                          
-------------------------------------------------------------------------------
The PBE0 functional is recognized
Active option DFTDOPT                   ...         4   

molecular C6(AA) [au] = 388.312432 


            DFT-D V3
 parameters
 s6 scaling factor         :     1.0000 
 a1 scaling factor         :     0.4145 
 s8 scaling factor         :     1.2177 
 a2 scaling factor         :     4.8593 
 ad hoc parameters k1-k3   :    16.0000     1.3333    -4.0000 

 Edisp/kcal,au: -1.631011475731  -0.002599181955 
 E6   /kcal   :  -1.064473018 
 E8   /kcal   :  -0.566538458 
 % E8         :  34.735406000 

-------------------------   ----------------
Dispersion correction           -0.002599182
-------------------------   ----------------


-------------------------   --------------------
FINAL SINGLE POINT ENERGY      -153.478410807434
-------------------------   --------------------



           ************************************************************
           *        Program running with 8 parallel MPI-processes     *
           *              working on a common directory               *
           ************************************************************
------------------------------------------------------------------------------
                         ORCA SCF GRADIENT CALCULATION
------------------------------------------------------------------------------


------------------------
TD-DFT GRADIENT XC SETUP
------------------------

Building densities                     ... done
Calculating rho(r) on the grid         ... done
Building xc-kernel on the grid         ... done
Building xc 3rd derivative on the grid      ... done
                *** TD-DFT GRADIENT CALCULATION INITIALIZED ***

-------------------
TD-DFT/TDA GRADIENT
-------------------

Reference wavefunction             ... RHF
State of interest                  ... 1
Basis dimension                    ... 117
DFT-XC contribution needed         ... YES
RI-approximation                   ... ON
CIS-vectors being read from        ... ox_es1_C_orca0008.cis

 => Number of Vectors found: 1
 => Orbital Window: 3...11 -> 12...116

Reading the CIS file                     ... done
Norm of the CI vector                    ... 1.000000000
Making the CIS (pseudo)densities         ... done
Making operators G(D) and Q(T)           ... done
Transforming the Fock operators          ... done
Making the frozen-core relaxed density   ... done
Constructing the G(H) operator           ... done
Transforming the G(H) operator           ... done
Calculating the CIS Lagrangian           ... done
Solving the Z-vector equations           ... done
Finalizing the relaxed density           ... done
Storing the relaxed density              ... done
Constructing the G(Z) operator           ... done
Transforming the G(Z) operator           ... done
Making the W-matrix                      ... done
Finalizing the W-matrix                  ... done
Transforming the W-matrix                ... done
Nuclear repulsion gradient               ... done
One-Electron gradient                    ... done
Dispersion correction                    ... done
Prescreening matrices                    ... done
COSX-gradient                            ... done
Coulomb gradient (RI)                    ... done
Exchange-Correlation gradient            ... done

                 ---------------------------
                 EXCITED STATE GRADIENT DONE
                 ---------------------------

------------------
CARTESIAN GRADIENT
------------------

   1   O   :    0.056984275   -0.023339171   -0.001773207
   2   C   :   -0.175015589   -0.068089712   -0.051649246
   3   C   :    0.037321556    0.063595542    0.011535523
   4   H   :    0.015419746    0.009591443   -0.032090769
   5   H   :    0.056283837    0.025794268    0.085395512
   6   H   :    0.009593342   -0.004584512   -0.009208307
   7   H   :   -0.000631582   -0.002944386   -0.002187115

Difference to translation invariance:
           :   -0.0000444138    0.0000234725    0.0000223908

Difference to rotation invariance:
           :    0.0000219822   -0.0000091100    0.0005357784

Norm of the cartesian gradient     ...    0.2449420809
RMS gradient                       ...    0.0534507441
MAX gradient                       ...    0.1750155887

------------------------------------------------------------------------------
                  RELAXED CIS/TDA DENSITY POPULATION ANALYSIS
                                   IROOT 1
------------------------------------------------------------------------------
------------------------------------------------------------------------------
                           ORCA POPULATION ANALYSIS
------------------------------------------------------------------------------
Input electron density              ... ox_es1_C_orca0008.cisp
BaseName (.gbw .S,...)              ... ox_es1_C_orca0008

                    ********************************
                    * MULLIKEN POPULATION ANALYSIS *
                    ********************************

-----------------------
MULLIKEN ATOMIC CHARGES
-----------------------
   0 O :   -0.159857
   1 C :   -0.069514
   2 C :   -0.365471
   3 H :    0.150906
   4 H :    0.151239
   5 H :    0.147739
   6 H :    0.144958
Sum of atomic charges:    0.0000000

--------------------------------
MULLIKEN REDUCED ORBITAL CHARGES
--------------------------------
  0 O s       :     3.886330  s :     3.886330
      pz      :     1.055201  p :     4.248036
      px      :     1.823770
      py      :     1.369066
      dz2     :     0.002906  d :     0.024599
      dxz     :     0.000802
      dyz     :     0.005013
      dx2y2   :     0.007753
      dxy     :     0.008126
      f0      :     0.000010  f :     0.000893
      f+1     :    -0.000062
      f-1     :     0.000073
      f+2     :     0.000140
      f-2     :     0.000050
      f+3     :     0.000401
      f-3     :     0.000280
  1 C s       :     3.195726  s :     3.195726
      pz      :     1.052083  p :     2.752110
      px      :     0.978207
      py      :     0.721821
      dz2     :     0.006490  d :     0.111934
      dxz     :     0.018415
      dyz     :     0.017739
      dx2y2   :     0.028428
      dxy     :     0.040861
      f0      :     0.000750  f :     0.009744
      f+1     :     0.001199
      f-1     :     0.000587
      f+2     :     0.001140
      f-2     :     0.000359
      f+3     :     0.003360
      f-3     :     0.002348
  2 C s       :     3.324683  s :     3.324683
      pz      :     1.042029  p :     2.988982
      px      :     0.892592
      py      :     1.054361
      dz2     :     0.007999  d :     0.046890
      dxz     :     0.011300
      dyz     :     0.001513
      dx2y2   :     0.010850
      dxy     :     0.015228
      f0      :     0.000497  f :     0.004916
      f+1     :     0.001036
      f-1     :     0.000258
      f+2     :     0.000512
      f-2     :     0.000186
      f+3     :     0.001553
      f-3     :     0.000875
  3 H s       :     0.826335  s :     0.826335
      pz      :     0.011336  p :     0.022759
      px      :     0.007020
      py      :     0.004403
  4 H s       :     0.824298  s :     0.824298
      pz      :     0.010653  p :     0.024463
      px      :     0.008693
      py      :     0.005118
  5 H s       :     0.828360  s :     0.828360
      pz      :     0.010304  p :     0.023901
      px      :     0.006616
      py      :     0.006980
  6 H s       :     0.830439  s :     0.830439
      pz      :     0.011048  p :     0.024603
      px      :     0.006173
      py      :     0.007382


                     *******************************
                     * LOEWDIN POPULATION ANALYSIS *
                     *******************************

----------------------
LOEWDIN ATOMIC CHARGES
----------------------
   0 O :    0.121673
   1 C :   -0.307689
   2 C :   -0.266123
   3 H :    0.134768
   4 H :    0.101831
   5 H :    0.110556
   6 H :    0.104985

-------------------------------
LOEWDIN REDUCED ORBITAL CHARGES
-------------------------------
  0 O s       :     3.565836  s :     3.565836
      pz      :     1.023002  p :     4.246864
      px      :     1.757905
      py      :     1.465958
      dz2     :     0.008363  d :     0.062245
      dxz     :     0.001706
      dyz     :     0.011740
      dx2y2   :     0.017422
      dxy     :     0.023014
      f0      :     0.000373  f :     0.003382
      f+1     :     0.000053
      f-1     :     0.000369
      f+2     :     0.000433
      f-2     :     0.000176
      f+3     :     0.001129
      f-3     :     0.000849
  1 C s       :     2.823836  s :     2.823836
      pz      :     1.062844  p :     2.957755
      px      :     1.050977
      py      :     0.843933
      dz2     :     0.055589  d :     0.455987
      dxz     :     0.084987
      dyz     :     0.054824
      dx2y2   :     0.136458
      dxy     :     0.124129
      f0      :     0.004898  f :     0.070111
      f+1     :     0.005082
      f-1     :     0.007439
      f+2     :     0.007997
      f-2     :     0.002456
      f+3     :     0.023888
      f-3     :     0.018351
  2 C s       :     2.949256  s :     2.949256
      pz      :     1.087391  p :     3.067752
      px      :     1.006913
      py      :     0.973449
      dz2     :     0.040441  d :     0.226670
      dxz     :     0.074707
      dyz     :     0.006400
      dx2y2   :     0.042318
      dxy     :     0.062803
      f0      :     0.002703  f :     0.022445
      f+1     :     0.003650
      f-1     :     0.001674
      f+2     :     0.002732
      f-2     :     0.000687
      f+3     :     0.006573
      f-3     :     0.004426
  3 H s       :     0.796303  s :     0.796303
      pz      :     0.034996  p :     0.068929
      px      :     0.020395
      py      :     0.013538
  4 H s       :     0.815869  s :     0.815869
      pz      :     0.037247  p :     0.082301
      px      :     0.027832
      py      :     0.017222
  5 H s       :     0.819544  s :     0.819544
      pz      :     0.031596  p :     0.069900
      px      :     0.019047
      py      :     0.019258
  6 H s       :     0.821401  s :     0.821401
      pz      :     0.034339  p :     0.073614
      px      :     0.018233
      py      :     0.021041


                      *****************************
                      * MAYER POPULATION ANALYSIS *
                      *****************************

  NA   - Mulliken gross atomic population
  ZA   - Total nuclear charge
  QA   - Mulliken gross atomic charge
  VA   - Mayer's total valence
  BVA  - Mayer's bonded valence
  FA   - Mayer's free valence

  ATOM       NA         ZA         QA         VA         BVA        FA
  0 O      8.1599     8.0000    -0.1599     1.9162     1.1118     0.8044
  1 C      6.0695     6.0000    -0.0695     3.9906     3.9374     0.0532
  2 C      6.3655     6.0000    -0.3655     3.8676     3.0593     0.8083
  3 H      0.8491     1.0000     0.1509     0.9581     0.9111     0.0470
  4 H      0.8488     1.0000     0.1512     0.9586     0.9272     0.0314
  5 H      0.8523     1.0000     0.1477     0.9767     0.9663     0.0104
  6 H      0.8550     1.0000     0.1450     0.9762     0.9655     0.0107

  Mayer bond orders larger than 0.100000
B(  0-O ,  1-C ) :   1.0279 B(  1-C ,  2-C ) :   1.0645 B(  1-C ,  3-H ) :   0.9114 
B(  1-C ,  4-H ) :   0.9290 B(  2-C ,  5-H ) :   0.9543 B(  2-C ,  6-H ) :   0.9558 



-------
TIMINGS
-------

Total TD-DFT gradient time         ...        5.089 sec

Fock matrix formation       ....       0.837 sec  ( 16.5%)
  Coulomb formation         ....       0.686 sec  ( 81.9% of F)
  RI-J                      ....       0.293 sec  ( 34.9% of F)
  Chain of spheres X        ....       0.393 sec  ( 46.9% of F)
  XC integration            ....       0.152 sec  ( 18.1% of F)
Z-vector equation           ....       1.583 sec  ( 31.1%)
One electron gradient       ....       0.032 sec  (  0.6%)
Prescreening matrices       ....       0.156 sec  (  3.1%)
RI-J Coulomb gradient       ....       0.247 sec  (  4.9%)
COSX gradient               ....       0.344 sec  (  6.8%)
XC gradient                 ....       1.567 sec  ( 30.8%)

Maximum memory used throughout the entire SCFGRAD-calculation: 130.2 MB

                            ***************************************
                            *     ORCA property calculations      *
                            ***************************************

                                    ---------------------
                                    Active property flags
                                    ---------------------
   (+) Dipole Moment


------------------------------------------------------------------------------
                       ORCA ELECTRIC PROPERTIES CALCULATION
------------------------------------------------------------------------------

Dipole Moment Calculation                       ... on
Quadrupole Moment Calculation                   ... off
Polarizability Calculation                      ... off
GBWName                                         ... ox_es1_C_orca0008.gbw
Electron density                                ... ox_es1_C_orca0008.scfp
The origin for moment calculation is the CENTER OF MASS  = (-0.310451,  0.089330 -0.067543)

-------------
DIPOLE MOMENT
-------------
                                X             Y             Z
Electronic contribution:     -0.33391       1.46834      -0.10954
Nuclear contribution   :      0.64148      -2.56162       0.09979
                        -----------------------------------------
Total Dipole Moment    :      0.30757      -1.09328      -0.00976
                        -----------------------------------------
Magnitude (a.u.)       :      1.13576
Magnitude (Debye)      :      2.88688



--------------------
Rotational spectrum 
--------------------
 
Rotational constants in cm-1:     0.911357     0.490642     0.362618 
Rotational constants in MHz : 27321.782476 14709.075819 10871.019038 

 Dipole components along the rotational axes: 
x,y,z [a.u.] :    -0.932186    -0.648755    -0.010125 
x,y,z [Debye]:    -2.369428    -1.649005    -0.025736 

 

                        *** CIS RELAXED DENSITY ***

------------------------------------------------------------------------------
                       ORCA ELECTRIC PROPERTIES CALCULATION
------------------------------------------------------------------------------

Dipole Moment Calculation                       ... on
Quadrupole Moment Calculation                   ... off
Polarizability Calculation                      ... off
GBWName                                         ... ox_es1_C_orca0008.gbw
Electron density                                ... ox_es1_C_orca0008.cisp
The origin for moment calculation is the CENTER OF MASS  = (-0.310451,  0.089330 -0.067543)

-------------
DIPOLE MOMENT
-------------
                                X             Y             Z
Electronic contribution:     -1.03077       1.94567      -0.08205
Nuclear contribution   :      0.64148      -2.56162       0.09979
                        -----------------------------------------
Total Dipole Moment    :     -0.38928      -0.61595       0.01773
                        -----------------------------------------
Magnitude (a.u.)       :      0.72887
Magnitude (Debye)      :      1.85264



--------------------
Rotational spectrum 
--------------------
 
Rotational constants in cm-1:     0.911357     0.490642     0.362618 
Rotational constants in MHz : 27321.782476 14709.075819 10871.019038 

 Dipole components along the rotational axes: 
x,y,z [a.u.] :    -0.090598    -0.723149     0.009888 
x,y,z [Debye]:    -0.230281    -1.838099     0.025134 

 

Timings for individual modules:

Sum of individual times         ...        7.458 sec (=   0.124 min)
GTO integral calculation        ...        0.255 sec (=   0.004 min)   3.4 %
SCF iterations                  ...        1.175 sec (=   0.020 min)  15.8 %
CIS module                      ...        0.775 sec (=   0.013 min)  10.4 %
SCF Gradient evaluation         ...        5.253 sec (=   0.088 min)  70.4 %
                             ****ORCA TERMINATED NORMALLY****
TOTAL RUN TIME: 0 days 0 hours 0 minutes 7 seconds 801 msec
