
                                 *****************
                                 * O   R   C   A *
                                 *****************

                                            #,                                       
                                            ###                                      
                                            ####                                     
                                            #####                                    
                                            ######                                   
                                           ########,                                 
                                     ,,################,,,,,                         
                               ,,#################################,,                 
                          ,,##########################################,,             
                       ,#########################################, ''#####,          
                    ,#############################################,,   '####,        
                  ,##################################################,,,,####,       
                ,###########''''           ''''###############################       
              ,#####''   ,,,,##########,,,,          '''####'''          '####       
            ,##' ,,,,###########################,,,                        '##       
           ' ,,###''''                  '''############,,,                           
         ,,##''                                '''############,,,,        ,,,,,,###''
      ,#''                                            '''#######################'''  
     '                                                          ''''####''''         
             ,#######,   #######,   ,#######,      ##                                
            ,#'     '#,  ##    ##  ,#'     '#,    #''#        ######   ,####,        
            ##       ##  ##   ,#'  ##            #'  '#       #        #'  '#        
            ##       ##  #######   ##           ,######,      #####,   #    #        
            '#,     ,#'  ##    ##  '#,     ,#' ,#      #,         ##   #,  ,#        
             '#######'   ##     ##  '#######'  #'      '#     #####' # '####'        



                  #######################################################
                  #                        -***-                        #
                  #          Department of theory and spectroscopy      #
                  #    Directorship and core code : Frank Neese         #
                  #        Max Planck Institute fuer Kohlenforschung    #
                  #                Kaiser Wilhelm Platz 1               #
                  #                 D-45470 Muelheim/Ruhr               #
                  #                      Germany                        #
                  #                                                     #
                  #                  All rights reserved                #
                  #                        -***-                        #
                  #######################################################


                         Program Version 5.0.2 -  RELEASE  -


 With contributions from (in alphabetic order):
   Daniel Aravena         : Magnetic Suceptibility
   Michael Atanasov       : Ab Initio Ligand Field Theory (pilot matlab implementation)
   Alexander A. Auer      : GIAO ZORA, VPT2 properties, NMR spectrum
   Ute Becker             : Parallelization
   Giovanni Bistoni       : ED, misc. LED, open-shell LED, HFLD
   Martin Brehm           : Molecular dynamics
   Dmytro Bykov           : SCF Hessian
   Vijay G. Chilkuri      : MRCI spin determinant printing, contributions to CSF-ICE
   Dipayan Datta          : RHF DLPNO-CCSD density
   Achintya Kumar Dutta   : EOM-CC, STEOM-CC
   Dmitry Ganyushin       : Spin-Orbit,Spin-Spin,Magnetic field MRCI
   Miquel Garcia          : C-PCM and meta-GGA Hessian, CC/C-PCM, Gaussian charge scheme
   Yang Guo               : DLPNO-NEVPT2, F12-NEVPT2, CIM, IAO-localization
   Andreas Hansen         : Spin unrestricted coupled pair/coupled cluster methods
   Benjamin Helmich-Paris : MC-RPA, TRAH-SCF, COSX integrals
   Lee Huntington         : MR-EOM, pCC
   Robert Izsak           : Overlap fitted RIJCOSX, COSX-SCS-MP3, EOM
   Marcus Kettner         : VPT2
   Christian Kollmar      : KDIIS, OOCD, Brueckner-CCSD(T), CCSD density, CASPT2, CASPT2-K
   Simone Kossmann        : Meta GGA functionals, TD-DFT gradient, OOMP2, MP2 Hessian
   Martin Krupicka        : Initial AUTO-CI
   Lucas Lang             : DCDCAS
   Marvin Lechner         : AUTO-CI (C++ implementation), FIC-MRCC
   Dagmar Lenk            : GEPOL surface, SMD
   Dimitrios Liakos       : Extrapolation schemes; Compound Job, initial MDCI parallelization
   Dimitrios Manganas     : Further ROCIS development; embedding schemes
   Dimitrios Pantazis     : SARC Basis sets
   Anastasios Papadopoulos: AUTO-CI, single reference methods and gradients
   Taras Petrenko         : DFT Hessian,TD-DFT gradient, ASA, ECA, R-Raman, ABS, FL, XAS/XES, NRVS
   Peter Pinski           : DLPNO-MP2, DLPNO-MP2 Gradient
   Christoph Reimann      : Effective Core Potentials
   Marius Retegan         : Local ZFS, SOC
   Christoph Riplinger    : Optimizer, TS searches, QM/MM, DLPNO-CCSD(T), (RO)-DLPNO pert. Triples
   Tobias Risthaus        : Range-separated hybrids, TD-DFT gradient, RPA, STAB
   Michael Roemelt        : Original ROCIS implementation
   Masaaki Saitow         : Open-shell DLPNO-CCSD energy and density
   Barbara Sandhoefer     : DKH picture change effects
   Avijit Sen             : IP-ROCIS
   Kantharuban Sivalingam : CASSCF convergence, NEVPT2, FIC-MRCI
   Bernardo de Souza      : ESD, SOC TD-DFT
   Georgi Stoychev        : AutoAux, RI-MP2 NMR, DLPNO-MP2 response
   Willem Van den Heuvel  : Paramagnetic NMR
   Boris Wezisla          : Elementary symmetry handling
   Frank Wennmohs         : Technical directorship


 We gratefully acknowledge several colleagues who have allowed us to
 interface, adapt or use parts of their codes:
   Stefan Grimme, W. Hujo, H. Kruse, P. Pracht,  : VdW corrections, initial TS optimization,
                  C. Bannwarth, S. Ehlert          DFT functionals, gCP, sTDA/sTD-DF
   Ed Valeev, F. Pavosevic, A. Kumar             : LibInt (2-el integral package), F12 methods
   Garnet Chan, S. Sharma, J. Yang, R. Olivares  : DMRG
   Ulf Ekstrom                                   : XCFun DFT Library
   Mihaly Kallay                                 : mrcc  (arbitrary order and MRCC methods)
   Jiri Pittner, Ondrej Demel                    : Mk-CCSD
   Frank Weinhold                                : gennbo (NPA and NBO analysis)
   Christopher J. Cramer and Donald G. Truhlar   : smd solvation model
   Lars Goerigk                                  : TD-DFT with DH, B97 family of functionals
   V. Asgeirsson, H. Jonsson                     : NEB implementation
   FAccTs GmbH                                   : IRC, NEB, NEB-TS, DLPNO-Multilevel, CI-OPT
                                                   MM, QMMM, 2- and 3-layer-ONIOM, Crystal-QMMM,
                                                   LR-CPCM, SF, NACMEs, symmetry and pop. for TD-DFT,
                                                   nearIR, NL-DFT gradient (VV10), updates on ESD,
                                                   ML-optimized integration grids
   S Lehtola, MJT Oliveira, MAL Marques          : LibXC Library
   Liviu Ungur et al                             : ANISO software


 Your calculation uses the libint2 library for the computation of 2-el integrals
 For citations please refer to: http://libint.valeyev.net

 Your ORCA version has been built with support for libXC version: 5.1.0
 For citations please refer to: https://tddft.org/programs/libxc/

 This ORCA versions uses:
   CBLAS   interface :  Fast vector & matrix operations
   LAPACKE interface :  Fast linear algebra routines
   SCALAPACK package :  Parallel linear algebra routines
   Shared memory     :  Shared parallel matrices
   BLAS/LAPACK       :  OpenBLAS 0.3.15  USE64BITINT DYNAMIC_ARCH NO_AFFINITY SkylakeX SINGLE_THREADED
        Core in use  :  SkylakeX
   Copyright (c) 2011-2014, The OpenBLAS Project


Your calculation utilizes the atom-pairwise dispersion correction
with the Becke-Johnson damping scheme (D3BJ)
Cite in your paper:
S.Grimme, S.Ehrlich, L.Goerigk, J Comput Chem, (2011), 32, 1456–1465 
S.Grimme, J.Antony, S.Ehrlich and H.Krieg, J.Chem.Phys., 132, (2010), 154104 
   

================================================================================

----- Orbital basis set information -----
Your calculation utilizes the basis: def2-TZVP
   F. Weigend and R. Ahlrichs, Phys. Chem. Chem. Phys. 7, 3297 (2005).

----- AuxJ basis set information -----
Your calculation utilizes the auxiliary basis: def2/J
   F. Weigend, Phys. Chem. Chem. Phys. 8, 1057 (2006).

================================================================================
                                        WARNINGS
                       Please study these warnings very carefully!
================================================================================

INFO   : Checking CIS options ...

WARNING: CIS/ROCIS methods need fully converged wavefunctions
  ===> : Setting SCFConvForced true
         You can overwrite this default with %scf ConvForced false 


INFO   : the flag for use of the SHARK integral package has been found!

================================================================================
                                       INPUT FILE
================================================================================
NAME = ox_es1_F_orca0008.inp
|  1> ! engrad PBE0 D3BJ def2-TZVP  
|  2> %pal nprocs 8 end
|  3> %maxcore 3000
|  4> 
|  5> %tddft
|  6>   nroots 1
|  7>   tda true
|  8>   Iroot 1
|  9>   end 
| 10> *xyz 0 1 
| 11> O   -1.3417489356337502 0.8475012467693313 -0.023266476782746136
| 12> C   -0.7654275020312906 -0.4582175452152149 -0.033971949100817515
| 13> C   0.727661131440218 -0.41182766114616326 -0.020565524847963618
| 14> H   -1.2808819446999635 -0.6304536313681822 0.9062896994666972
| 15> H   -1.3066462635015288 -0.6887424698319752 -0.9753696401733853
| 16> H   1.1932826325619466 -0.6933403027370113 -0.9933603024934465
| 17> H   1.2887387652617308 -0.7000709104624989 0.9850234010954838
| 18> *
| 19> 
| 20>                          ****END OF INPUT****
================================================================================

                     *******************************
                     * Energy+Gradient Calculation *
                     *******************************

---------------------------------
CARTESIAN COORDINATES (ANGSTROEM)
---------------------------------
  O     -1.341749    0.847501   -0.023266
  C     -0.765428   -0.458218   -0.033972
  C      0.727661   -0.411828   -0.020566
  H     -1.280882   -0.630454    0.906290
  H     -1.306646   -0.688742   -0.975370
  H      1.193283   -0.693340   -0.993360
  H      1.288739   -0.700071    0.985023

----------------------------
CARTESIAN COORDINATES (A.U.)
----------------------------
  NO LB      ZA    FRAG     MASS         X           Y           Z
   0 O     8.0000    0    15.999   -2.535538    1.601545   -0.043967
   1 C     6.0000    0    12.011   -1.446448   -0.865906   -0.064198
   2 C     6.0000    0    12.011    1.375080   -0.778241   -0.038863
   3 H     1.0000    0     1.008   -2.420516   -1.191385    1.712639
   4 H     1.0000    0     1.008   -2.469204   -1.301535   -1.843181
   5 H     1.0000    0     1.008    2.254977   -1.310223   -1.877179
   6 H     1.0000    0     1.008    2.435363   -1.322942    1.861424

--------------------------------
INTERNAL COORDINATES (ANGSTROEM)
--------------------------------
 O      0   0   0     0.000000000000     0.00000000     0.00000000
 C      1   0   0     1.427292039391     0.00000000     0.00000000
 C      2   1   0     1.493869278403   112.03048486     0.00000000
 H      2   1   3     1.086025100818    86.95866063   119.20206051
 H      2   1   3     1.110085177540    89.96972729   237.27362164
 H      3   2   1     1.114622101475   113.69361187   252.47954681
 H      3   2   1     1.187055756876   118.19527997   106.30815559

---------------------------
INTERNAL COORDINATES (A.U.)
---------------------------
 O      0   0   0     0.000000000000     0.00000000     0.00000000
 C      1   0   0     2.697191067575     0.00000000     0.00000000
 C      2   1   0     2.823003816061   112.03048486     0.00000000
 H      2   1   3     2.052290015111    86.95866063   119.20206051
 H      2   1   3     2.097756970876    89.96972729   237.27362164
 H      3   2   1     2.106330514604   113.69361187   252.47954681
 H      3   2   1     2.243210286189   118.19527997   106.30815559

---------------------
BASIS SET INFORMATION
---------------------
There are 3 groups of distinct atoms

 Group   1 Type O   : 11s6p2d1f contracted to 5s3p2d1f pattern {62111/411/11/1}
 Group   2 Type C   : 11s6p2d1f contracted to 5s3p2d1f pattern {62111/411/11/1}
 Group   3 Type H   : 5s1p contracted to 3s1p pattern {311/1}

Atom   0O    basis set group =>   1
Atom   1C    basis set group =>   2
Atom   2C    basis set group =>   2
Atom   3H    basis set group =>   3
Atom   4H    basis set group =>   3
Atom   5H    basis set group =>   3
Atom   6H    basis set group =>   3
---------------------------------
AUXILIARY/J BASIS SET INFORMATION
---------------------------------
There are 3 groups of distinct atoms

 Group   1 Type O   : 12s5p4d2f1g contracted to 6s4p3d1f1g pattern {711111/2111/211/2/1}
 Group   2 Type C   : 12s5p4d2f1g contracted to 6s4p3d1f1g pattern {711111/2111/211/2/1}
 Group   3 Type H   : 5s2p1d contracted to 3s1p1d pattern {311/2/1}

Atom   0O    basis set group =>   1
Atom   1C    basis set group =>   2
Atom   2C    basis set group =>   2
Atom   3H    basis set group =>   3
Atom   4H    basis set group =>   3
Atom   5H    basis set group =>   3
Atom   6H    basis set group =>   3

Checking for AutoStart:
The File: ox_es1_F_orca0008.gbw exists
Trying to determine its content:
     ... Fine, the file contains calculation information
     ... Fine, the calculation information was read
     ... Fine, the file contains a basis set
     ... Fine, the basis set was read
     ... Fine, the file contains a geometry
     ... Fine, the geometry was read
     ... Fine, the file contains a set of orbitals
     ... Fine, the orbitals can be read
     => possible old guess file was deleted
     => GBW file was renamed to GES file
     => GES file is set as startup file
     => Guess is set to MORead
     ... now leaving AutoStart



           ************************************************************
           *        Program running with 8 parallel MPI-processes     *
           *              working on a common directory               *
           ************************************************************
------------------------------------------------------------------------------
                           ORCA GTO INTEGRAL CALCULATION
                           -- RI-GTO INTEGRALS CHOSEN --
------------------------------------------------------------------------------
------------------------------------------------------------------------------
                   ___                                                        
                  /   \      - P O W E R E D   B Y -                         
                 /     \                                                     
                 |  |  |   _    _      __       _____    __    __             
                 |  |  |  | |  | |    /  \     |  _  \  |  |  /  |          
                  \  \/   | |  | |   /    \    | | | |  |  | /  /          
                 / \  \   | |__| |  /  /\  \   | |_| |  |  |/  /          
                |  |  |   |  __  | /  /__\  \  |    /   |      \           
                |  |  |   | |  | | |   __   |  |    \   |  |\   \          
                \     /   | |  | | |  |  |  |  | |\  \  |  | \   \       
                 \___/    |_|  |_| |__|  |__|  |_| \__\ |__|  \__/        
                                                                              
                      - O R C A' S   B I G   F R I E N D -                    
                                      &                                       
                       - I N T E G R A L  F E E D E R -                       
                                                                              
 v1 FN, 2020, v2 2021                                                         
------------------------------------------------------------------------------


Reading SHARK input file ox_es1_F_orca0008.SHARKINP.tmp ... ok
----------------------
SHARK INTEGRAL PACKAGE
----------------------

Number of atoms                             ...      7
Number of basis functions                   ...    117
Number of shells                            ...     49
Maximum angular momentum                    ...      3
Integral batch strategy                     ... SHARK/LIBINT Hybrid
RI-J (if used) integral strategy            ... SPLIT-RIJ (Revised 2003 algorithm where possible)
Printlevel                                  ...      1
Contraction scheme used                     ... SEGMENTED contraction
Coulomb Range Separation                    ... NOT USED
Exchange Range Separation                   ... NOT USED
Finite Nucleus Model                        ... NOT USED
Auxiliary Coulomb fitting basis             ... AVAILABLE
   # of basis functions in Aux-J            ...    191
   # of shells in Aux-J                     ...     65
   Maximum angular momentum in Aux-J        ...      4
Auxiliary J/K fitting basis                 ... NOT available
Auxiliary Correlation fitting basis         ... NOT available
Auxiliary 'external' fitting basis          ... NOT available
Integral threshold                          ...     2.500000e-11
Primitive cut-off                           ...     2.500000e-12
Primitive pair pre-selection threshold      ...     2.500000e-12

Calculating pre-screening integrals         ... done (  0.0 sec) Dimension = 49
Organizing shell pair data                  ... done (  0.0 sec)
Shell pair information
Total number of shell pairs                 ...      1225
Shell pairs after pre-screening             ...      1211
Total number of primitive shell pairs       ...      3648
Primitive shell pairs kept                  ...      3061
          la=0 lb=0:    367 shell pairs
          la=1 lb=0:    349 shell pairs
          la=1 lb=1:     91 shell pairs
          la=2 lb=0:    161 shell pairs
          la=2 lb=1:     78 shell pairs
          la=2 lb=2:     21 shell pairs
          la=3 lb=0:     81 shell pairs
          la=3 lb=1:     39 shell pairs
          la=3 lb=2:     18 shell pairs
          la=3 lb=3:      6 shell pairs

Calculating one electron integrals          ... done (  0.0 sec)
Calculating RI/J V-Matrix + Cholesky decomp.... done (  0.0 sec)
Calculating Nuclear repulsion               ... done (  0.0 sec) ENN=     66.732627901271 Eh

SHARK setup successfully completed in   0.1 seconds

Maximum memory used throughout the entire GTOINT-calculation: 14.9 MB


           ************************************************************
           *        Program running with 8 parallel MPI-processes     *
           *              working on a common directory               *
           ************************************************************
-------------------------------------------------------------------------------
                                 ORCA SCF
-------------------------------------------------------------------------------

------------
SCF SETTINGS
------------
Hamiltonian:
 Density Functional     Method          .... DFT(GTOs)
 Exchange Functional    Exchange        .... PBE
   PBE kappa parameter   XKappa         ....  0.804000
   PBE mue parameter    XMuePBE         ....  0.219520
 Correlation Functional Correlation     .... PBE
   PBE beta parameter  CBetaPBE         ....  0.066725
 LDA part of GGA corr.  LDAOpt          .... PW91-LDA
 Gradients option       PostSCFGGA      .... off
 Hybrid DFT is turned on
   Fraction HF Exchange ScalHFX         ....  0.250000
   Scaling of DF-GGA-X  ScalDFX         ....  0.750000
   Scaling of DF-GGA-C  ScalDFC         ....  1.000000
   Scaling of DF-LDA-C  ScalLDAC        ....  1.000000
   Perturbative correction              ....  0.000000
   Density functional embedding theory  .... OFF
   NL short-range parameter             ....  6.900000
 RI-approximation to the Coulomb term is turned on
   Number of AuxJ basis functions       .... 191
   RIJ-COSX (HFX calculated with COS-X)).... on


General Settings:
 Integral files         IntName         .... ox_es1_F_orca0008
 Hartree-Fock type      HFTyp           .... RHF
 Total Charge           Charge          ....    0
 Multiplicity           Mult            ....    1
 Number of Electrons    NEL             ....   24
 Basis Dimension        Dim             ....  117
 Nuclear Repulsion      ENuc            ....     66.7326279013 Eh

Convergence Acceleration:
 DIIS                   CNVDIIS         .... on
   Start iteration      DIISMaxIt       ....    12
   Startup error        DIISStart       ....  0.200000
   # of expansion vecs  DIISMaxEq       ....     5
   Bias factor          DIISBfac        ....   1.050
   Max. coefficient     DIISMaxC        ....  10.000
 Trust-Rad. Augm. Hess. CNVTRAH         .... auto
   Auto Start mean grad. ratio tolernc. ....  1.125000
   Auto Start start iteration           ....     1
   Auto Start num. interpolation iter.  ....    10
   Max. Number of Micro iterations      ....    16
   Max. Number of Macro iterations      .... Maxiter - #DIIS iter
   Number of Davidson start vectors     ....     2
   Converg. threshold I  (grad. norm)   ....   1.000e-05
   Converg. threshold II (energy diff.) ....   1.000e-08
   Grad. Scal. Fac. for Micro threshold ....   0.100
   Minimum threshold for Micro iter.    ....   0.010
   NR start threshold (gradient norm)   ....   0.001
   Initial trust radius                 ....   0.400
   Minimum AH scaling param. (alpha)    ....   1.000
   Maximum AH scaling param. (alpha)    .... 1000.000
   Orbital update algorithm             .... Taylor
   White noise on init. David. guess    .... on
   Maximum white noise                  ....   0.010
   Quad. conv. algorithm                .... NR
 SOSCF                  CNVSOSCF        .... on
   Start iteration      SOSCFMaxIt      ....   150
   Startup grad/error   SOSCFStart      ....  0.003300
 Level Shifting         CNVShift        .... on
   Level shift para.    LevelShift      ....    0.2500
   Turn off err/grad.   ShiftErr        ....    0.0010
 Zerner damping         CNVZerner       .... off
 Static damping         CNVDamp         .... on
   Fraction old density DampFac         ....    0.7000
   Max. Damping (<1)    DampMax         ....    0.9800
   Min. Damping (>=0)   DampMin         ....    0.0000
   Turn off err/grad.   DampErr         ....    0.1000
 Fernandez-Rico         CNVRico         .... off

SCF Procedure:
 Maximum # iterations   MaxIter         ....   125
 SCF integral mode      SCFMode         .... Direct
   Integral package                     .... SHARK and LIBINT hybrid scheme
 Reset frequency        DirectResetFreq ....    20
 Integral Threshold     Thresh          ....  2.500e-11 Eh
 Primitive CutOff       TCut            ....  2.500e-12 Eh

Convergence Tolerance:
 Convergence Check Mode ConvCheckMode   .... Total+1el-Energy
 Convergence forced     ConvForced      .... 1
 Energy Change          TolE            ....  1.000e-08 Eh
 1-El. energy change                    ....  1.000e-05 Eh
 Orbital Gradient       TolG            ....  1.000e-05
 Orbital Rotation angle TolX            ....  1.000e-05
 DIIS Error             TolErr          ....  5.000e-07


Diagonalization of the overlap matrix:
Smallest eigenvalue                        ... 5.989e-04
Time for diagonalization                   ...    0.001 sec
Threshold for overlap eigenvalues          ... 1.000e-08
Number of eigenvalues below threshold      ... 0
Time for construction of square roots      ...    0.001 sec
Total time needed                          ...    0.003 sec

---------------------
INITIAL GUESS: MOREAD
---------------------
Guess MOs are being read from file: ox_es1_F_orca0008.ges
Input Geometry matches current geometry (good)
Input basis set matches current basis set (good)
MOs were renormalized
MOs were reorthogonalized (Cholesky)
                      ------------------
                      INITIAL GUESS DONE (   0.0 sec)
                      ------------------
-------------------
DFT GRID GENERATION
-------------------

General Integration Accuracy     IntAcc      ... 4.388
Radial Grid Type                 RadialGrid  ... OptM3 with GC (2021)
Angular Grid (max. ang.)         AngularGrid ... 4 (Lebedev-302)
Angular grid pruning method      GridPruning ... 4 (adaptive)
Weight generation scheme         WeightScheme... Becke
Basis function cutoff            BFCut       ... 1.0000e-11
Integration weight cutoff        WCut        ... 1.0000e-14
Angular grids for H and He will be reduced by one unit
Partially contracted basis set               ... off
Rotationally invariant grid construction     ... off

Total number of grid points                  ...    31363
Total number of batches                      ...      494
Average number of points per batch           ...       63
Average number of grid points per atom       ...     4480
Time for grid setup =    0.117 sec

--------------------
COSX GRID GENERATION
--------------------

GRIDX 1
-------
General Integration Accuracy     IntAcc      ... 3.816
Radial Grid Type                 RadialGrid  ... OptM3 with GC (2021)
Angular Grid (max. ang.)         AngularGrid ... 1 (Lebedev-50)
Angular grid pruning method      GridPruning ... 4 (adaptive)
Weight generation scheme         WeightScheme... Becke
Basis function cutoff            BFCut       ... 1.0000e-11
Integration weight cutoff        WCut        ... 1.0000e-14
Angular grids for H and He will be reduced by one unit
Partially contracted basis set               ... on
Rotationally invariant grid construction     ... off

Total number of grid points                  ...     4043
Total number of batches                      ...       67
Average number of points per batch           ...       60
Average number of grid points per atom       ...      578
UseSFitting                                  ... on

GRIDX 2
-------
General Integration Accuracy     IntAcc      ... 4.020
Radial Grid Type                 RadialGrid  ... OptM3 with GC (2021)
Angular Grid (max. ang.)         AngularGrid ... 2 (Lebedev-110)
Angular grid pruning method      GridPruning ... 4 (adaptive)
Weight generation scheme         WeightScheme... Becke
Basis function cutoff            BFCut       ... 1.0000e-11
Integration weight cutoff        WCut        ... 1.0000e-14
Angular grids for H and He will be reduced by one unit
Partially contracted basis set               ... on
Rotationally invariant grid construction     ... off

Total number of grid points                  ...     8746
Total number of batches                      ...      142
Average number of points per batch           ...       61
Average number of grid points per atom       ...     1249
UseSFitting                                  ... on

GRIDX 3
-------
General Integration Accuracy     IntAcc      ... 4.338
Radial Grid Type                 RadialGrid  ... OptM3 with GC (2021)
Angular Grid (max. ang.)         AngularGrid ... 3 (Lebedev-194)
Angular grid pruning method      GridPruning ... 4 (adaptive)
Weight generation scheme         WeightScheme... Becke
Basis function cutoff            BFCut       ... 1.0000e-11
Integration weight cutoff        WCut        ... 1.0000e-14
Angular grids for H and He will be reduced by one unit
Partially contracted basis set               ... on
Rotationally invariant grid construction     ... off

Total number of grid points                  ...    19289
Total number of batches                      ...      306
Average number of points per batch           ...       63
Average number of grid points per atom       ...     2756
UseSFitting                                  ... on

Time for X-Grid setup             =    0.073 sec

--------------
SCF ITERATIONS
--------------
ITER       Energy         Delta-E        Max-DP      RMS-DP      [F,P]     Damp
               ***  Starting incremental Fock matrix formation  ***
                      *** Initiating the SOSCF procedure ***
                      *** Re-Reading the Fockian *** 
                      *** Removing any level shift *** 
ITER      Energy       Delta-E        Grad      Rot      Max-DP    RMS-DP
  0   -153.48065516 -153.4806551558  0.000000  0.000000  0.000000  0.000000
               *** Restarting incremental Fock matrix formation ***
                 **** Energy Check signals convergence ****
              ***Rediagonalizing the Fockian in SOSCF/NRSCF***

               *****************************************************
               *                     SUCCESS                       *
               *           SCF CONVERGED AFTER   1 CYCLES          *
               *****************************************************

Old exchange energy                            =     -4.933549071 Eh
New exchange energy                            =     -4.933558578 Eh
Exchange energy change after final integration =     -0.000009507 Eh
Total energy after final integration           =   -153.480664663 Eh
Final COS-X integration done in                =     0.251 sec

----------------
TOTAL SCF ENERGY
----------------

Total Energy       :         -153.48066466 Eh           -4176.42121 eV

Components:
Nuclear Repulsion  :           66.73262790 Eh            1815.88712 eV
Electronic Energy  :         -220.21329256 Eh           -5992.30833 eV
One Electron Energy:         -340.37746924 Eh           -9262.14182 eV
Two Electron Energy:          120.16417668 Eh            3269.83348 eV
Max COSX asymmetry :            0.00000320 Eh               0.00009 eV

Virial components:
Potential Energy   :         -306.12580647 Eh           -8330.10669 eV
Kinetic Energy     :          152.64514181 Eh            4153.68548 eV
Virial Ratio       :            2.00547363


DFT components:
N(Alpha)           :       12.000005288172 electrons
N(Beta)            :       12.000005288172 electrons
N(Total)           :       24.000010576344 electrons
E(X)               :      -14.837961435248 Eh       
E(C)               :       -0.768349436955 Eh       
E(XC)              :      -15.606310872203 Eh       
DFET-embed. en.    :        0.000000000000 Eh       

---------------
SCF CONVERGENCE
---------------

  Last Energy change         ...   -5.6843e-14  Tolerance :   1.0000e-08
  Last MAX-Density change    ...    1.1102e-15  Tolerance :   1.0000e-07
  Last RMS-Density change    ...    2.2957e-17  Tolerance :   5.0000e-09
  Last Orbital Gradient      ...    6.0788e-09  Tolerance :   1.0000e-05
  Last Orbital Rotation      ...    9.4698e-08  Tolerance :   1.0000e-05

             **** THE GBW FILE WAS UPDATED (ox_es1_F_orca0008.gbw) ****
             **** DENSITY ox_es1_F_orca0008.scfp WAS UPDATED ****
             **** ENERGY FILE WAS UPDATED (ox_es1_F_orca0008.en.tmp) ****
             **** THE GBW FILE WAS UPDATED (ox_es1_F_orca0008.gbw) ****
             **** DENSITY ox_es1_F_orca0008.scfp WAS UPDATED ****
----------------
ORBITAL ENERGIES
----------------

  NO   OCC          E(Eh)            E(eV) 
   0   2.0000     -19.182779      -521.9900 
   1   2.0000     -10.327553      -281.0270 
   2   2.0000     -10.277667      -279.6695 
   3   2.0000      -0.986276       -26.8379 
   4   2.0000      -0.767931       -20.8965 
   5   2.0000      -0.611623       -16.6431 
   6   2.0000      -0.518546       -14.1104 
   7   2.0000      -0.469138       -12.7659 
   8   2.0000      -0.432445       -11.7674 
   9   2.0000      -0.388066       -10.5598 
  10   2.0000      -0.254170        -6.9163 
  11   2.0000      -0.234696        -6.3864 
  12   0.0000      -0.170505        -4.6397 
  13   0.0000       0.035182         0.9574 
  14   0.0000       0.069563         1.8929 
  15   0.0000       0.083666         2.2767 
  16   0.0000       0.132120         3.5952 
  17   0.0000       0.144049         3.9198 
  18   0.0000       0.176428         4.8009 
  19   0.0000       0.209852         5.7104 
  20   0.0000       0.227435         6.1888 
  21   0.0000       0.240238         6.5372 
  22   0.0000       0.254694         6.9306 
  23   0.0000       0.337824         9.1927 
  24   0.0000       0.342978         9.3329 
  25   0.0000       0.349961         9.5229 
  26   0.0000       0.395330        10.7575 
  27   0.0000       0.415131        11.2963 
  28   0.0000       0.419388        11.4121 
  29   0.0000       0.454093        12.3565 
  30   0.0000       0.494227        13.4486 
  31   0.0000       0.536499        14.5989 
  32   0.0000       0.543596        14.7920 
  33   0.0000       0.592409        16.1203 
  34   0.0000       0.678747        18.4696 
  35   0.0000       0.722534        19.6612 
  36   0.0000       0.784494        21.3472 
  37   0.0000       0.848085        23.0776 
  38   0.0000       0.897957        24.4347 
  39   0.0000       0.914857        24.8945 
  40   0.0000       0.926820        25.2201 
  41   0.0000       1.019711        27.7478 
  42   0.0000       1.044686        28.4273 
  43   0.0000       1.101114        29.9628 
  44   0.0000       1.173502        31.9326 
  45   0.0000       1.342936        36.5431 
  46   0.0000       1.419090        38.6154 
  47   0.0000       1.435002        39.0484 
  48   0.0000       1.492750        40.6198 
  49   0.0000       1.538251        41.8579 
  50   0.0000       1.562503        42.5179 
  51   0.0000       1.598630        43.5009 
  52   0.0000       1.614865        43.9427 
  53   0.0000       1.620618        44.0993 
  54   0.0000       1.697623        46.1947 
  55   0.0000       1.729260        47.0556 
  56   0.0000       1.788867        48.6775 
  57   0.0000       1.851386        50.3788 
  58   0.0000       1.880934        51.1828 
  59   0.0000       1.907005        51.8923 
  60   0.0000       1.984438        53.9993 
  61   0.0000       1.993013        54.2326 
  62   0.0000       2.128558        57.9210 
  63   0.0000       2.164828        58.9080 
  64   0.0000       2.307289        62.7845 
  65   0.0000       2.325239        63.2730 
  66   0.0000       2.372404        64.5564 
  67   0.0000       2.434043        66.2337 
  68   0.0000       2.475395        67.3589 
  69   0.0000       2.507714        68.2384 
  70   0.0000       2.512158        68.3593 
  71   0.0000       2.544850        69.2489 
  72   0.0000       2.613107        71.1063 
  73   0.0000       2.635290        71.7099 
  74   0.0000       2.684545        73.0502 
  75   0.0000       2.762026        75.1585 
  76   0.0000       2.880783        78.3901 
  77   0.0000       2.981612        81.1338 
  78   0.0000       3.004172        81.7477 
  79   0.0000       3.030099        82.4532 
  80   0.0000       3.057347        83.1946 
  81   0.0000       3.063453        83.3608 
  82   0.0000       3.100369        84.3653 
  83   0.0000       3.121130        84.9303 
  84   0.0000       3.182116        86.5898 
  85   0.0000       3.300830        89.8202 
  86   0.0000       3.325246        90.4845 
  87   0.0000       3.355484        91.3074 
  88   0.0000       3.370156        91.7066 
  89   0.0000       3.452771        93.9547 
  90   0.0000       3.474680        94.5508 
  91   0.0000       3.605877        98.1209 
  92   0.0000       3.686772       100.3222 
  93   0.0000       3.821330       103.9837 
  94   0.0000       3.912835       106.4737 
  95   0.0000       4.034120       109.7740 
  96   0.0000       4.035593       109.8141 
  97   0.0000       4.193151       114.1014 
  98   0.0000       4.331007       117.8527 
  99   0.0000       4.520070       122.9974 
 100   0.0000       4.576850       124.5424 
 101   0.0000       4.675095       127.2158 
 102   0.0000       5.197382       141.4280 
 103   0.0000       5.223468       142.1378 
 104   0.0000       5.406071       147.1067 
 105   0.0000       5.416402       147.3878 
 106   0.0000       5.752309       156.5283 
 107   0.0000       5.791801       157.6029 
 108   0.0000       5.934270       161.4797 
 109   0.0000       6.366781       173.2489 
 110   0.0000       6.378440       173.5662 
 111   0.0000       6.800582       185.0532 
 112   0.0000       6.806695       185.2196 
 113   0.0000       6.970291       189.6713 
 114   0.0000      21.879297       595.3659 
 115   0.0000      22.373225       608.8064 
 116   0.0000      43.786948      1191.5034 

                    ********************************
                    * MULLIKEN POPULATION ANALYSIS *
                    ********************************

-----------------------
MULLIKEN ATOMIC CHARGES
-----------------------
   0 O :   -0.399964
   1 C :   -0.138157
   2 C :   -0.107111
   3 H :    0.181173
   4 H :    0.126860
   5 H :    0.157976
   6 H :    0.179223
Sum of atomic charges:   -0.0000000

--------------------------------
MULLIKEN REDUCED ORBITAL CHARGES
--------------------------------
  0 O s       :     3.903037  s :     3.903037
      pz      :     1.585898  p :     4.472526
      px      :     1.472321
      py      :     1.414307
      dz2     :     0.002966  d :     0.023201
      dxz     :     0.000619
      dyz     :     0.005783
      dx2y2   :     0.006802
      dxy     :     0.007030
      f0      :     0.000121  f :     0.001200
      f+1     :     0.000069
      f-1     :     0.000158
      f+2     :     0.000128
      f-2     :     0.000092
      f+3     :     0.000382
      f-3     :     0.000250
  1 C s       :     3.238049  s :     3.238049
      pz      :     1.054097  p :     2.736863
      px      :     0.881411
      py      :     0.801355
      dz2     :     0.015736  d :     0.153322
      dxz     :     0.022621
      dyz     :     0.035659
      dx2y2   :     0.028968
      dxy     :     0.050339
      f0      :     0.001458  f :     0.009924
      f+1     :     0.001431
      f-1     :     0.000428
      f+2     :     0.001537
      f-2     :     0.000926
      f+3     :     0.002212
      f-3     :     0.001932
  2 C s       :     3.313706  s :     3.313706
      pz      :     1.030477  p :     2.745476
      px      :     1.015594
      py      :     0.699404
      dz2     :     0.005948  d :     0.044253
      dxz     :     0.020484
      dyz     :     0.002897
      dx2y2   :     0.004415
      dxy     :     0.010509
      f0      :     0.000460  f :     0.003677
      f+1     :     0.000921
      f-1     :     0.000186
      f+2     :     0.000545
      f-2     :     0.000117
      f+3     :     0.000527
      f-3     :     0.000920
  3 H s       :     0.793595  s :     0.793595
      pz      :     0.010951  p :     0.025232
      px      :     0.007250
      py      :     0.007031
  4 H s       :     0.850854  s :     0.850854
      pz      :     0.010296  p :     0.022285
      px      :     0.006155
      py      :     0.005835
  5 H s       :     0.820016  s :     0.820016
      pz      :     0.011783  p :     0.022008
      px      :     0.005955
      py      :     0.004270
  6 H s       :     0.801183  s :     0.801183
      pz      :     0.010100  p :     0.019594
      px      :     0.005592
      py      :     0.003902


                     *******************************
                     * LOEWDIN POPULATION ANALYSIS *
                     *******************************

----------------------
LOEWDIN ATOMIC CHARGES
----------------------
   0 O :   -0.101498
   1 C :   -0.461572
   2 C :   -0.028371
   3 H :    0.164861
   4 H :    0.131165
   5 H :    0.133822
   6 H :    0.161593

-------------------------------
LOEWDIN REDUCED ORBITAL CHARGES
-------------------------------
  0 O s       :     3.577378  s :     3.577378
      pz      :     1.530562  p :     4.464574
      px      :     1.433873
      py      :     1.500138
      dz2     :     0.006371  d :     0.055988
      dxz     :     0.001571
      dyz     :     0.015394
      dx2y2   :     0.017595
      dxy     :     0.015058
      f0      :     0.000439  f :     0.003557
      f+1     :     0.000139
      f-1     :     0.000417
      f+2     :     0.000425
      f-2     :     0.000313
      f+3     :     0.000874
      f-3     :     0.000950
  1 C s       :     2.844290  s :     2.844290
      pz      :     1.034446  p :     2.973733
      px      :     1.030862
      py      :     0.908424
      dz2     :     0.081873  d :     0.575949
      dxz     :     0.094564
      dyz     :     0.090836
      dx2y2   :     0.139379
      dxy     :     0.169298
      f0      :     0.009191  f :     0.067600
      f+1     :     0.007706
      f-1     :     0.005502
      f+2     :     0.008397
      f-2     :     0.006285
      f+3     :     0.018811
      f-3     :     0.011706
  2 C s       :     2.972733  s :     2.972733
      pz      :     1.066342  p :     2.838971
      px      :     1.126395
      py      :     0.646233
      dz2     :     0.028945  d :     0.196774
      dxz     :     0.092268
      dyz     :     0.009265
      dx2y2   :     0.032495
      dxy     :     0.033801
      f0      :     0.003380  f :     0.019893
      f+1     :     0.002687
      f-1     :     0.001062
      f+2     :     0.003300
      f-2     :     0.001381
      f+3     :     0.003647
      f-3     :     0.004435
  3 H s       :     0.766339  s :     0.766339
      pz      :     0.031545  p :     0.068800
      px      :     0.018887
      py      :     0.018368
  4 H s       :     0.808029  s :     0.808029
      pz      :     0.029250  p :     0.060807
      px      :     0.016113
      py      :     0.015443
  5 H s       :     0.803011  s :     0.803011
      pz      :     0.034632  p :     0.063167
      px      :     0.016316
      py      :     0.012219
  6 H s       :     0.784733  s :     0.784733
      pz      :     0.028983  p :     0.053674
      px      :     0.014334
      py      :     0.010357


                      *****************************
                      * MAYER POPULATION ANALYSIS *
                      *****************************

  NA   - Mulliken gross atomic population
  ZA   - Total nuclear charge
  QA   - Mulliken gross atomic charge
  VA   - Mayer's total valence
  BVA  - Mayer's bonded valence
  FA   - Mayer's free valence

  ATOM       NA         ZA         QA         VA         BVA        FA
  0 O      8.4000     8.0000    -0.4000     1.7389     1.7389    -0.0000
  1 C      6.1382     6.0000    -0.1382     4.0845     4.0845    -0.0000
  2 C      6.1071     6.0000    -0.1071     3.6777     3.6777     0.0000
  3 H      0.8188     1.0000     0.1812     0.9764     0.9764    -0.0000
  4 H      0.8731     1.0000     0.1269     0.9789     0.9789    -0.0000
  5 H      0.8420     1.0000     0.1580     0.9684     0.9684    -0.0000
  6 H      0.8208     1.0000     0.1792     0.9590     0.9590    -0.0000

  Mayer bond orders larger than 0.100000
B(  0-O ,  1-C ) :   1.0481 B(  0-O ,  2-C ) :   0.6650 B(  1-C ,  2-C ) :   1.1186 
B(  1-C ,  3-H ) :   0.9225 B(  1-C ,  4-H ) :   0.9794 B(  2-C ,  5-H ) :   0.9438 
B(  2-C ,  6-H ) :   0.9256 

-------
TIMINGS
-------

Total SCF time: 0 days 0 hours 0 min 0 sec 

Total time                  ....       0.933 sec
Sum of individual times     ....       0.867 sec  ( 93.0%)

Fock matrix formation       ....       0.665 sec  ( 71.3%)
  Split-RI-J                ....       0.111 sec  ( 16.7% of F)
  Chain of spheres X        ....       0.498 sec  ( 74.8% of F)
  XC integration            ....       0.055 sec  (  8.2% of F)
    Basis function eval.    ....       0.017 sec  ( 31.4% of XC)
    Density eval.           ....       0.013 sec  ( 23.5% of XC)
    XC-Functional eval.     ....       0.004 sec  (  6.7% of XC)
    XC-Potential eval.      ....       0.014 sec  ( 26.5% of XC)
Diagonalization             ....       0.002 sec  (  0.2%)
Density matrix formation    ....       0.000 sec  (  0.0%)
Population analysis         ....       0.002 sec  (  0.3%)
Initial guess               ....       0.003 sec  (  0.4%)
Orbital Transformation      ....       0.000 sec  (  0.0%)
Orbital Orthonormalization  ....       0.001 sec  (  0.1%)
DIIS solution               ....       0.001 sec  (  0.1%)
SOSCF solution              ....       0.002 sec  (  0.2%)
Grid generation             ....       0.190 sec  ( 20.3%)

Maximum memory used throughout the entire SCF-calculation: 61.1 MB


           ************************************************************
           *        Program running with 8 parallel MPI-processes     *
           *              working on a common directory               *
           ************************************************************
------------------------------------------------------------------------------
                        ORCA TD-DFT/TDA CALCULATION
------------------------------------------------------------------------------

Input orbitals are from        ... ox_es1_F_orca0008.gbw
CI-vector output               ... ox_es1_F_orca0008.cis
Tamm-Dancoff approximation     ... operative
CIS-Integral strategy          ... AO-integrals
Integral handling              ... AO integral Direct
Max. core memory used          ... 3000 MB
Reference state                ... RHF
Generation of triplets         ... off
Follow IRoot                   ... off
Number of operators            ... 1
Orbital ranges used for CIS calculation:
 Operator 0:  Orbitals   3... 11  to  12...116
XAS localization array:
 Operator 0:  Orbitals  -1... -1

-------------------
XC-INTEGRATION GRID
-------------------

General Integration Accuracy     IntAcc      ... 3.467
Radial Grid Type                 RadialGrid  ... OptM3 with GC (2021)
Angular Grid (max. ang.)         AngularGrid ... 1 (Lebedev-50)
Angular grid pruning method      GridPruning ... 4 (adaptive)
Weight generation scheme         WeightScheme... Becke
Basis function cutoff            BFCut       ... 1.0000e-11
Integration weight cutoff        WCut        ... 1.0000e-14
Angular grids for H and He will be reduced by one unit
Partially contracted basis set               ... off
Rotationally invariant grid construction     ... off

Total number of grid points                  ...     4553
Total number of batches                      ...       74
Average number of points per batch           ...       61
Average number of grid points per atom       ...      650

---------------------
COSX-INTEGRATION GRID
---------------------

General Integration Accuracy     IntAcc      ... 3.067
Radial Grid Type                 RadialGrid  ... OptM3 with GC (2021)
Angular Grid (max. ang.)         AngularGrid ... 1 (Lebedev-50)
Angular grid pruning method      GridPruning ... 4 (adaptive)
Weight generation scheme         WeightScheme... Becke
Basis function cutoff            BFCut       ... 1.0000e-11
Integration weight cutoff        WCut        ... 1.0000e-14
Angular grids for H and He will be reduced by one unit
Partially contracted basis set               ... on
Rotationally invariant grid construction     ... off

Total number of grid points                  ...     2089
Total number of batches                      ...       36
Average number of points per batch           ...       58
Average number of grid points per atom       ...      298

---------------
TD-DFT XC SETUP
---------------

DFT calculation                         ... on
Name of the grid file                   ... ox_es1_F_orca0008.grid_cis.tmp
Exchange functional (TD-DFT)            ... PBE
   PBE kappa parameter  XKappa (TD-DFT) ...  0.804000
   PBE mue parameter   XMuePBE (TD-DFT) ...  0.219520
Correlation functional (TD-DFT)         ... PBE
   PBE beta parameter CBetaPBE (TD-DFT) ...  0.066725
 LDA part of GGA corr.  LDAOpt (TD-DFT) ... PW91-LDA
Hybrid DFT                              ... on
   Exchange mixing (TD-DFT)             ...  0.250
   GGA exch. scaling (TD-DFT)           ...  0.750
   GGA corr. scaling (TD-DFT)           ...  1.000

Building densities             ... done
Calculating rho(r) on the grid ... done
Building xc-kernel on the grid ... done
                    *** TD-DFT CALCULATION INITIALIZED ***

------------------------
DAVIDSON-DIAGONALIZATION
------------------------

Dimension of the eigenvalue problem            ...    945
Number of roots to be determined               ...      1
Maximum size of the expansion space            ...     10
Maximum number of iterations                   ...    100
Convergence tolerance for the residual         ...    2.500e-07
Convergence tolerance for the energies         ...    2.500e-07
Orthogonality tolerance                        ...    1.000e-14
Level Shift                                    ...    0.000e+00
Constructing the preconditioner                ... o.k.
Building the initial guess                     ... o.k.
Number of trial vectors determined             ...     10


                       ****Iteration    0****

   Memory handling for direct AO based CIS:
   Memory per vector needed      ...     1 MB
   Memory needed                 ...     1 MB
   Memory available              ...  3000 MB
   Number of vectors per batch   ...  3000
   Number of batches             ...     1
   Time for densities:            0.001
   Time for RI-J (Direct):        0.015
   Time for K (COSX):             0.054
   Time for XC-Integration:       0.015
   Time for Sigma-Completion:     0.000
   Size of expansion space: 3
   Lowest Energy          :     0.004979645912
   Maximum Energy change  :     0.004979645912 (vector 0)
   Maximum residual norm  :     0.004759097149

                       ****Iteration    1****
   Time for densities:            0.000
   Time for RI-J (Direct):        0.012
   Time for K (COSX):             0.048
   Time for XC-Integration:       0.006
   Time for Sigma-Completion:     0.000
   Size of expansion space: 4
   Lowest Energy          :     0.001518256054
   Maximum Energy change  :     0.003461389858 (vector 0)
   Maximum residual norm  :     0.000338771702

                       ****Iteration    2****
   Time for densities:            0.000
   Time for RI-J (Direct):        0.012
   Time for K (COSX):             0.049
   Time for XC-Integration:       0.006
   Time for Sigma-Completion:     0.000
   Size of expansion space: 5
   Lowest Energy          :     0.001246664048
   Maximum Energy change  :     0.000271592006 (vector 0)
   Maximum residual norm  :     0.000011329609

                       ****Iteration    3****
   Time for densities:            0.000
   Time for RI-J (Direct):        0.012
   Time for K (COSX):             0.048
   Time for XC-Integration:       0.006
   Time for Sigma-Completion:     0.000
   Size of expansion space: 6
   Lowest Energy          :     0.001238378546
   Maximum Energy change  :     0.000008285502 (vector 0)
   Maximum residual norm  :     0.000000374131

                       ****Iteration    4****
   Time for densities:            0.000
   Time for RI-J (Direct):        0.012
   Time for K (COSX):             0.048
   Time for XC-Integration:       0.006
   Time for Sigma-Completion:     0.000
   Size of expansion space: 7
   Lowest Energy          :     0.001238072657
   Maximum Energy change  :     0.000000305889 (vector 0)
   Maximum residual norm  :     0.000000015530

      *** CONVERGENCE OF RESIDUAL NORM REACHED ***

Storing the converged CI vectors               ... ox_es1_F_orca0008.cis1

                 *** DAVIDSON DONE ***

Total time for solving the CIS problem:     0.354sec

------------------------------------
TD-DFT/TDA EXCITED STATES (SINGLETS)
------------------------------------

the weight of the individual excitations are printed if larger than 1.0e-02

STATE  1:  E=   0.001238 au      0.034 eV      271.7 cm**-1 <S**2> =   0.000000
    10a ->  12a  :     0.684839 (c= -0.82755008)
    11a ->  12a  :     0.306829 (c=  0.55392185)


-----------------------------
TD-DFT/TDA-EXCITATION SPECTRA
-----------------------------

Center of mass = ( -0.9449,  0.0161, -0.0474)
Calculating the Dipole integrals                  ... done
Transforming integrals                            ... done
Calculating the Linear Momentum integrals         ... done
Transforming integrals                            ... done
Calculating angular momentum integrals            ... done
Transforming integrals                            ... done

-----------------------------------------------------------------------------
         ABSORPTION SPECTRUM VIA TRANSITION ELECTRIC DIPOLE MOMENTS
-----------------------------------------------------------------------------
State   Energy    Wavelength  fosc         T2        TX        TY        TZ  
        (cm-1)      (nm)                 (au**2)    (au)      (au)      (au) 
-----------------------------------------------------------------------------
   1     271.7   36801.8   0.000024076   0.02917   0.16835  -0.01816  -0.02231

-----------------------------------------------------------------------------
         ABSORPTION SPECTRUM VIA TRANSITION VELOCITY DIPOLE MOMENTS
-----------------------------------------------------------------------------
State   Energy    Wavelength   fosc        P2         PX        PY        PZ  
        (cm-1)      (nm)                 (au**2)     (au)      (au)      (au) 
-----------------------------------------------------------------------------
   1     271.7   36801.8   2.095681807   0.00389   0.05285   0.02275  -0.02411

-------------------------------------------------------------------
                             CD SPECTRUM
-------------------------------------------------------------------
State  Energy     Wavelength     R         MX        MY        MZ   
       (cm-1)       (nm)     (1e40*cgs)   (au)      (au)      (au)  
-------------------------------------------------------------------
   1     271.7   36801.8     10.96453   0.09086  -0.30735  -0.10657

-------------------------------------------------------------------
         CD SPECTRUM VIA TRANSITION VELOCITY DIPOLE MOMENTS        
-------------------------------------------------------------------
State  Energy     Wavelength     R         MX        MY        MZ   
       (cm-1)       (nm)     (1e40*cgs)   (au)      (au)      (au)  
-------------------------------------------------------------------
   1     271.7   36801.8    144.04029   0.09086  -0.30735  -0.10657

Total run time:        0.584 sec

           *** ORCA-CIS/TD-DFT FINISHED WITHOUT ERROR ***

Maximum memory used throughout the entire CIS-calculation: 49.4 MB

-----------------------
CIS/TD-DFT TOTAL ENERGY
-----------------------

    E(SCF)  =   -153.480664663 Eh
    DE(CIS) =      0.001238073 Eh (Root  1)
    ----------------------------- ---------
    E(tot)  =   -153.479426590 Eh



-------------------------------------------------------------------------------
                          DFT DISPERSION CORRECTION                            
                                                                               
                              DFTD3 V3.1  Rev 1                                
                          USING Becke-Johnson damping                          
-------------------------------------------------------------------------------
The PBE0 functional is recognized
Active option DFTDOPT                   ...         4   

molecular C6(AA) [au] = 395.457251 


            DFT-D V3
 parameters
 s6 scaling factor         :     1.0000 
 a1 scaling factor         :     0.4145 
 s8 scaling factor         :     1.2177 
 a2 scaling factor         :     4.8593 
 ad hoc parameters k1-k3   :    16.0000     1.3333    -4.0000 

 Edisp/kcal,au: -1.625252814322  -0.002590004945 
 E6   /kcal   :  -1.059949404 
 E8   /kcal   :  -0.565303410 
 % E8         :  34.782490784 

-------------------------   ----------------
Dispersion correction           -0.002590005
-------------------------   ----------------


-------------------------   --------------------
FINAL SINGLE POINT ENERGY      -153.482016594999
-------------------------   --------------------



           ************************************************************
           *        Program running with 8 parallel MPI-processes     *
           *              working on a common directory               *
           ************************************************************
------------------------------------------------------------------------------
                         ORCA SCF GRADIENT CALCULATION
------------------------------------------------------------------------------


------------------------
TD-DFT GRADIENT XC SETUP
------------------------

Building densities                     ... done
Calculating rho(r) on the grid         ... done
Building xc-kernel on the grid         ... done
Building xc 3rd derivative on the grid      ... done
                *** TD-DFT GRADIENT CALCULATION INITIALIZED ***

-------------------
TD-DFT/TDA GRADIENT
-------------------

Reference wavefunction             ... RHF
State of interest                  ... 1
Basis dimension                    ... 117
DFT-XC contribution needed         ... YES
RI-approximation                   ... ON
CIS-vectors being read from        ... ox_es1_F_orca0008.cis

 => Number of Vectors found: 1
 => Orbital Window: 3...11 -> 12...116

Reading the CIS file                     ... done
Norm of the CI vector                    ... 1.000000000
Making the CIS (pseudo)densities         ... done
Making operators G(D) and Q(T)           ... done
Transforming the Fock operators          ... done
Making the frozen-core relaxed density   ... done
Constructing the G(H) operator           ... done
Transforming the G(H) operator           ... done
Calculating the CIS Lagrangian           ... done
Solving the Z-vector equations           ... done
Finalizing the relaxed density           ... done
Storing the relaxed density              ... done
Constructing the G(Z) operator           ... done
Transforming the G(Z) operator           ... done
Making the W-matrix                      ... done
Finalizing the W-matrix                  ... done
Transforming the W-matrix                ... done
Nuclear repulsion gradient               ... done
One-Electron gradient                    ... done
Dispersion correction                    ... done
Prescreening matrices                    ... done
COSX-gradient                            ... done
Coulomb gradient (RI)                    ... done
Exchange-Correlation gradient            ... done

                 ---------------------------
                 EXCITED STATE GRADIENT DONE
                 ---------------------------

------------------
CARTESIAN GRADIENT
------------------

   1   O   :   -0.071843673   -0.097207213    0.014288855
   2   C   :    0.072015743    0.028853550   -0.015250624
   3   C   :    0.029375509    0.025158591   -0.017185298
   4   H   :   -0.022183644    0.059883524   -0.001996486
   5   H   :   -0.034006381    0.045623050   -0.009101833
   6   H   :    0.002237753   -0.032282983   -0.014121933
   7   H   :    0.024336529   -0.029997686    0.043366910

Difference to translation invariance:
           :   -0.0000681634    0.0000308337   -0.0000004090

Difference to rotation invariance:
           :    0.0001463723   -0.0000932903    0.0005972207

Norm of the cartesian gradient     ...    0.1867614346
RMS gradient                       ...    0.0407546862
MAX gradient                       ...    0.0972072127

------------------------------------------------------------------------------
                  RELAXED CIS/TDA DENSITY POPULATION ANALYSIS
                                   IROOT 1
------------------------------------------------------------------------------
------------------------------------------------------------------------------
                           ORCA POPULATION ANALYSIS
------------------------------------------------------------------------------
Input electron density              ... ox_es1_F_orca0008.cisp
BaseName (.gbw .S,...)              ... ox_es1_F_orca0008

                    ********************************
                    * MULLIKEN POPULATION ANALYSIS *
                    ********************************

-----------------------
MULLIKEN ATOMIC CHARGES
-----------------------
   0 O :   -0.324808
   1 C :   -0.108265
   2 C :   -0.151694
   3 H :    0.092409
   4 H :    0.121151
   5 H :    0.185616
   6 H :    0.185591
Sum of atomic charges:   -0.0000000

--------------------------------
MULLIKEN REDUCED ORBITAL CHARGES
--------------------------------
  0 O s       :     3.905485  s :     3.905485
      pz      :     2.400256  p :     4.395685
      px      :     0.617827
      py      :     1.377602
      dz2     :     0.002935  d :     0.022541
      dxz     :     0.000414
      dyz     :     0.004956
      dx2y2   :     0.007270
      dxy     :     0.006967
      f0      :     0.000147  f :     0.001098
      f+1     :     0.000115
      f-1     :     0.000330
      f+2     :     0.000117
      f-2     :     0.000035
      f+3     :     0.000184
      f-3     :     0.000170
  1 C s       :     3.233519  s :     3.233519
      pz      :     1.120794  p :     2.712151
      px      :     0.842569
      py      :     0.748788
      dz2     :     0.015170  d :     0.153695
      dxz     :     0.020403
      dyz     :     0.049129
      dx2y2   :     0.018359
      dxy     :     0.050634
      f0      :     0.002255  f :     0.008900
      f+1     :     0.001256
      f-1     :     0.000661
      f+2     :     0.002273
      f-2     :     0.001390
      f+3     :     0.001994
      f-3     :    -0.000929
  2 C s       :     3.322582  s :     3.322582
      pz      :     1.047720  p :     2.777937
      px      :     1.017856
      py      :     0.712362
      dz2     :     0.006196  d :     0.047304
      dxz     :     0.024724
      dyz     :     0.002272
      dx2y2   :     0.003980
      dxy     :     0.010133
      f0      :     0.000511  f :     0.003871
      f+1     :     0.000995
      f-1     :     0.000137
      f+2     :     0.000594
      f-2     :     0.000205
      f+3     :     0.000521
      f-3     :     0.000908
  3 H s       :     0.884589  s :     0.884589
      pz      :     0.010771  p :     0.023002
      px      :     0.006190
      py      :     0.006041
  4 H s       :     0.856818  s :     0.856818
      pz      :     0.010066  p :     0.022030
      px      :     0.006499
      py      :     0.005465
  5 H s       :     0.791658  s :     0.791658
      pz      :     0.011840  p :     0.022726
      px      :     0.006118
      py      :     0.004768
  6 H s       :     0.794786  s :     0.794786
      pz      :     0.010360  p :     0.019623
      px      :     0.005628
      py      :     0.003635


                     *******************************
                     * LOEWDIN POPULATION ANALYSIS *
                     *******************************

----------------------
LOEWDIN ATOMIC CHARGES
----------------------
   0 O :   -0.025519
   1 C :   -0.484662
   2 C :   -0.019074
   3 H :    0.099294
   4 H :    0.119002
   5 H :    0.147972
   6 H :    0.162988

-------------------------------
LOEWDIN REDUCED ORBITAL CHARGES
-------------------------------
  0 O s       :     3.582409  s :     3.582409
      pz      :     2.306597  p :     4.382282
      px      :     0.621984
      py      :     1.453700
      dz2     :     0.006011  d :     0.057260
      dxz     :     0.001707
      dyz     :     0.017998
      dx2y2   :     0.017003
      dxy     :     0.014541
      f0      :     0.000410  f :     0.003568
      f+1     :     0.000168
      f-1     :     0.000538
      f+2     :     0.000585
      f-2     :     0.000341
      f+3     :     0.000622
      f-3     :     0.000905
  1 C s       :     2.842015  s :     2.842015
      pz      :     1.105795  p :     2.994214
      px      :     1.011799
      py      :     0.876620
      dz2     :     0.081255  d :     0.584506
      dxz     :     0.091234
      dyz     :     0.138158
      dx2y2   :     0.084597
      dxy     :     0.189262
      f0      :     0.014070  f :     0.063927
      f+1     :     0.007961
      f-1     :     0.005955
      f+2     :     0.011795
      f-2     :     0.010281
      f+3     :     0.018440
      f-3     :    -0.004576
  2 C s       :     2.955838  s :     2.955838
      pz      :     1.073490  p :     2.839659
      px      :     1.125499
      py      :     0.640670
      dz2     :     0.029131  d :     0.203480
      dxz     :     0.103007
      dyz     :     0.008531
      dx2y2   :     0.031639
      dxy     :     0.031172
      f0      :     0.003617  f :     0.020098
      f+1     :     0.002484
      f-1     :     0.000885
      f+2     :     0.003660
      f-2     :     0.001565
      f+3     :     0.003492
      f-3     :     0.004395
  3 H s       :     0.835307  s :     0.835307
      pz      :     0.031281  p :     0.065399
      px      :     0.017134
      py      :     0.016983
  4 H s       :     0.819698  s :     0.819698
      pz      :     0.029186  p :     0.061300
      px      :     0.017594
      py      :     0.014520
  5 H s       :     0.787896  s :     0.787896
      pz      :     0.035072  p :     0.064132
      px      :     0.016438
      py      :     0.012622
  6 H s       :     0.783870  s :     0.783870
      pz      :     0.029513  p :     0.053142
      px      :     0.014303
      py      :     0.009326


                      *****************************
                      * MAYER POPULATION ANALYSIS *
                      *****************************

  NA   - Mulliken gross atomic population
  ZA   - Total nuclear charge
  QA   - Mulliken gross atomic charge
  VA   - Mayer's total valence
  BVA  - Mayer's bonded valence
  FA   - Mayer's free valence

  ATOM       NA         ZA         QA         VA         BVA        FA
  0 O      8.3248     8.0000    -0.3248     0.3356     2.2922    -1.9566
  1 C      6.1083     6.0000    -0.1083     3.9498     4.1386    -0.1888
  2 C      6.1517     6.0000    -0.1517     3.7095     4.2465    -0.5370
  3 H      0.9076     1.0000     0.0924     0.9940     1.1001    -0.1060
  4 H      0.8788     1.0000     0.1212     0.9828     1.0333    -0.0505
  5 H      0.8144     1.0000     0.1856     0.9538     0.9725    -0.0187
  6 H      0.8144     1.0000     0.1856     0.9549     0.9815    -0.0265

  Mayer bond orders larger than 0.100000
B(  0-O ,  1-C ) :   0.9664 B(  0-O ,  2-C ) :   1.2735 B(  1-C ,  2-C ) :   1.0833 
B(  1-C ,  3-H ) :   1.0671 B(  1-C ,  4-H ) :   1.0171 B(  2-C ,  5-H ) :   0.9378 
B(  2-C ,  6-H ) :   0.9398 


-------
TIMINGS
-------

Total TD-DFT gradient time         ...        5.929 sec

Fock matrix formation       ....       0.812 sec  ( 13.7%)
  Coulomb formation         ....       0.661 sec  ( 81.4% of F)
  RI-J                      ....       0.289 sec  ( 35.5% of F)
  Chain of spheres X        ....       0.372 sec  ( 45.8% of F)
  XC integration            ....       0.151 sec  ( 18.6% of F)
Z-vector equation           ....       2.529 sec  ( 42.7%)
One electron gradient       ....       0.031 sec  (  0.5%)
Prescreening matrices       ....       0.146 sec  (  2.5%)
RI-J Coulomb gradient       ....       0.243 sec  (  4.1%)
COSX gradient               ....       0.340 sec  (  5.7%)
XC gradient                 ....       1.535 sec  ( 25.9%)

Maximum memory used throughout the entire SCFGRAD-calculation: 130.2 MB

                            ***************************************
                            *     ORCA property calculations      *
                            ***************************************

                                    ---------------------
                                    Active property flags
                                    ---------------------
   (+) Dipole Moment


------------------------------------------------------------------------------
                       ORCA ELECTRIC PROPERTIES CALCULATION
------------------------------------------------------------------------------

Dipole Moment Calculation                       ... on
Quadrupole Moment Calculation                   ... off
Polarizability Calculation                      ... off
GBWName                                         ... ox_es1_F_orca0008.gbw
Electron density                                ... ox_es1_F_orca0008.scfp
The origin for moment calculation is the CENTER OF MASS  = (-0.944868,  0.016076 -0.047415)

-------------
DIPOLE MOMENT
-------------
                                X             Y             Z
Electronic contribution:     -0.78748       1.39874      -0.03831
Nuclear contribution   :      1.76493      -2.56442       0.02155
                        -----------------------------------------
Total Dipole Moment    :      0.97745      -1.16568      -0.01675
                        -----------------------------------------
Magnitude (a.u.)       :      1.52135
Magnitude (Debye)      :      3.86697



--------------------
Rotational spectrum 
--------------------
 
Rotational constants in cm-1:     1.463011     0.326957     0.303266 
Rotational constants in MHz : 43859.969740  9801.916533  9091.671611 

 Dipole components along the rotational axes: 
x,y,z [a.u.] :     1.431157    -0.516024     0.003974 
x,y,z [Debye]:     3.637713    -1.311629     0.010101 

 

                        *** CIS RELAXED DENSITY ***

------------------------------------------------------------------------------
                       ORCA ELECTRIC PROPERTIES CALCULATION
------------------------------------------------------------------------------

Dipole Moment Calculation                       ... on
Quadrupole Moment Calculation                   ... off
Polarizability Calculation                      ... off
GBWName                                         ... ox_es1_F_orca0008.gbw
Electron density                                ... ox_es1_F_orca0008.cisp
The origin for moment calculation is the CENTER OF MASS  = (-0.944868,  0.016076 -0.047415)

-------------
DIPOLE MOMENT
-------------
                                X             Y             Z
Electronic contribution:     -0.76786       1.51150       0.01384
Nuclear contribution   :      1.76493      -2.56442       0.02155
                        -----------------------------------------
Total Dipole Moment    :      0.99707      -1.05292       0.03539
                        -----------------------------------------
Magnitude (a.u.)       :      1.45053
Magnitude (Debye)      :      3.68695



--------------------
Rotational spectrum 
--------------------
 
Rotational constants in cm-1:     1.463011     0.326957     0.303266 
Rotational constants in MHz : 43859.969740  9801.916533  9091.671611 

 Dipole components along the rotational axes: 
x,y,z [a.u.] :     1.391602    -0.406098     0.050574 
x,y,z [Debye]:     3.537172    -1.032220     0.128548 

 

Timings for individual modules:

Sum of individual times         ...        8.229 sec (=   0.137 min)
GTO integral calculation        ...        0.257 sec (=   0.004 min)   3.1 %
SCF iterations                  ...        1.093 sec (=   0.018 min)  13.3 %
CIS module                      ...        0.778 sec (=   0.013 min)   9.5 %
SCF Gradient evaluation         ...        6.100 sec (=   0.102 min)  74.1 %
                             ****ORCA TERMINATED NORMALLY****
TOTAL RUN TIME: 0 days 0 hours 0 minutes 8 seconds 502 msec
