
                                 *****************
                                 * O   R   C   A *
                                 *****************

                                            #,                                       
                                            ###                                      
                                            ####                                     
                                            #####                                    
                                            ######                                   
                                           ########,                                 
                                     ,,################,,,,,                         
                               ,,#################################,,                 
                          ,,##########################################,,             
                       ,#########################################, ''#####,          
                    ,#############################################,,   '####,        
                  ,##################################################,,,,####,       
                ,###########''''           ''''###############################       
              ,#####''   ,,,,##########,,,,          '''####'''          '####       
            ,##' ,,,,###########################,,,                        '##       
           ' ,,###''''                  '''############,,,                           
         ,,##''                                '''############,,,,        ,,,,,,###''
      ,#''                                            '''#######################'''  
     '                                                          ''''####''''         
             ,#######,   #######,   ,#######,      ##                                
            ,#'     '#,  ##    ##  ,#'     '#,    #''#        ######   ,####,        
            ##       ##  ##   ,#'  ##            #'  '#       #        #'  '#        
            ##       ##  #######   ##           ,######,      #####,   #    #        
            '#,     ,#'  ##    ##  '#,     ,#' ,#      #,         ##   #,  ,#        
             '#######'   ##     ##  '#######'  #'      '#     #####' # '####'        



                  #######################################################
                  #                        -***-                        #
                  #          Department of theory and spectroscopy      #
                  #    Directorship and core code : Frank Neese         #
                  #        Max Planck Institute fuer Kohlenforschung    #
                  #                Kaiser Wilhelm Platz 1               #
                  #                 D-45470 Muelheim/Ruhr               #
                  #                      Germany                        #
                  #                                                     #
                  #                  All rights reserved                #
                  #                        -***-                        #
                  #######################################################


                         Program Version 5.0.2 -  RELEASE  -


 With contributions from (in alphabetic order):
   Daniel Aravena         : Magnetic Suceptibility
   Michael Atanasov       : Ab Initio Ligand Field Theory (pilot matlab implementation)
   Alexander A. Auer      : GIAO ZORA, VPT2 properties, NMR spectrum
   Ute Becker             : Parallelization
   Giovanni Bistoni       : ED, misc. LED, open-shell LED, HFLD
   Martin Brehm           : Molecular dynamics
   Dmytro Bykov           : SCF Hessian
   Vijay G. Chilkuri      : MRCI spin determinant printing, contributions to CSF-ICE
   Dipayan Datta          : RHF DLPNO-CCSD density
   Achintya Kumar Dutta   : EOM-CC, STEOM-CC
   Dmitry Ganyushin       : Spin-Orbit,Spin-Spin,Magnetic field MRCI
   Miquel Garcia          : C-PCM and meta-GGA Hessian, CC/C-PCM, Gaussian charge scheme
   Yang Guo               : DLPNO-NEVPT2, F12-NEVPT2, CIM, IAO-localization
   Andreas Hansen         : Spin unrestricted coupled pair/coupled cluster methods
   Benjamin Helmich-Paris : MC-RPA, TRAH-SCF, COSX integrals
   Lee Huntington         : MR-EOM, pCC
   Robert Izsak           : Overlap fitted RIJCOSX, COSX-SCS-MP3, EOM
   Marcus Kettner         : VPT2
   Christian Kollmar      : KDIIS, OOCD, Brueckner-CCSD(T), CCSD density, CASPT2, CASPT2-K
   Simone Kossmann        : Meta GGA functionals, TD-DFT gradient, OOMP2, MP2 Hessian
   Martin Krupicka        : Initial AUTO-CI
   Lucas Lang             : DCDCAS
   Marvin Lechner         : AUTO-CI (C++ implementation), FIC-MRCC
   Dagmar Lenk            : GEPOL surface, SMD
   Dimitrios Liakos       : Extrapolation schemes; Compound Job, initial MDCI parallelization
   Dimitrios Manganas     : Further ROCIS development; embedding schemes
   Dimitrios Pantazis     : SARC Basis sets
   Anastasios Papadopoulos: AUTO-CI, single reference methods and gradients
   Taras Petrenko         : DFT Hessian,TD-DFT gradient, ASA, ECA, R-Raman, ABS, FL, XAS/XES, NRVS
   Peter Pinski           : DLPNO-MP2, DLPNO-MP2 Gradient
   Christoph Reimann      : Effective Core Potentials
   Marius Retegan         : Local ZFS, SOC
   Christoph Riplinger    : Optimizer, TS searches, QM/MM, DLPNO-CCSD(T), (RO)-DLPNO pert. Triples
   Tobias Risthaus        : Range-separated hybrids, TD-DFT gradient, RPA, STAB
   Michael Roemelt        : Original ROCIS implementation
   Masaaki Saitow         : Open-shell DLPNO-CCSD energy and density
   Barbara Sandhoefer     : DKH picture change effects
   Avijit Sen             : IP-ROCIS
   Kantharuban Sivalingam : CASSCF convergence, NEVPT2, FIC-MRCI
   Bernardo de Souza      : ESD, SOC TD-DFT
   Georgi Stoychev        : AutoAux, RI-MP2 NMR, DLPNO-MP2 response
   Willem Van den Heuvel  : Paramagnetic NMR
   Boris Wezisla          : Elementary symmetry handling
   Frank Wennmohs         : Technical directorship


 We gratefully acknowledge several colleagues who have allowed us to
 interface, adapt or use parts of their codes:
   Stefan Grimme, W. Hujo, H. Kruse, P. Pracht,  : VdW corrections, initial TS optimization,
                  C. Bannwarth, S. Ehlert          DFT functionals, gCP, sTDA/sTD-DF
   Ed Valeev, F. Pavosevic, A. Kumar             : LibInt (2-el integral package), F12 methods
   Garnet Chan, S. Sharma, J. Yang, R. Olivares  : DMRG
   Ulf Ekstrom                                   : XCFun DFT Library
   Mihaly Kallay                                 : mrcc  (arbitrary order and MRCC methods)
   Jiri Pittner, Ondrej Demel                    : Mk-CCSD
   Frank Weinhold                                : gennbo (NPA and NBO analysis)
   Christopher J. Cramer and Donald G. Truhlar   : smd solvation model
   Lars Goerigk                                  : TD-DFT with DH, B97 family of functionals
   V. Asgeirsson, H. Jonsson                     : NEB implementation
   FAccTs GmbH                                   : IRC, NEB, NEB-TS, DLPNO-Multilevel, CI-OPT
                                                   MM, QMMM, 2- and 3-layer-ONIOM, Crystal-QMMM,
                                                   LR-CPCM, SF, NACMEs, symmetry and pop. for TD-DFT,
                                                   nearIR, NL-DFT gradient (VV10), updates on ESD,
                                                   ML-optimized integration grids
   S Lehtola, MJT Oliveira, MAL Marques          : LibXC Library
   Liviu Ungur et al                             : ANISO software


 Your calculation uses the libint2 library for the computation of 2-el integrals
 For citations please refer to: http://libint.valeyev.net

 Your ORCA version has been built with support for libXC version: 5.1.0
 For citations please refer to: https://tddft.org/programs/libxc/

 This ORCA versions uses:
   CBLAS   interface :  Fast vector & matrix operations
   LAPACKE interface :  Fast linear algebra routines
   SCALAPACK package :  Parallel linear algebra routines
   Shared memory     :  Shared parallel matrices
   BLAS/LAPACK       :  OpenBLAS 0.3.15  USE64BITINT DYNAMIC_ARCH NO_AFFINITY SkylakeX SINGLE_THREADED
        Core in use  :  SkylakeX
   Copyright (c) 2011-2014, The OpenBLAS Project


Your calculation utilizes the atom-pairwise dispersion correction
with the Becke-Johnson damping scheme (D3BJ)
Cite in your paper:
S.Grimme, S.Ehrlich, L.Goerigk, J Comput Chem, (2011), 32, 1456–1465 
S.Grimme, J.Antony, S.Ehrlich and H.Krieg, J.Chem.Phys., 132, (2010), 154104 
   

================================================================================

----- Orbital basis set information -----
Your calculation utilizes the basis: def2-TZVP
   F. Weigend and R. Ahlrichs, Phys. Chem. Chem. Phys. 7, 3297 (2005).

----- AuxJ basis set information -----
Your calculation utilizes the auxiliary basis: def2/J
   F. Weigend, Phys. Chem. Chem. Phys. 8, 1057 (2006).

================================================================================
                                        WARNINGS
                       Please study these warnings very carefully!
================================================================================

INFO   : Checking CIS options ...

WARNING: CIS/ROCIS methods need fully converged wavefunctions
  ===> : Setting SCFConvForced true
         You can overwrite this default with %scf ConvForced false 


INFO   : the flag for use of the SHARK integral package has been found!

================================================================================
                                       INPUT FILE
================================================================================
NAME = ox_es1_D_orca0008.inp
|  1> ! engrad PBE0 D3BJ def2-TZVP  
|  2> %pal nprocs 8 end
|  3> %maxcore 3000
|  4> 
|  5> %tddft
|  6>   nroots 1
|  7>   tda true
|  8>   Iroot 1
|  9>   end 
| 10> *xyz 0 1 
| 11> O   -0.7700630458736587 0.9771480628298606 0.012205705161277456
| 12> C   -0.733224221128381 -0.5957281637967711 0.047045952749010245
| 13> C   0.7081249974539292 -0.48343625259202655 -0.053968108219825985
| 14> H   -1.265443525662844 -0.7298027288779798 0.906848545347109
| 15> H   -1.1935725653843046 -0.6352554344985115 -0.970349851960434
| 16> H   1.2752287756535112 -0.7004826745539323 -0.9800952141133494
| 17> H   1.2809080199461178 -0.6989166904171312 0.9987129007649007
| 18> *
| 19> 
| 20>                          ****END OF INPUT****
================================================================================

                     *******************************
                     * Energy+Gradient Calculation *
                     *******************************

---------------------------------
CARTESIAN COORDINATES (ANGSTROEM)
---------------------------------
  O     -0.770063    0.977148    0.012206
  C     -0.733224   -0.595728    0.047046
  C      0.708125   -0.483436   -0.053968
  H     -1.265444   -0.729803    0.906849
  H     -1.193573   -0.635255   -0.970350
  H      1.275229   -0.700483   -0.980095
  H      1.280908   -0.698917    0.998713

----------------------------
CARTESIAN COORDINATES (A.U.)
----------------------------
  NO LB      ZA    FRAG     MASS         X           Y           Z
   0 O     8.0000    0    15.999   -1.455208    1.846542    0.023065
   1 C     6.0000    0    12.011   -1.385593   -1.125763    0.088904
   2 C     6.0000    0    12.011    1.338162   -0.913562   -0.101985
   3 H     1.0000    0     1.008   -2.391342   -1.379127    1.713695
   4 H     1.0000    0     1.008   -2.255525   -1.200459   -1.833695
   5 H     1.0000    0     1.008    2.409833   -1.323720   -1.852112
   6 H     1.0000    0     1.008    2.420565   -1.320761    1.887294

--------------------------------
INTERNAL COORDINATES (ANGSTROEM)
--------------------------------
 O      0   0   0     0.000000000000     0.00000000     0.00000000
 C      1   0   0     1.573693288461     0.00000000     0.00000000
 C      2   1   0     1.449241485655    86.80671668     0.00000000
 H      2   1   3     1.020046016295    97.92164582   125.92163862
 H      2   1   3     1.117397523994    90.31822596   249.55825532
 H      3   2   1     1.107441764070   123.53178537   254.66332971
 H      3   2   1     1.217640963756   113.19562657   104.44727916

---------------------------
INTERNAL COORDINATES (A.U.)
---------------------------
 O      0   0   0     0.000000000000     0.00000000     0.00000000
 C      1   0   0     2.973849333982     0.00000000     0.00000000
 C      2   1   0     2.738669509805    86.80671668     0.00000000
 H      2   1   3     1.927607614795    97.92164582   125.92163862
 H      2   1   3     2.111575303071    90.31822596   249.55825532
 H      3   2   1     2.092761643358   123.53178537   254.66332971
 H      3   2   1     2.301007950944   113.19562657   104.44727916

---------------------
BASIS SET INFORMATION
---------------------
There are 3 groups of distinct atoms

 Group   1 Type O   : 11s6p2d1f contracted to 5s3p2d1f pattern {62111/411/11/1}
 Group   2 Type C   : 11s6p2d1f contracted to 5s3p2d1f pattern {62111/411/11/1}
 Group   3 Type H   : 5s1p contracted to 3s1p pattern {311/1}

Atom   0O    basis set group =>   1
Atom   1C    basis set group =>   2
Atom   2C    basis set group =>   2
Atom   3H    basis set group =>   3
Atom   4H    basis set group =>   3
Atom   5H    basis set group =>   3
Atom   6H    basis set group =>   3
---------------------------------
AUXILIARY/J BASIS SET INFORMATION
---------------------------------
There are 3 groups of distinct atoms

 Group   1 Type O   : 12s5p4d2f1g contracted to 6s4p3d1f1g pattern {711111/2111/211/2/1}
 Group   2 Type C   : 12s5p4d2f1g contracted to 6s4p3d1f1g pattern {711111/2111/211/2/1}
 Group   3 Type H   : 5s2p1d contracted to 3s1p1d pattern {311/2/1}

Atom   0O    basis set group =>   1
Atom   1C    basis set group =>   2
Atom   2C    basis set group =>   2
Atom   3H    basis set group =>   3
Atom   4H    basis set group =>   3
Atom   5H    basis set group =>   3
Atom   6H    basis set group =>   3

Checking for AutoStart:
The File: ox_es1_D_orca0008.gbw exists
Trying to determine its content:
     ... Fine, the file contains calculation information
     ... Fine, the calculation information was read
     ... Fine, the file contains a basis set
     ... Fine, the basis set was read
     ... Fine, the file contains a geometry
     ... Fine, the geometry was read
     ... Fine, the file contains a set of orbitals
     ... Fine, the orbitals can be read
     => possible old guess file was deleted
     => GBW file was renamed to GES file
     => GES file is set as startup file
     => Guess is set to MORead
     ... now leaving AutoStart



           ************************************************************
           *        Program running with 8 parallel MPI-processes     *
           *              working on a common directory               *
           ************************************************************
------------------------------------------------------------------------------
                           ORCA GTO INTEGRAL CALCULATION
                           -- RI-GTO INTEGRALS CHOSEN --
------------------------------------------------------------------------------
------------------------------------------------------------------------------
                   ___                                                        
                  /   \      - P O W E R E D   B Y -                         
                 /     \                                                     
                 |  |  |   _    _      __       _____    __    __             
                 |  |  |  | |  | |    /  \     |  _  \  |  |  /  |          
                  \  \/   | |  | |   /    \    | | | |  |  | /  /          
                 / \  \   | |__| |  /  /\  \   | |_| |  |  |/  /          
                |  |  |   |  __  | /  /__\  \  |    /   |      \           
                |  |  |   | |  | | |   __   |  |    \   |  |\   \          
                \     /   | |  | | |  |  |  |  | |\  \  |  | \   \       
                 \___/    |_|  |_| |__|  |__|  |_| \__\ |__|  \__/        
                                                                              
                      - O R C A' S   B I G   F R I E N D -                    
                                      &                                       
                       - I N T E G R A L  F E E D E R -                       
                                                                              
 v1 FN, 2020, v2 2021                                                         
------------------------------------------------------------------------------


Reading SHARK input file ox_es1_D_orca0008.SHARKINP.tmp ... ok
----------------------
SHARK INTEGRAL PACKAGE
----------------------

Number of atoms                             ...      7
Number of basis functions                   ...    117
Number of shells                            ...     49
Maximum angular momentum                    ...      3
Integral batch strategy                     ... SHARK/LIBINT Hybrid
RI-J (if used) integral strategy            ... SPLIT-RIJ (Revised 2003 algorithm where possible)
Printlevel                                  ...      1
Contraction scheme used                     ... SEGMENTED contraction
Coulomb Range Separation                    ... NOT USED
Exchange Range Separation                   ... NOT USED
Finite Nucleus Model                        ... NOT USED
Auxiliary Coulomb fitting basis             ... AVAILABLE
   # of basis functions in Aux-J            ...    191
   # of shells in Aux-J                     ...     65
   Maximum angular momentum in Aux-J        ...      4
Auxiliary J/K fitting basis                 ... NOT available
Auxiliary Correlation fitting basis         ... NOT available
Auxiliary 'external' fitting basis          ... NOT available
Integral threshold                          ...     2.500000e-11
Primitive cut-off                           ...     2.500000e-12
Primitive pair pre-selection threshold      ...     2.500000e-12

Calculating pre-screening integrals         ... done (  0.0 sec) Dimension = 49
Organizing shell pair data                  ... done (  0.0 sec)
Shell pair information
Total number of shell pairs                 ...      1225
Shell pairs after pre-screening             ...      1213
Total number of primitive shell pairs       ...      3648
Primitive shell pairs kept                  ...      3077
          la=0 lb=0:    367 shell pairs
          la=1 lb=0:    351 shell pairs
          la=1 lb=1:     91 shell pairs
          la=2 lb=0:    161 shell pairs
          la=2 lb=1:     78 shell pairs
          la=2 lb=2:     21 shell pairs
          la=3 lb=0:     81 shell pairs
          la=3 lb=1:     39 shell pairs
          la=3 lb=2:     18 shell pairs
          la=3 lb=3:      6 shell pairs

Calculating one electron integrals          ... done (  0.0 sec)
Calculating RI/J V-Matrix + Cholesky decomp.... done (  0.0 sec)
Calculating Nuclear repulsion               ... done (  0.0 sec) ENN=     67.315439459361 Eh

SHARK setup successfully completed in   0.1 seconds

Maximum memory used throughout the entire GTOINT-calculation: 14.9 MB


           ************************************************************
           *        Program running with 8 parallel MPI-processes     *
           *              working on a common directory               *
           ************************************************************
-------------------------------------------------------------------------------
                                 ORCA SCF
-------------------------------------------------------------------------------

------------
SCF SETTINGS
------------
Hamiltonian:
 Density Functional     Method          .... DFT(GTOs)
 Exchange Functional    Exchange        .... PBE
   PBE kappa parameter   XKappa         ....  0.804000
   PBE mue parameter    XMuePBE         ....  0.219520
 Correlation Functional Correlation     .... PBE
   PBE beta parameter  CBetaPBE         ....  0.066725
 LDA part of GGA corr.  LDAOpt          .... PW91-LDA
 Gradients option       PostSCFGGA      .... off
 Hybrid DFT is turned on
   Fraction HF Exchange ScalHFX         ....  0.250000
   Scaling of DF-GGA-X  ScalDFX         ....  0.750000
   Scaling of DF-GGA-C  ScalDFC         ....  1.000000
   Scaling of DF-LDA-C  ScalLDAC        ....  1.000000
   Perturbative correction              ....  0.000000
   Density functional embedding theory  .... OFF
   NL short-range parameter             ....  6.900000
 RI-approximation to the Coulomb term is turned on
   Number of AuxJ basis functions       .... 191
   RIJ-COSX (HFX calculated with COS-X)).... on


General Settings:
 Integral files         IntName         .... ox_es1_D_orca0008
 Hartree-Fock type      HFTyp           .... RHF
 Total Charge           Charge          ....    0
 Multiplicity           Mult            ....    1
 Number of Electrons    NEL             ....   24
 Basis Dimension        Dim             ....  117
 Nuclear Repulsion      ENuc            ....     67.3154394594 Eh

Convergence Acceleration:
 DIIS                   CNVDIIS         .... on
   Start iteration      DIISMaxIt       ....    12
   Startup error        DIISStart       ....  0.200000
   # of expansion vecs  DIISMaxEq       ....     5
   Bias factor          DIISBfac        ....   1.050
   Max. coefficient     DIISMaxC        ....  10.000
 Trust-Rad. Augm. Hess. CNVTRAH         .... auto
   Auto Start mean grad. ratio tolernc. ....  1.125000
   Auto Start start iteration           ....     1
   Auto Start num. interpolation iter.  ....    10
   Max. Number of Micro iterations      ....    16
   Max. Number of Macro iterations      .... Maxiter - #DIIS iter
   Number of Davidson start vectors     ....     2
   Converg. threshold I  (grad. norm)   ....   1.000e-05
   Converg. threshold II (energy diff.) ....   1.000e-08
   Grad. Scal. Fac. for Micro threshold ....   0.100
   Minimum threshold for Micro iter.    ....   0.010
   NR start threshold (gradient norm)   ....   0.001
   Initial trust radius                 ....   0.400
   Minimum AH scaling param. (alpha)    ....   1.000
   Maximum AH scaling param. (alpha)    .... 1000.000
   Orbital update algorithm             .... Taylor
   White noise on init. David. guess    .... on
   Maximum white noise                  ....   0.010
   Quad. conv. algorithm                .... NR
 SOSCF                  CNVSOSCF        .... on
   Start iteration      SOSCFMaxIt      ....   150
   Startup grad/error   SOSCFStart      ....  0.003300
 Level Shifting         CNVShift        .... on
   Level shift para.    LevelShift      ....    0.2500
   Turn off err/grad.   ShiftErr        ....    0.0010
 Zerner damping         CNVZerner       .... off
 Static damping         CNVDamp         .... on
   Fraction old density DampFac         ....    0.7000
   Max. Damping (<1)    DampMax         ....    0.9800
   Min. Damping (>=0)   DampMin         ....    0.0000
   Turn off err/grad.   DampErr         ....    0.1000
 Fernandez-Rico         CNVRico         .... off

SCF Procedure:
 Maximum # iterations   MaxIter         ....   125
 SCF integral mode      SCFMode         .... Direct
   Integral package                     .... SHARK and LIBINT hybrid scheme
 Reset frequency        DirectResetFreq ....    20
 Integral Threshold     Thresh          ....  2.500e-11 Eh
 Primitive CutOff       TCut            ....  2.500e-12 Eh

Convergence Tolerance:
 Convergence Check Mode ConvCheckMode   .... Total+1el-Energy
 Convergence forced     ConvForced      .... 1
 Energy Change          TolE            ....  1.000e-08 Eh
 1-El. energy change                    ....  1.000e-05 Eh
 Orbital Gradient       TolG            ....  1.000e-05
 Orbital Rotation angle TolX            ....  1.000e-05
 DIIS Error             TolErr          ....  5.000e-07


Diagonalization of the overlap matrix:
Smallest eigenvalue                        ... 4.209e-04
Time for diagonalization                   ...    0.001 sec
Threshold for overlap eigenvalues          ... 1.000e-08
Number of eigenvalues below threshold      ... 0
Time for construction of square roots      ...    0.001 sec
Total time needed                          ...    0.003 sec

---------------------
INITIAL GUESS: MOREAD
---------------------
Guess MOs are being read from file: ox_es1_D_orca0008.ges
Input Geometry matches current geometry (good)
Input basis set matches current basis set (good)
MOs were renormalized
MOs were reorthogonalized (Cholesky)
                      ------------------
                      INITIAL GUESS DONE (   0.0 sec)
                      ------------------
-------------------
DFT GRID GENERATION
-------------------

General Integration Accuracy     IntAcc      ... 4.388
Radial Grid Type                 RadialGrid  ... OptM3 with GC (2021)
Angular Grid (max. ang.)         AngularGrid ... 4 (Lebedev-302)
Angular grid pruning method      GridPruning ... 4 (adaptive)
Weight generation scheme         WeightScheme... Becke
Basis function cutoff            BFCut       ... 1.0000e-11
Integration weight cutoff        WCut        ... 1.0000e-14
Angular grids for H and He will be reduced by one unit
Partially contracted basis set               ... off
Rotationally invariant grid construction     ... off

Total number of grid points                  ...    31344
Total number of batches                      ...      493
Average number of points per batch           ...       63
Average number of grid points per atom       ...     4478
Time for grid setup =    0.126 sec

--------------------
COSX GRID GENERATION
--------------------

GRIDX 1
-------
General Integration Accuracy     IntAcc      ... 3.816
Radial Grid Type                 RadialGrid  ... OptM3 with GC (2021)
Angular Grid (max. ang.)         AngularGrid ... 1 (Lebedev-50)
Angular grid pruning method      GridPruning ... 4 (adaptive)
Weight generation scheme         WeightScheme... Becke
Basis function cutoff            BFCut       ... 1.0000e-11
Integration weight cutoff        WCut        ... 1.0000e-14
Angular grids for H and He will be reduced by one unit
Partially contracted basis set               ... on
Rotationally invariant grid construction     ... off

Total number of grid points                  ...     4033
Total number of batches                      ...       67
Average number of points per batch           ...       60
Average number of grid points per atom       ...      576
UseSFitting                                  ... on

GRIDX 2
-------
General Integration Accuracy     IntAcc      ... 4.020
Radial Grid Type                 RadialGrid  ... OptM3 with GC (2021)
Angular Grid (max. ang.)         AngularGrid ... 2 (Lebedev-110)
Angular grid pruning method      GridPruning ... 4 (adaptive)
Weight generation scheme         WeightScheme... Becke
Basis function cutoff            BFCut       ... 1.0000e-11
Integration weight cutoff        WCut        ... 1.0000e-14
Angular grids for H and He will be reduced by one unit
Partially contracted basis set               ... on
Rotationally invariant grid construction     ... off

Total number of grid points                  ...     8725
Total number of batches                      ...      141
Average number of points per batch           ...       61
Average number of grid points per atom       ...     1246
UseSFitting                                  ... on

GRIDX 3
-------
General Integration Accuracy     IntAcc      ... 4.338
Radial Grid Type                 RadialGrid  ... OptM3 with GC (2021)
Angular Grid (max. ang.)         AngularGrid ... 3 (Lebedev-194)
Angular grid pruning method      GridPruning ... 4 (adaptive)
Weight generation scheme         WeightScheme... Becke
Basis function cutoff            BFCut       ... 1.0000e-11
Integration weight cutoff        WCut        ... 1.0000e-14
Angular grids for H and He will be reduced by one unit
Partially contracted basis set               ... on
Rotationally invariant grid construction     ... off

Total number of grid points                  ...    19256
Total number of batches                      ...      303
Average number of points per batch           ...       63
Average number of grid points per atom       ...     2751
UseSFitting                                  ... on

Time for X-Grid setup             =    0.080 sec

--------------
SCF ITERATIONS
--------------
ITER       Energy         Delta-E        Max-DP      RMS-DP      [F,P]     Damp
               ***  Starting incremental Fock matrix formation  ***
                      *** Initiating the SOSCF procedure ***
                      *** Re-Reading the Fockian *** 
                      *** Removing any level shift *** 
ITER      Energy       Delta-E        Grad      Rot      Max-DP    RMS-DP
  0   -153.54537960 -153.5453796042  0.000001  0.000001  0.000003  0.000000
               *** Restarting incremental Fock matrix formation ***
                  ***Gradient check signals convergence***
              ***Rediagonalizing the Fockian in SOSCF/NRSCF***

               *****************************************************
               *                     SUCCESS                       *
               *           SCF CONVERGED AFTER   1 CYCLES          *
               *****************************************************

Old exchange energy                            =     -4.935849817 Eh
New exchange energy                            =     -4.935854661 Eh
Exchange energy change after final integration =     -0.000004845 Eh
Total energy after final integration           =   -153.545384449 Eh
Final COS-X integration done in                =     0.299 sec

----------------
TOTAL SCF ENERGY
----------------

Total Energy       :         -153.54538445 Eh           -4178.18233 eV

Components:
Nuclear Repulsion  :           67.31543946 Eh            1831.74623 eV
Electronic Energy  :         -220.86082391 Eh           -6009.92856 eV
One Electron Energy:         -341.60508903 Eh           -9295.54705 eV
Two Electron Energy:          120.74426512 Eh            3285.61849 eV
Max COSX asymmetry :            0.00000149 Eh               0.00004 eV

Virial components:
Potential Energy   :         -306.02909468 Eh           -8327.47503 eV
Kinetic Energy     :          152.48371023 Eh            4149.29270 eV
Virial Ratio       :            2.00696254


DFT components:
N(Alpha)           :       12.000000545035 electrons
N(Beta)            :       12.000000545035 electrons
N(Total)           :       24.000001090069 electrons
E(X)               :      -14.824549558033 Eh       
E(C)               :       -0.768187440230 Eh       
E(XC)              :      -15.592736998263 Eh       
DFET-embed. en.    :        0.000000000000 Eh       

---------------
SCF CONVERGENCE
---------------

  Last Energy change         ...    1.0260e-11  Tolerance :   1.0000e-08
  Last MAX-Density change    ...    6.6613e-16  Tolerance :   1.0000e-07
  Last RMS-Density change    ...    1.8452e-17  Tolerance :   5.0000e-09
  Last Orbital Gradient      ...    7.4659e-07  Tolerance :   1.0000e-05
  Last Orbital Rotation      ...    2.7082e-06  Tolerance :   1.0000e-05

             **** THE GBW FILE WAS UPDATED (ox_es1_D_orca0008.gbw) ****
             **** DENSITY ox_es1_D_orca0008.scfp WAS UPDATED ****
             **** ENERGY FILE WAS UPDATED (ox_es1_D_orca0008.en.tmp) ****
             **** THE GBW FILE WAS UPDATED (ox_es1_D_orca0008.gbw) ****
             **** DENSITY ox_es1_D_orca0008.scfp WAS UPDATED ****
----------------
ORBITAL ENERGIES
----------------

  NO   OCC          E(Eh)            E(eV) 
   0   2.0000     -19.206473      -522.6347 
   1   2.0000     -10.326501      -280.9984 
   2   2.0000     -10.274453      -279.5821 
   3   2.0000      -0.962232       -26.1837 
   4   2.0000      -0.762743       -20.7553 
   5   2.0000      -0.630282       -17.1509 
   6   2.0000      -0.516596       -14.0573 
   7   2.0000      -0.478004       -13.0072 
   8   2.0000      -0.404896       -11.0178 
   9   2.0000      -0.374977       -10.2036 
  10   2.0000      -0.288403        -7.8478 
  11   2.0000      -0.263435        -7.1684 
  12   0.0000      -0.107577        -2.9273 
  13   0.0000       0.040594         1.1046 
  14   0.0000       0.067817         1.8454 
  15   0.0000       0.075719         2.0604 
  16   0.0000       0.092611         2.5201 
  17   0.0000       0.143287         3.8990 
  18   0.0000       0.184678         5.0253 
  19   0.0000       0.188977         5.1423 
  20   0.0000       0.226085         6.1521 
  21   0.0000       0.260671         7.0932 
  22   0.0000       0.271303         7.3825 
  23   0.0000       0.297543         8.0966 
  24   0.0000       0.352007         9.5786 
  25   0.0000       0.366953         9.9853 
  26   0.0000       0.395084        10.7508 
  27   0.0000       0.411012        11.1842 
  28   0.0000       0.426161        11.5964 
  29   0.0000       0.480642        13.0789 
  30   0.0000       0.513100        13.9622 
  31   0.0000       0.544374        14.8132 
  32   0.0000       0.573667        15.6103 
  33   0.0000       0.627007        17.0617 
  34   0.0000       0.686586        18.6830 
  35   0.0000       0.743507        20.2318 
  36   0.0000       0.778014        21.1708 
  37   0.0000       0.810721        22.0608 
  38   0.0000       0.862913        23.4811 
  39   0.0000       0.928443        25.2642 
  40   0.0000       0.934357        25.4252 
  41   0.0000       1.025979        27.9183 
  42   0.0000       1.045369        28.4459 
  43   0.0000       1.075332        29.2613 
  44   0.0000       1.161192        31.5976 
  45   0.0000       1.333181        36.2777 
  46   0.0000       1.392468        37.8910 
  47   0.0000       1.454283        39.5730 
  48   0.0000       1.477902        40.2158 
  49   0.0000       1.514572        41.2136 
  50   0.0000       1.578200        42.9450 
  51   0.0000       1.596735        43.4494 
  52   0.0000       1.631214        44.3876 
  53   0.0000       1.662281        45.2330 
  54   0.0000       1.707190        46.4550 
  55   0.0000       1.774608        48.2895 
  56   0.0000       1.796058        48.8732 
  57   0.0000       1.810197        49.2580 
  58   0.0000       1.834497        49.9192 
  59   0.0000       1.877576        51.0914 
  60   0.0000       1.998315        54.3769 
  61   0.0000       2.066199        56.2241 
  62   0.0000       2.120669        57.7063 
  63   0.0000       2.169472        59.0343 
  64   0.0000       2.288270        62.2670 
  65   0.0000       2.355244        64.0894 
  66   0.0000       2.382259        64.8246 
  67   0.0000       2.417852        65.7931 
  68   0.0000       2.457100        66.8611 
  69   0.0000       2.491784        67.8049 
  70   0.0000       2.553871        69.4944 
  71   0.0000       2.617996        71.2393 
  72   0.0000       2.636844        71.7522 
  73   0.0000       2.693048        73.2816 
  74   0.0000       2.757669        75.0400 
  75   0.0000       2.785019        75.7842 
  76   0.0000       2.846388        77.4542 
  77   0.0000       2.915657        79.3391 
  78   0.0000       2.923901        79.5634 
  79   0.0000       2.962296        80.6082 
  80   0.0000       3.049596        82.9837 
  81   0.0000       3.079994        83.8109 
  82   0.0000       3.087453        84.0139 
  83   0.0000       3.128673        85.1355 
  84   0.0000       3.160933        86.0134 
  85   0.0000       3.176340        86.4326 
  86   0.0000       3.309462        90.0550 
  87   0.0000       3.336424        90.7887 
  88   0.0000       3.424071        93.1737 
  89   0.0000       3.461952        94.2045 
  90   0.0000       3.542405        96.3937 
  91   0.0000       3.627893        98.7200 
  92   0.0000       3.642994        99.1309 
  93   0.0000       3.874494       105.4303 
  94   0.0000       3.928114       106.8894 
  95   0.0000       4.041978       109.9878 
  96   0.0000       4.078718       110.9876 
  97   0.0000       4.233084       115.1881 
  98   0.0000       4.406997       119.9205 
  99   0.0000       4.464043       121.4728 
 100   0.0000       4.617966       125.6612 
 101   0.0000       4.700562       127.9088 
 102   0.0000       5.214836       141.9029 
 103   0.0000       5.236160       142.4832 
 104   0.0000       5.307846       144.4338 
 105   0.0000       5.330630       145.0538 
 106   0.0000       5.545863       150.9106 
 107   0.0000       5.573551       151.6640 
 108   0.0000       5.752680       156.5384 
 109   0.0000       6.350380       172.8026 
 110   0.0000       6.425563       174.8484 
 111   0.0000       6.694372       182.1631 
 112   0.0000       6.745908       183.5655 
 113   0.0000       7.013214       190.8393 
 114   0.0000      21.961469       597.6019 
 115   0.0000      22.339841       607.8980 
 116   0.0000      43.604733      1186.5451 

                    ********************************
                    * MULLIKEN POPULATION ANALYSIS *
                    ********************************

-----------------------
MULLIKEN ATOMIC CHARGES
-----------------------
   0 O :   -0.394839
   1 C :   -0.074967
   2 C :   -0.146107
   3 H :    0.150557
   4 H :    0.144747
   5 H :    0.167834
   6 H :    0.152776
Sum of atomic charges:    0.0000000

--------------------------------
MULLIKEN REDUCED ORBITAL CHARGES
--------------------------------
  0 O s       :     3.936025  s :     3.936025
      pz      :     1.945430  p :     4.440857
      px      :     1.321989
      py      :     1.173439
      dz2     :     0.002589  d :     0.017096
      dxz     :     0.000216
      dyz     :     0.003346
      dx2y2   :     0.006128
      dxy     :     0.004816
      f0      :     0.000091  f :     0.000861
      f+1     :     0.000048
      f-1     :     0.000220
      f+2     :     0.000092
      f-2     :     0.000019
      f+3     :     0.000163
      f-3     :     0.000227
  1 C s       :     3.197095  s :     3.197095
      pz      :     1.083614  p :     2.740455
      px      :     0.923778
      py      :     0.733063
      dz2     :     0.014181  d :     0.129118
      dxz     :     0.019093
      dyz     :     0.031734
      dx2y2   :     0.023956
      dxy     :     0.040156
      f0      :     0.001494  f :     0.008298
      f+1     :     0.001234
      f-1     :     0.000503
      f+2     :     0.002129
      f-2     :     0.000070
      f+3     :     0.001841
      f-3     :     0.001029
  2 C s       :     3.322890  s :     3.322890
      pz      :     1.027971  p :     2.760348
      px      :     0.973871
      py      :     0.758507
      dz2     :     0.006498  d :     0.057889
      dxz     :     0.024054
      dyz     :     0.005200
      dx2y2   :     0.007383
      dxy     :     0.014754
      f0      :     0.000572  f :     0.004980
      f+1     :     0.001090
      f-1     :     0.000109
      f+2     :     0.000817
      f-2     :     0.000279
      f+3     :     0.000833
      f-3     :     0.001281
  3 H s       :     0.825664  s :     0.825664
      pz      :     0.011202  p :     0.023778
      px      :     0.007315
      py      :     0.005262
  4 H s       :     0.833833  s :     0.833833
      pz      :     0.011527  p :     0.021420
      px      :     0.004968
      py      :     0.004925
  5 H s       :     0.809970  s :     0.809970
      pz      :     0.011204  p :     0.022196
      px      :     0.006861
      py      :     0.004131
  6 H s       :     0.829314  s :     0.829314
      pz      :     0.010032  p :     0.017910
      px      :     0.004922
      py      :     0.002956


                     *******************************
                     * LOEWDIN POPULATION ANALYSIS *
                     *******************************

----------------------
LOEWDIN ATOMIC CHARGES
----------------------
   0 O :   -0.157399
   1 C :   -0.323196
   2 C :   -0.070309
   3 H :    0.108443
   4 H :    0.145873
   5 H :    0.135707
   6 H :    0.160880

-------------------------------
LOEWDIN REDUCED ORBITAL CHARGES
-------------------------------
  0 O s       :     3.666457  s :     3.666457
      pz      :     1.893184  p :     4.452499
      px      :     1.294181
      py      :     1.265134
      dz2     :     0.005803  d :     0.036447
      dxz     :     0.000314
      dyz     :     0.007806
      dx2y2   :     0.013342
      dxy     :     0.009182
      f0      :     0.000170  f :     0.001996
      f+1     :     0.000060
      f-1     :     0.000400
      f+2     :     0.000336
      f-2     :     0.000017
      f+3     :     0.000527
      f-3     :     0.000487
  1 C s       :     2.853367  s :     2.853367
      pz      :     1.068314  p :     2.937938
      px      :     1.073287
      py      :     0.796337
      dz2     :     0.067869  d :     0.478495
      dxz     :     0.101232
      dyz     :     0.074785
      dx2y2   :     0.115521
      dxy     :     0.119089
      f0      :     0.008505  f :     0.053395
      f+1     :     0.005313
      f-1     :     0.005006
      f+2     :     0.010936
      f-2     :     0.000358
      f+3     :     0.011831
      f-3     :     0.011446
  2 C s       :     2.935269  s :     2.935269
      pz      :     1.057808  p :     2.864168
      px      :     1.099356
      py      :     0.707004
      dz2     :     0.032301  d :     0.245589
      dxz     :     0.111581
      dyz     :     0.012906
      dx2y2   :     0.042053
      dxy     :     0.046747
      f0      :     0.003748  f :     0.025283
      f+1     :     0.003294
      f-1     :     0.001036
      f+2     :     0.004470
      f-2     :     0.001553
      f+3     :     0.004927
      f-3     :     0.006253
  3 H s       :     0.816815  s :     0.816815
      pz      :     0.036410  p :     0.074742
      px      :     0.022430
      py      :     0.015903
  4 H s       :     0.795043  s :     0.795043
      pz      :     0.032395  p :     0.059084
      px      :     0.013981
      py      :     0.012709
  5 H s       :     0.800989  s :     0.800989
      pz      :     0.033601  p :     0.063304
      px      :     0.018271
      py      :     0.011431
  6 H s       :     0.792302  s :     0.792302
      pz      :     0.027447  p :     0.046819
      px      :     0.011979
      py      :     0.007392


                      *****************************
                      * MAYER POPULATION ANALYSIS *
                      *****************************

  NA   - Mulliken gross atomic population
  ZA   - Total nuclear charge
  QA   - Mulliken gross atomic charge
  VA   - Mayer's total valence
  BVA  - Mayer's bonded valence
  FA   - Mayer's free valence

  ATOM       NA         ZA         QA         VA         BVA        FA
  0 O      8.3948     8.0000    -0.3948     1.7393     1.7393    -0.0000
  1 C      6.0750     6.0000    -0.0750     3.9361     3.9361    -0.0000
  2 C      6.1461     6.0000    -0.1461     3.8613     3.8613    -0.0000
  3 H      0.8494     1.0000     0.1506     0.9805     0.9805    -0.0000
  4 H      0.8553     1.0000     0.1447     0.9849     0.9849     0.0000
  5 H      0.8322     1.0000     0.1678     0.9536     0.9536    -0.0000
  6 H      0.8472     1.0000     0.1528     0.9603     0.9603    -0.0000

  Mayer bond orders larger than 0.100000
B(  0-O ,  1-C ) :   0.8611 B(  0-O ,  2-C ) :   0.8617 B(  1-C ,  2-C ) :   1.1283 
B(  1-C ,  3-H ) :   0.9593 B(  1-C ,  4-H ) :   0.9694 B(  2-C ,  5-H ) :   0.9312 
B(  2-C ,  6-H ) :   0.9384 

-------
TIMINGS
-------

Total SCF time: 0 days 0 hours 0 min 1 sec 

Total time                  ....       1.108 sec
Sum of individual times     ....       1.019 sec  ( 92.0%)

Fock matrix formation       ....       0.794 sec  ( 71.6%)
  Split-RI-J                ....       0.127 sec  ( 16.0% of F)
  Chain of spheres X        ....       0.593 sec  ( 74.6% of F)
  XC integration            ....       0.072 sec  (  9.0% of F)
    Basis function eval.    ....       0.020 sec  ( 27.6% of XC)
    Density eval.           ....       0.015 sec  ( 21.4% of XC)
    XC-Functional eval.     ....       0.004 sec  (  5.9% of XC)
    XC-Potential eval.      ....       0.024 sec  ( 32.9% of XC)
Diagonalization             ....       0.003 sec  (  0.2%)
Density matrix formation    ....       0.000 sec  (  0.0%)
Population analysis         ....       0.003 sec  (  0.2%)
Initial guess               ....       0.010 sec  (  0.9%)
Orbital Transformation      ....       0.000 sec  (  0.0%)
Orbital Orthonormalization  ....       0.001 sec  (  0.1%)
DIIS solution               ....       0.001 sec  (  0.1%)
SOSCF solution              ....       0.003 sec  (  0.2%)
Grid generation             ....       0.205 sec  ( 18.5%)

Maximum memory used throughout the entire SCF-calculation: 61.1 MB


           ************************************************************
           *        Program running with 8 parallel MPI-processes     *
           *              working on a common directory               *
           ************************************************************
------------------------------------------------------------------------------
                        ORCA TD-DFT/TDA CALCULATION
------------------------------------------------------------------------------

Input orbitals are from        ... ox_es1_D_orca0008.gbw
CI-vector output               ... ox_es1_D_orca0008.cis
Tamm-Dancoff approximation     ... operative
CIS-Integral strategy          ... AO-integrals
Integral handling              ... AO integral Direct
Max. core memory used          ... 3000 MB
Reference state                ... RHF
Generation of triplets         ... off
Follow IRoot                   ... off
Number of operators            ... 1
Orbital ranges used for CIS calculation:
 Operator 0:  Orbitals   3... 11  to  12...116
XAS localization array:
 Operator 0:  Orbitals  -1... -1

-------------------
XC-INTEGRATION GRID
-------------------

General Integration Accuracy     IntAcc      ... 3.467
Radial Grid Type                 RadialGrid  ... OptM3 with GC (2021)
Angular Grid (max. ang.)         AngularGrid ... 1 (Lebedev-50)
Angular grid pruning method      GridPruning ... 4 (adaptive)
Weight generation scheme         WeightScheme... Becke
Basis function cutoff            BFCut       ... 1.0000e-11
Integration weight cutoff        WCut        ... 1.0000e-14
Angular grids for H and He will be reduced by one unit
Partially contracted basis set               ... off
Rotationally invariant grid construction     ... off

Total number of grid points                  ...     4537
Total number of batches                      ...       75
Average number of points per batch           ...       60
Average number of grid points per atom       ...      648

---------------------
COSX-INTEGRATION GRID
---------------------

General Integration Accuracy     IntAcc      ... 3.067
Radial Grid Type                 RadialGrid  ... OptM3 with GC (2021)
Angular Grid (max. ang.)         AngularGrid ... 1 (Lebedev-50)
Angular grid pruning method      GridPruning ... 4 (adaptive)
Weight generation scheme         WeightScheme... Becke
Basis function cutoff            BFCut       ... 1.0000e-11
Integration weight cutoff        WCut        ... 1.0000e-14
Angular grids for H and He will be reduced by one unit
Partially contracted basis set               ... on
Rotationally invariant grid construction     ... off

Total number of grid points                  ...     2083
Total number of batches                      ...       36
Average number of points per batch           ...       57
Average number of grid points per atom       ...      298

---------------
TD-DFT XC SETUP
---------------

DFT calculation                         ... on
Name of the grid file                   ... ox_es1_D_orca0008.grid_cis.tmp
Exchange functional (TD-DFT)            ... PBE
   PBE kappa parameter  XKappa (TD-DFT) ...  0.804000
   PBE mue parameter   XMuePBE (TD-DFT) ...  0.219520
Correlation functional (TD-DFT)         ... PBE
   PBE beta parameter CBetaPBE (TD-DFT) ...  0.066725
 LDA part of GGA corr.  LDAOpt (TD-DFT) ... PW91-LDA
Hybrid DFT                              ... on
   Exchange mixing (TD-DFT)             ...  0.250
   GGA exch. scaling (TD-DFT)           ...  0.750
   GGA corr. scaling (TD-DFT)           ...  1.000

Building densities             ... done
Calculating rho(r) on the grid ... done
Building xc-kernel on the grid ... done
                    *** TD-DFT CALCULATION INITIALIZED ***

------------------------
DAVIDSON-DIAGONALIZATION
------------------------

Dimension of the eigenvalue problem            ...    945
Number of roots to be determined               ...      1
Maximum size of the expansion space            ...     10
Maximum number of iterations                   ...    100
Convergence tolerance for the residual         ...    2.500e-07
Convergence tolerance for the energies         ...    2.500e-07
Orthogonality tolerance                        ...    1.000e-14
Level Shift                                    ...    0.000e+00
Constructing the preconditioner                ... o.k.
Building the initial guess                     ... o.k.
Number of trial vectors determined             ...     10


                       ****Iteration    0****

   Memory handling for direct AO based CIS:
   Memory per vector needed      ...     1 MB
   Memory needed                 ...     1 MB
   Memory available              ...  3000 MB
   Number of vectors per batch   ...  3000
   Number of batches             ...     1
   Time for densities:            0.001
   Time for RI-J (Direct):        0.016
   Time for K (COSX):             0.061
   Time for XC-Integration:       0.016
   Time for Sigma-Completion:     0.000
   Size of expansion space: 3
   Lowest Energy          :     0.070509490054
   Maximum Energy change  :     0.070509490054 (vector 0)
   Maximum residual norm  :     0.003192209194

                       ****Iteration    1****
   Time for densities:            0.000
   Time for RI-J (Direct):        0.013
   Time for K (COSX):             0.057
   Time for XC-Integration:       0.007
   Time for Sigma-Completion:     0.000
   Size of expansion space: 4
   Lowest Energy          :     0.068166660636
   Maximum Energy change  :     0.002342829418 (vector 0)
   Maximum residual norm  :     0.000064115203

                       ****Iteration    2****
   Time for densities:            0.000
   Time for RI-J (Direct):        0.013
   Time for K (COSX):             0.057
   Time for XC-Integration:       0.007
   Time for Sigma-Completion:     0.000
   Size of expansion space: 5
   Lowest Energy          :     0.068115581903
   Maximum Energy change  :     0.000051078733 (vector 0)
   Maximum residual norm  :     0.000002836457

                       ****Iteration    3****
   Time for densities:            0.000
   Time for RI-J (Direct):        0.013
   Time for K (COSX):             0.057
   Time for XC-Integration:       0.007
   Time for Sigma-Completion:     0.000
   Size of expansion space: 6
   Lowest Energy          :     0.068112873549
   Maximum Energy change  :     0.000002708354 (vector 0)
   Maximum residual norm  :     0.000000202652

      *** CONVERGENCE OF RESIDUAL NORM REACHED ***

Storing the converged CI vectors               ... ox_es1_D_orca0008.cis1

                 *** DAVIDSON DONE ***

Total time for solving the CIS problem:     0.331sec

------------------------------------
TD-DFT/TDA EXCITED STATES (SINGLETS)
------------------------------------

the weight of the individual excitations are printed if larger than 1.0e-02

STATE  1:  E=   0.068113 au      1.853 eV    14949.0 cm**-1 <S**2> =   0.000000
    10a ->  12a  :     0.012240 (c= -0.11063485)
    11a ->  12a  :     0.982311 (c=  0.99111607)


-----------------------------
TD-DFT/TDA-EXCITATION SPECTRA
-----------------------------

Center of mass = ( -0.5372, -0.0049,  0.0029)
Calculating the Dipole integrals                  ... done
Transforming integrals                            ... done
Calculating the Linear Momentum integrals         ... done
Transforming integrals                            ... done
Calculating angular momentum integrals            ... done
Transforming integrals                            ... done

-----------------------------------------------------------------------------
         ABSORPTION SPECTRUM VIA TRANSITION ELECTRIC DIPOLE MOMENTS
-----------------------------------------------------------------------------
State   Energy    Wavelength  fosc         T2        TX        TY        TZ  
        (cm-1)      (nm)                 (au**2)    (au)      (au)      (au) 
-----------------------------------------------------------------------------
   1   14949.0    668.9   0.000305160   0.00672  -0.03371   0.00944  -0.07413

-----------------------------------------------------------------------------
         ABSORPTION SPECTRUM VIA TRANSITION VELOCITY DIPOLE MOMENTS
-----------------------------------------------------------------------------
State   Energy    Wavelength   fosc        P2         PX        PY        PZ  
        (cm-1)      (nm)                 (au**2)     (au)      (au)      (au) 
-----------------------------------------------------------------------------
   1   14949.0    668.9   0.011267396   0.00115  -0.00265   0.00780   0.03291

-------------------------------------------------------------------
                             CD SPECTRUM
-------------------------------------------------------------------
State  Energy     Wavelength     R         MX        MY        MZ   
       (cm-1)       (nm)     (1e40*cgs)   (au)      (au)      (au)  
-------------------------------------------------------------------
   1   14949.0    668.9      0.93565   0.09241   0.27958  -0.03319

-------------------------------------------------------------------
         CD SPECTRUM VIA TRANSITION VELOCITY DIPOLE MOMENTS        
-------------------------------------------------------------------
State  Energy     Wavelength     R         MX        MY        MZ   
       (cm-1)       (nm)     (1e40*cgs)   (au)      (au)      (au)  
-------------------------------------------------------------------
   1   14949.0    668.9      5.83880   0.09241   0.27958  -0.03319

Total run time:        0.611 sec

           *** ORCA-CIS/TD-DFT FINISHED WITHOUT ERROR ***

Maximum memory used throughout the entire CIS-calculation: 49.4 MB

-----------------------
CIS/TD-DFT TOTAL ENERGY
-----------------------

    E(SCF)  =   -153.545384449 Eh
    DE(CIS) =      0.068112874 Eh (Root  1)
    ----------------------------- ---------
    E(tot)  =   -153.477271575 Eh



-------------------------------------------------------------------------------
                          DFT DISPERSION CORRECTION                            
                                                                               
                              DFTD3 V3.1  Rev 1                                
                          USING Becke-Johnson damping                          
-------------------------------------------------------------------------------
The PBE0 functional is recognized
Active option DFTDOPT                   ...         4   

molecular C6(AA) [au] = 394.914258 


            DFT-D V3
 parameters
 s6 scaling factor         :     1.0000 
 a1 scaling factor         :     0.4145 
 s8 scaling factor         :     1.2177 
 a2 scaling factor         :     4.8593 
 ad hoc parameters k1-k3   :    16.0000     1.3333    -4.0000 

 Edisp/kcal,au: -1.654112812890  -0.002635996275 
 E6   /kcal   :  -1.079407562 
 E8   /kcal   :  -0.574705251 
 % E8         :  34.744017840 

-------------------------   ----------------
Dispersion correction           -0.002635996
-------------------------   ----------------


-------------------------   --------------------
FINAL SINGLE POINT ENERGY      -153.479907571511
-------------------------   --------------------



           ************************************************************
           *        Program running with 8 parallel MPI-processes     *
           *              working on a common directory               *
           ************************************************************
------------------------------------------------------------------------------
                         ORCA SCF GRADIENT CALCULATION
------------------------------------------------------------------------------


------------------------
TD-DFT GRADIENT XC SETUP
------------------------

Building densities                     ... done
Calculating rho(r) on the grid         ... done
Building xc-kernel on the grid         ... done
Building xc 3rd derivative on the grid      ... done
                *** TD-DFT GRADIENT CALCULATION INITIALIZED ***

-------------------
TD-DFT/TDA GRADIENT
-------------------

Reference wavefunction             ... RHF
State of interest                  ... 1
Basis dimension                    ... 117
DFT-XC contribution needed         ... YES
RI-approximation                   ... ON
CIS-vectors being read from        ... ox_es1_D_orca0008.cis

 => Number of Vectors found: 1
 => Orbital Window: 3...11 -> 12...116

Reading the CIS file                     ... done
Norm of the CI vector                    ... 1.000000000
Making the CIS (pseudo)densities         ... done
Making operators G(D) and Q(T)           ... done
Transforming the Fock operators          ... done
Making the frozen-core relaxed density   ... done
Constructing the G(H) operator           ... done
Transforming the G(H) operator           ... done
Calculating the CIS Lagrangian           ... done
Solving the Z-vector equations           ... done
Finalizing the relaxed density           ... done
Storing the relaxed density              ... done
Constructing the G(Z) operator           ... done
Transforming the G(Z) operator           ... done
Making the W-matrix                      ... done
Finalizing the W-matrix                  ... done
Transforming the W-matrix                ... done
Nuclear repulsion gradient               ... done
One-Electron gradient                    ... done
Dispersion correction                    ... done
Prescreening matrices                    ... done
COSX-gradient                            ... done
Coulomb gradient (RI)                    ... done
Exchange-Correlation gradient            ... done

                 ---------------------------
                 EXCITED STATE GRADIENT DONE
                 ---------------------------

------------------
CARTESIAN GRADIENT
------------------

   1   O   :    0.019574340    0.018030285   -0.003727252
   2   C   :   -0.052529787   -0.106143562    0.078785895
   3   C   :   -0.038329001    0.066744529   -0.060691856
   4   H   :    0.029543283    0.028387866   -0.041120905
   5   H   :    0.008519801    0.019360988   -0.016625805
   6   H   :    0.011077164   -0.008520495   -0.012424716
   7   H   :    0.022158194   -0.017849269    0.055817353

Difference to translation invariance:
           :    0.0000139947    0.0000103425    0.0000127131

Difference to rotation invariance:
           :   -0.0001484290   -0.0000465961   -0.0005401079

Norm of the cartesian gradient     ...    0.1973092193
RMS gradient                       ...    0.0430564016
MAX gradient                       ...    0.1061435615

------------------------------------------------------------------------------
                  RELAXED CIS/TDA DENSITY POPULATION ANALYSIS
                                   IROOT 1
------------------------------------------------------------------------------
------------------------------------------------------------------------------
                           ORCA POPULATION ANALYSIS
------------------------------------------------------------------------------
Input electron density              ... ox_es1_D_orca0008.cisp
BaseName (.gbw .S,...)              ... ox_es1_D_orca0008

                    ********************************
                    * MULLIKEN POPULATION ANALYSIS *
                    ********************************

-----------------------
MULLIKEN ATOMIC CHARGES
-----------------------
   0 O :   -0.221239
   1 C :   -0.090058
   2 C :   -0.281640
   3 H :    0.162807
   4 H :    0.156388
   5 H :    0.148027
   6 H :    0.125714
Sum of atomic charges:   -0.0000000

--------------------------------
MULLIKEN REDUCED ORBITAL CHARGES
--------------------------------
  0 O s       :     3.920217  s :     3.920217
      pz      :     1.062741  p :     4.284455
      px      :     1.911008
      py      :     1.310706
      dz2     :     0.002082  d :     0.016083
      dxz     :     0.000231
      dyz     :     0.003816
      dx2y2   :     0.005944
      dxy     :     0.004010
      f0      :    -0.000022  f :     0.000485
      f+1     :    -0.000042
      f-1     :     0.000037
      f+2     :     0.000116
      f-2     :    -0.000008
      f+3     :     0.000161
      f-3     :     0.000244
  1 C s       :     3.204120  s :     3.204120
      pz      :     1.051399  p :     2.759999
      px      :     0.982731
      py      :     0.725870
      dz2     :     0.013524  d :     0.117858
      dxz     :     0.022427
      dyz     :     0.014588
      dx2y2   :     0.025766
      dxy     :     0.041552
      f0      :     0.000864  f :     0.008081
      f+1     :     0.001302
      f-1     :     0.000396
      f+2     :     0.001183
      f-2     :     0.000066
      f+3     :     0.002150
      f-3     :     0.002120
  2 C s       :     3.333340  s :     3.333340
      pz      :     1.008922  p :     2.892920
      px      :     0.915916
      py      :     0.968082
      dz2     :     0.005974  d :     0.050523
      dxz     :     0.017044
      dyz     :     0.002347
      dx2y2   :     0.008705
      dxy     :     0.016453
      f0      :     0.000525  f :     0.004857
      f+1     :     0.000975
      f-1     :     0.000223
      f+2     :     0.000776
      f-2     :     0.000162
      f+3     :     0.001038
      f-3     :     0.001158
  3 H s       :     0.813396  s :     0.813396
      pz      :     0.011501  p :     0.023797
      px      :     0.007427
      py      :     0.004869
  4 H s       :     0.822276  s :     0.822276
      pz      :     0.011813  p :     0.021335
      px      :     0.005233
      py      :     0.004289
  5 H s       :     0.828831  s :     0.828831
      pz      :     0.010321  p :     0.023141
      px      :     0.006584
      py      :     0.006237
  6 H s       :     0.855906  s :     0.855906
      pz      :     0.009103  p :     0.018379
      px      :     0.004745
      py      :     0.004531


                     *******************************
                     * LOEWDIN POPULATION ANALYSIS *
                     *******************************

----------------------
LOEWDIN ATOMIC CHARGES
----------------------
   0 O :   -0.006000
   1 C :   -0.299761
   2 C :   -0.240841
   3 H :    0.117774
   4 H :    0.166030
   5 H :    0.121108
   6 H :    0.141690

-------------------------------
LOEWDIN REDUCED ORBITAL CHARGES
-------------------------------
  0 O s       :     3.680213  s :     3.680213
      pz      :     1.043435  p :     4.286107
      px      :     1.859703
      py      :     1.382970
      dz2     :     0.006273  d :     0.037958
      dxz     :     0.000368
      dyz     :     0.007753
      dx2y2   :     0.012435
      dxy     :     0.011129
      f0      :     0.000159  f :     0.001721
      f+1     :     0.000008
      f-1     :     0.000227
      f+2     :     0.000301
      f-2     :     0.000002
      f+3     :     0.000521
      f-3     :     0.000503
  1 C s       :     2.857909  s :     2.857909
      pz      :     1.033085  p :     2.933088
      px      :     1.111171
      py      :     0.788832
      dz2     :     0.067192  d :     0.450669
      dxz     :     0.105412
      dyz     :     0.035359
      dx2y2   :     0.132562
      dxy     :     0.110145
      f0      :     0.005982  f :     0.058095
      f+1     :     0.005319
      f-1     :     0.005034
      f+2     :     0.007464
      f-2     :     0.000335
      f+3     :     0.013940
      f-3     :     0.020021
  2 C s       :     2.945533  s :     2.945533
      pz      :     1.048300  p :     3.015839
      px      :     1.071221
      py      :     0.896318
      dz2     :     0.035274  d :     0.253121
      dxz     :     0.103370
      dyz     :     0.007699
      dx2y2   :     0.042118
      dxy     :     0.064660
      f0      :     0.003672  f :     0.026348
      f+1     :     0.003794
      f-1     :     0.001503
      f+2     :     0.004180
      f-2     :     0.001256
      f+3     :     0.005644
      f-3     :     0.006299
  3 H s       :     0.807584  s :     0.807584
      pz      :     0.036903  p :     0.074642
      px      :     0.022727
      py      :     0.015012
  4 H s       :     0.775515  s :     0.775515
      pz      :     0.032602  p :     0.058454
      px      :     0.014691
      py      :     0.011161
  5 H s       :     0.812849  s :     0.812849
      pz      :     0.031040  p :     0.066043
      px      :     0.017626
      py      :     0.017376
  6 H s       :     0.810127  s :     0.810127
      pz      :     0.024969  p :     0.048184
      px      :     0.011566
      py      :     0.011649


                      *****************************
                      * MAYER POPULATION ANALYSIS *
                      *****************************

  NA   - Mulliken gross atomic population
  ZA   - Total nuclear charge
  QA   - Mulliken gross atomic charge
  VA   - Mayer's total valence
  BVA  - Mayer's bonded valence
  FA   - Mayer's free valence

  ATOM       NA         ZA         QA         VA         BVA        FA
  0 O      8.2212     8.0000    -0.2212     1.8859     1.0028     0.8830
  1 C      6.0901     6.0000    -0.0901     3.9838     3.9143     0.0695
  2 C      6.2816     6.0000    -0.2816     3.8899     3.1629     0.7270
  3 H      0.8372     1.0000     0.1628     0.9645     0.9471     0.0174
  4 H      0.8436     1.0000     0.1564     0.9715     0.9373     0.0342
  5 H      0.8520     1.0000     0.1480     0.9687     0.9582     0.0105
  6 H      0.8743     1.0000     0.1257     0.9737     0.9643     0.0094

  Mayer bond orders larger than 0.100000
B(  0-O ,  1-C ) :   0.8854 B(  1-C ,  2-C ) :   1.1707 B(  1-C ,  3-H ) :   0.9363 
B(  1-C ,  4-H ) :   0.9111 B(  2-C ,  5-H ) :   0.9418 B(  2-C ,  6-H ) :   0.9484 



-------
TIMINGS
-------

Total TD-DFT gradient time         ...        5.865 sec

Fock matrix formation       ....       0.907 sec  ( 15.5%)
  Coulomb formation         ....       0.732 sec  ( 80.8% of F)
  RI-J                      ....       0.316 sec  ( 34.8% of F)
  Chain of spheres X        ....       0.416 sec  ( 45.9% of F)
  XC integration            ....       0.174 sec  ( 19.2% of F)
Z-vector equation           ....       1.989 sec  ( 33.9%)
One electron gradient       ....       0.035 sec  (  0.6%)
Prescreening matrices       ....       0.177 sec  (  3.0%)
RI-J Coulomb gradient       ....       0.279 sec  (  4.8%)
COSX gradient               ....       0.389 sec  (  6.6%)
XC gradient                 ....       1.759 sec  ( 30.0%)

Maximum memory used throughout the entire SCFGRAD-calculation: 130.2 MB

                            ***************************************
                            *     ORCA property calculations      *
                            ***************************************

                                    ---------------------
                                    Active property flags
                                    ---------------------
   (+) Dipole Moment


------------------------------------------------------------------------------
                       ORCA ELECTRIC PROPERTIES CALCULATION
------------------------------------------------------------------------------

Dipole Moment Calculation                       ... on
Quadrupole Moment Calculation                   ... off
Polarizability Calculation                      ... off
GBWName                                         ... ox_es1_D_orca0008.gbw
Electron density                                ... ox_es1_D_orca0008.scfp
The origin for moment calculation is the CENTER OF MASS  = (-0.537229, -0.004934  0.002870)

-------------
DIPOLE MOMENT
-------------
                                X             Y             Z
Electronic contribution:     -0.62306       1.31420       0.03427
Nuclear contribution   :      1.15079      -2.56926      -0.04765
                        -----------------------------------------
Total Dipole Moment    :      0.52773      -1.25506      -0.01338
                        -----------------------------------------
Magnitude (a.u.)       :      1.36156
Magnitude (Debye)      :      3.46081



--------------------
Rotational spectrum 
--------------------
 
Rotational constants in cm-1:     0.976493     0.428520     0.343462 
Rotational constants in MHz : 29274.528778 12846.701188 10296.727784 

 Dipole components along the rotational axes: 
x,y,z [a.u.] :    -1.254642    -0.528655    -0.015488 
x,y,z [Debye]:    -3.189047    -1.343733    -0.039367 

 

                        *** CIS RELAXED DENSITY ***

------------------------------------------------------------------------------
                       ORCA ELECTRIC PROPERTIES CALCULATION
------------------------------------------------------------------------------

Dipole Moment Calculation                       ... on
Quadrupole Moment Calculation                   ... off
Polarizability Calculation                      ... off
GBWName                                         ... ox_es1_D_orca0008.gbw
Electron density                                ... ox_es1_D_orca0008.cisp
The origin for moment calculation is the CENTER OF MASS  = (-0.537229, -0.004934  0.002870)

-------------
DIPOLE MOMENT
-------------
                                X             Y             Z
Electronic contribution:     -1.20253       1.71289       0.03381
Nuclear contribution   :      1.15079      -2.56926      -0.04765
                        -----------------------------------------
Total Dipole Moment    :     -0.05174      -0.85637      -0.01384
                        -----------------------------------------
Magnitude (a.u.)       :      0.85804
Magnitude (Debye)      :      2.18097



--------------------
Rotational spectrum 
--------------------
 
Rotational constants in cm-1:     0.976493     0.428520     0.343462 
Rotational constants in MHz : 29274.528778 12846.701188 10296.727784 

 Dipole components along the rotational axes: 
x,y,z [a.u.] :    -0.561786    -0.647330    -0.039988 
x,y,z [Debye]:    -1.427946    -1.645382    -0.101642 

 

Timings for individual modules:

Sum of individual times         ...        8.329 sec (=   0.139 min)
GTO integral calculation        ...        0.258 sec (=   0.004 min)   3.1 %
SCF iterations                  ...        1.266 sec (=   0.021 min)  15.2 %
CIS module                      ...        0.780 sec (=   0.013 min)   9.4 %
SCF Gradient evaluation         ...        6.025 sec (=   0.100 min)  72.3 %
                             ****ORCA TERMINATED NORMALLY****
TOTAL RUN TIME: 0 days 0 hours 0 minutes 8 seconds 672 msec
