
                                 *****************
                                 * O   R   C   A *
                                 *****************

                                            #,                                       
                                            ###                                      
                                            ####                                     
                                            #####                                    
                                            ######                                   
                                           ########,                                 
                                     ,,################,,,,,                         
                               ,,#################################,,                 
                          ,,##########################################,,             
                       ,#########################################, ''#####,          
                    ,#############################################,,   '####,        
                  ,##################################################,,,,####,       
                ,###########''''           ''''###############################       
              ,#####''   ,,,,##########,,,,          '''####'''          '####       
            ,##' ,,,,###########################,,,                        '##       
           ' ,,###''''                  '''############,,,                           
         ,,##''                                '''############,,,,        ,,,,,,###''
      ,#''                                            '''#######################'''  
     '                                                          ''''####''''         
             ,#######,   #######,   ,#######,      ##                                
            ,#'     '#,  ##    ##  ,#'     '#,    #''#        ######   ,####,        
            ##       ##  ##   ,#'  ##            #'  '#       #        #'  '#        
            ##       ##  #######   ##           ,######,      #####,   #    #        
            '#,     ,#'  ##    ##  '#,     ,#' ,#      #,         ##   #,  ,#        
             '#######'   ##     ##  '#######'  #'      '#     #####' # '####'        



                  #######################################################
                  #                        -***-                        #
                  #          Department of theory and spectroscopy      #
                  #    Directorship and core code : Frank Neese         #
                  #        Max Planck Institute fuer Kohlenforschung    #
                  #                Kaiser Wilhelm Platz 1               #
                  #                 D-45470 Muelheim/Ruhr               #
                  #                      Germany                        #
                  #                                                     #
                  #                  All rights reserved                #
                  #                        -***-                        #
                  #######################################################


                         Program Version 5.0.2 -  RELEASE  -


 With contributions from (in alphabetic order):
   Daniel Aravena         : Magnetic Suceptibility
   Michael Atanasov       : Ab Initio Ligand Field Theory (pilot matlab implementation)
   Alexander A. Auer      : GIAO ZORA, VPT2 properties, NMR spectrum
   Ute Becker             : Parallelization
   Giovanni Bistoni       : ED, misc. LED, open-shell LED, HFLD
   Martin Brehm           : Molecular dynamics
   Dmytro Bykov           : SCF Hessian
   Vijay G. Chilkuri      : MRCI spin determinant printing, contributions to CSF-ICE
   Dipayan Datta          : RHF DLPNO-CCSD density
   Achintya Kumar Dutta   : EOM-CC, STEOM-CC
   Dmitry Ganyushin       : Spin-Orbit,Spin-Spin,Magnetic field MRCI
   Miquel Garcia          : C-PCM and meta-GGA Hessian, CC/C-PCM, Gaussian charge scheme
   Yang Guo               : DLPNO-NEVPT2, F12-NEVPT2, CIM, IAO-localization
   Andreas Hansen         : Spin unrestricted coupled pair/coupled cluster methods
   Benjamin Helmich-Paris : MC-RPA, TRAH-SCF, COSX integrals
   Lee Huntington         : MR-EOM, pCC
   Robert Izsak           : Overlap fitted RIJCOSX, COSX-SCS-MP3, EOM
   Marcus Kettner         : VPT2
   Christian Kollmar      : KDIIS, OOCD, Brueckner-CCSD(T), CCSD density, CASPT2, CASPT2-K
   Simone Kossmann        : Meta GGA functionals, TD-DFT gradient, OOMP2, MP2 Hessian
   Martin Krupicka        : Initial AUTO-CI
   Lucas Lang             : DCDCAS
   Marvin Lechner         : AUTO-CI (C++ implementation), FIC-MRCC
   Dagmar Lenk            : GEPOL surface, SMD
   Dimitrios Liakos       : Extrapolation schemes; Compound Job, initial MDCI parallelization
   Dimitrios Manganas     : Further ROCIS development; embedding schemes
   Dimitrios Pantazis     : SARC Basis sets
   Anastasios Papadopoulos: AUTO-CI, single reference methods and gradients
   Taras Petrenko         : DFT Hessian,TD-DFT gradient, ASA, ECA, R-Raman, ABS, FL, XAS/XES, NRVS
   Peter Pinski           : DLPNO-MP2, DLPNO-MP2 Gradient
   Christoph Reimann      : Effective Core Potentials
   Marius Retegan         : Local ZFS, SOC
   Christoph Riplinger    : Optimizer, TS searches, QM/MM, DLPNO-CCSD(T), (RO)-DLPNO pert. Triples
   Tobias Risthaus        : Range-separated hybrids, TD-DFT gradient, RPA, STAB
   Michael Roemelt        : Original ROCIS implementation
   Masaaki Saitow         : Open-shell DLPNO-CCSD energy and density
   Barbara Sandhoefer     : DKH picture change effects
   Avijit Sen             : IP-ROCIS
   Kantharuban Sivalingam : CASSCF convergence, NEVPT2, FIC-MRCI
   Bernardo de Souza      : ESD, SOC TD-DFT
   Georgi Stoychev        : AutoAux, RI-MP2 NMR, DLPNO-MP2 response
   Willem Van den Heuvel  : Paramagnetic NMR
   Boris Wezisla          : Elementary symmetry handling
   Frank Wennmohs         : Technical directorship


 We gratefully acknowledge several colleagues who have allowed us to
 interface, adapt or use parts of their codes:
   Stefan Grimme, W. Hujo, H. Kruse, P. Pracht,  : VdW corrections, initial TS optimization,
                  C. Bannwarth, S. Ehlert          DFT functionals, gCP, sTDA/sTD-DF
   Ed Valeev, F. Pavosevic, A. Kumar             : LibInt (2-el integral package), F12 methods
   Garnet Chan, S. Sharma, J. Yang, R. Olivares  : DMRG
   Ulf Ekstrom                                   : XCFun DFT Library
   Mihaly Kallay                                 : mrcc  (arbitrary order and MRCC methods)
   Jiri Pittner, Ondrej Demel                    : Mk-CCSD
   Frank Weinhold                                : gennbo (NPA and NBO analysis)
   Christopher J. Cramer and Donald G. Truhlar   : smd solvation model
   Lars Goerigk                                  : TD-DFT with DH, B97 family of functionals
   V. Asgeirsson, H. Jonsson                     : NEB implementation
   FAccTs GmbH                                   : IRC, NEB, NEB-TS, DLPNO-Multilevel, CI-OPT
                                                   MM, QMMM, 2- and 3-layer-ONIOM, Crystal-QMMM,
                                                   LR-CPCM, SF, NACMEs, symmetry and pop. for TD-DFT,
                                                   nearIR, NL-DFT gradient (VV10), updates on ESD,
                                                   ML-optimized integration grids
   S Lehtola, MJT Oliveira, MAL Marques          : LibXC Library
   Liviu Ungur et al                             : ANISO software


 Your calculation uses the libint2 library for the computation of 2-el integrals
 For citations please refer to: http://libint.valeyev.net

 Your ORCA version has been built with support for libXC version: 5.1.0
 For citations please refer to: https://tddft.org/programs/libxc/

 This ORCA versions uses:
   CBLAS   interface :  Fast vector & matrix operations
   LAPACKE interface :  Fast linear algebra routines
   SCALAPACK package :  Parallel linear algebra routines
   Shared memory     :  Shared parallel matrices
   BLAS/LAPACK       :  OpenBLAS 0.3.15  USE64BITINT DYNAMIC_ARCH NO_AFFINITY SkylakeX SINGLE_THREADED
        Core in use  :  SkylakeX
   Copyright (c) 2011-2014, The OpenBLAS Project


Your calculation utilizes the atom-pairwise dispersion correction
with the Becke-Johnson damping scheme (D3BJ)
Cite in your paper:
S.Grimme, S.Ehrlich, L.Goerigk, J Comput Chem, (2011), 32, 1456–1465 
S.Grimme, J.Antony, S.Ehrlich and H.Krieg, J.Chem.Phys., 132, (2010), 154104 
   

================================================================================

----- Orbital basis set information -----
Your calculation utilizes the basis: def2-TZVP
   F. Weigend and R. Ahlrichs, Phys. Chem. Chem. Phys. 7, 3297 (2005).

----- AuxJ basis set information -----
Your calculation utilizes the auxiliary basis: def2/J
   F. Weigend, Phys. Chem. Chem. Phys. 8, 1057 (2006).

================================================================================
                                        WARNINGS
                       Please study these warnings very carefully!
================================================================================

INFO   : Checking CIS options ...

WARNING: CIS/ROCIS methods need fully converged wavefunctions
  ===> : Setting SCFConvForced true
         You can overwrite this default with %scf ConvForced false 


INFO   : the flag for use of the SHARK integral package has been found!

================================================================================
                                       INPUT FILE
================================================================================
NAME = ox_es1_A_orca0041.inp
|  1> ! engrad PBE0 D3BJ def2-TZVP  
|  2> %pal nprocs 8 end
|  3> %maxcore 3000
|  4> 
|  5> %tddft
|  6>   nroots 1
|  7>   tda true
|  8>   Iroot 1
|  9>   end 
| 10> *xyz 0 1 
| 11> O   -0.0757871557498616 0.8442995700665031 0.08979399365477608
| 12> C   -0.7595290245242193 -0.4664055679967992 0.014293269536245249
| 13> C   0.7456123794993512 -0.41409327636635845 0.10051022693831749
| 14> H   -1.2726702913747023 -0.7081856722269226 0.8510102585992736
| 15> H   -1.3003692719970958 -0.66992725864369 -0.8302483268241106
| 16> H   1.2379422550481913 -0.6570814624180551 -0.9207973648036376
| 17> H   1.3232425336724043 -0.5419241887063189 0.8934327313539839
| 18> *
| 19> 
| 20>                          ****END OF INPUT****
================================================================================

                     *******************************
                     * Energy+Gradient Calculation *
                     *******************************

---------------------------------
CARTESIAN COORDINATES (ANGSTROEM)
---------------------------------
  O     -0.075787    0.844300    0.089794
  C     -0.759529   -0.466406    0.014293
  C      0.745612   -0.414093    0.100510
  H     -1.272670   -0.708186    0.851010
  H     -1.300369   -0.669927   -0.830248
  H      1.237942   -0.657081   -0.920797
  H      1.323243   -0.541924    0.893433

----------------------------
CARTESIAN COORDINATES (A.U.)
----------------------------
  NO LB      ZA    FRAG     MASS         X           Y           Z
   0 O     8.0000    0    15.999   -0.143217    1.595495    0.169686
   1 C     6.0000    0    12.011   -1.435302   -0.881379    0.027010
   2 C     6.0000    0    12.011    1.409003   -0.782523    0.189937
   3 H     1.0000    0     1.008   -2.404998   -1.338277    1.608176
   4 H     1.0000    0     1.008   -2.457342   -1.265979   -1.568942
   5 H     1.0000    0     1.008    2.339372   -1.241704   -1.740055
   6 H     1.0000    0     1.008    2.500566   -1.024088    1.688343

--------------------------------
INTERNAL COORDINATES (ANGSTROEM)
--------------------------------
 O      0   0   0     0.000000000000     0.00000000     0.00000000
 C      1   0   0     1.480253782769     0.00000000     0.00000000
 C      1   2   0     1.502785610164    60.74977312     0.00000000
 H      2   1   3     1.010874323709   113.83099858   109.67403683
 H      2   1   3     1.023318015005   117.53720946   242.75892764
 H      3   1   2     1.159526266140   113.65791229   101.67478933
 H      3   1   2     0.989304520948   115.66140101   238.76867992

---------------------------
INTERNAL COORDINATES (A.U.)
---------------------------
 O      0   0   0     0.000000000000     0.00000000     0.00000000
 C      1   0   0     2.797274258135     0.00000000     0.00000000
 C      1   2   0     2.839853241208    60.74977312     0.00000000
 H      2   1   3     1.910275627622   113.83099858   109.67403683
 H      2   1   3     1.933790796267   117.53720946   242.75892764
 H      3   1   2     2.191187088093   113.65791229   101.67478933
 H      3   1   2     1.869514607642   115.66140101   238.76867992

---------------------
BASIS SET INFORMATION
---------------------
There are 3 groups of distinct atoms

 Group   1 Type O   : 11s6p2d1f contracted to 5s3p2d1f pattern {62111/411/11/1}
 Group   2 Type C   : 11s6p2d1f contracted to 5s3p2d1f pattern {62111/411/11/1}
 Group   3 Type H   : 5s1p contracted to 3s1p pattern {311/1}

Atom   0O    basis set group =>   1
Atom   1C    basis set group =>   2
Atom   2C    basis set group =>   2
Atom   3H    basis set group =>   3
Atom   4H    basis set group =>   3
Atom   5H    basis set group =>   3
Atom   6H    basis set group =>   3
---------------------------------
AUXILIARY/J BASIS SET INFORMATION
---------------------------------
There are 3 groups of distinct atoms

 Group   1 Type O   : 12s5p4d2f1g contracted to 6s4p3d1f1g pattern {711111/2111/211/2/1}
 Group   2 Type C   : 12s5p4d2f1g contracted to 6s4p3d1f1g pattern {711111/2111/211/2/1}
 Group   3 Type H   : 5s2p1d contracted to 3s1p1d pattern {311/2/1}

Atom   0O    basis set group =>   1
Atom   1C    basis set group =>   2
Atom   2C    basis set group =>   2
Atom   3H    basis set group =>   3
Atom   4H    basis set group =>   3
Atom   5H    basis set group =>   3
Atom   6H    basis set group =>   3

Checking for AutoStart:
The File: ox_es1_A_orca0041.gbw exists
Trying to determine its content:
     ... Fine, the file contains calculation information
     ... Fine, the calculation information was read
     ... Fine, the file contains a basis set
     ... Fine, the basis set was read
     ... Fine, the file contains a geometry
     ... Fine, the geometry was read
     ... Fine, the file contains a set of orbitals
     ... Fine, the orbitals can be read
     => possible old guess file was deleted
     => GBW file was renamed to GES file
     => GES file is set as startup file
     => Guess is set to MORead
     ... now leaving AutoStart



           ************************************************************
           *        Program running with 8 parallel MPI-processes     *
           *              working on a common directory               *
           ************************************************************
------------------------------------------------------------------------------
                           ORCA GTO INTEGRAL CALCULATION
                           -- RI-GTO INTEGRALS CHOSEN --
------------------------------------------------------------------------------
------------------------------------------------------------------------------
                   ___                                                        
                  /   \      - P O W E R E D   B Y -                         
                 /     \                                                     
                 |  |  |   _    _      __       _____    __    __             
                 |  |  |  | |  | |    /  \     |  _  \  |  |  /  |          
                  \  \/   | |  | |   /    \    | | | |  |  | /  /          
                 / \  \   | |__| |  /  /\  \   | |_| |  |  |/  /          
                |  |  |   |  __  | /  /__\  \  |    /   |      \           
                |  |  |   | |  | | |   __   |  |    \   |  |\   \          
                \     /   | |  | | |  |  |  |  | |\  \  |  | \   \       
                 \___/    |_|  |_| |__|  |__|  |_| \__\ |__|  \__/        
                                                                              
                      - O R C A' S   B I G   F R I E N D -                    
                                      &                                       
                       - I N T E G R A L  F E E D E R -                       
                                                                              
 v1 FN, 2020, v2 2021                                                         
------------------------------------------------------------------------------


Reading SHARK input file ox_es1_A_orca0041.SHARKINP.tmp ... ok
----------------------
SHARK INTEGRAL PACKAGE
----------------------

Number of atoms                             ...      7
Number of basis functions                   ...    117
Number of shells                            ...     49
Maximum angular momentum                    ...      3
Integral batch strategy                     ... SHARK/LIBINT Hybrid
RI-J (if used) integral strategy            ... SPLIT-RIJ (Revised 2003 algorithm where possible)
Printlevel                                  ...      1
Contraction scheme used                     ... SEGMENTED contraction
Coulomb Range Separation                    ... NOT USED
Exchange Range Separation                   ... NOT USED
Finite Nucleus Model                        ... NOT USED
Auxiliary Coulomb fitting basis             ... AVAILABLE
   # of basis functions in Aux-J            ...    191
   # of shells in Aux-J                     ...     65
   Maximum angular momentum in Aux-J        ...      4
Auxiliary J/K fitting basis                 ... NOT available
Auxiliary Correlation fitting basis         ... NOT available
Auxiliary 'external' fitting basis          ... NOT available
Integral threshold                          ...     2.500000e-11
Primitive cut-off                           ...     2.500000e-12
Primitive pair pre-selection threshold      ...     2.500000e-12

Calculating pre-screening integrals         ... done (  0.0 sec) Dimension = 49
Organizing shell pair data                  ... done (  0.0 sec)
Shell pair information
Total number of shell pairs                 ...      1225
Shell pairs after pre-screening             ...      1220
Total number of primitive shell pairs       ...      3648
Primitive shell pairs kept                  ...      3145
          la=0 lb=0:    373 shell pairs
          la=1 lb=0:    351 shell pairs
          la=1 lb=1:     91 shell pairs
          la=2 lb=0:    162 shell pairs
          la=2 lb=1:     78 shell pairs
          la=2 lb=2:     21 shell pairs
          la=3 lb=0:     81 shell pairs
          la=3 lb=1:     39 shell pairs
          la=3 lb=2:     18 shell pairs
          la=3 lb=3:      6 shell pairs

Calculating one electron integrals          ... done (  0.0 sec)
Calculating RI/J V-Matrix + Cholesky decomp.... done (  0.0 sec)
Calculating Nuclear repulsion               ... done (  0.0 sec) ENN=     73.803630708057 Eh

SHARK setup successfully completed in   0.1 seconds

Maximum memory used throughout the entire GTOINT-calculation: 14.9 MB


           ************************************************************
           *        Program running with 8 parallel MPI-processes     *
           *              working on a common directory               *
           ************************************************************
-------------------------------------------------------------------------------
                                 ORCA SCF
-------------------------------------------------------------------------------

------------
SCF SETTINGS
------------
Hamiltonian:
 Density Functional     Method          .... DFT(GTOs)
 Exchange Functional    Exchange        .... PBE
   PBE kappa parameter   XKappa         ....  0.804000
   PBE mue parameter    XMuePBE         ....  0.219520
 Correlation Functional Correlation     .... PBE
   PBE beta parameter  CBetaPBE         ....  0.066725
 LDA part of GGA corr.  LDAOpt          .... PW91-LDA
 Gradients option       PostSCFGGA      .... off
 Hybrid DFT is turned on
   Fraction HF Exchange ScalHFX         ....  0.250000
   Scaling of DF-GGA-X  ScalDFX         ....  0.750000
   Scaling of DF-GGA-C  ScalDFC         ....  1.000000
   Scaling of DF-LDA-C  ScalLDAC        ....  1.000000
   Perturbative correction              ....  0.000000
   Density functional embedding theory  .... OFF
   NL short-range parameter             ....  6.900000
 RI-approximation to the Coulomb term is turned on
   Number of AuxJ basis functions       .... 191
   RIJ-COSX (HFX calculated with COS-X)).... on


General Settings:
 Integral files         IntName         .... ox_es1_A_orca0041
 Hartree-Fock type      HFTyp           .... RHF
 Total Charge           Charge          ....    0
 Multiplicity           Mult            ....    1
 Number of Electrons    NEL             ....   24
 Basis Dimension        Dim             ....  117
 Nuclear Repulsion      ENuc            ....     73.8036307081 Eh

Convergence Acceleration:
 DIIS                   CNVDIIS         .... on
   Start iteration      DIISMaxIt       ....    12
   Startup error        DIISStart       ....  0.200000
   # of expansion vecs  DIISMaxEq       ....     5
   Bias factor          DIISBfac        ....   1.050
   Max. coefficient     DIISMaxC        ....  10.000
 Trust-Rad. Augm. Hess. CNVTRAH         .... auto
   Auto Start mean grad. ratio tolernc. ....  1.125000
   Auto Start start iteration           ....     1
   Auto Start num. interpolation iter.  ....    10
   Max. Number of Micro iterations      ....    16
   Max. Number of Macro iterations      .... Maxiter - #DIIS iter
   Number of Davidson start vectors     ....     2
   Converg. threshold I  (grad. norm)   ....   1.000e-05
   Converg. threshold II (energy diff.) ....   1.000e-08
   Grad. Scal. Fac. for Micro threshold ....   0.100
   Minimum threshold for Micro iter.    ....   0.010
   NR start threshold (gradient norm)   ....   0.001
   Initial trust radius                 ....   0.400
   Minimum AH scaling param. (alpha)    ....   1.000
   Maximum AH scaling param. (alpha)    .... 1000.000
   Orbital update algorithm             .... Taylor
   White noise on init. David. guess    .... on
   Maximum white noise                  ....   0.010
   Quad. conv. algorithm                .... NR
 SOSCF                  CNVSOSCF        .... on
   Start iteration      SOSCFMaxIt      ....   150
   Startup grad/error   SOSCFStart      ....  0.003300
 Level Shifting         CNVShift        .... on
   Level shift para.    LevelShift      ....    0.2500
   Turn off err/grad.   ShiftErr        ....    0.0010
 Zerner damping         CNVZerner       .... off
 Static damping         CNVDamp         .... on
   Fraction old density DampFac         ....    0.7000
   Max. Damping (<1)    DampMax         ....    0.9800
   Min. Damping (>=0)   DampMin         ....    0.0000
   Turn off err/grad.   DampErr         ....    0.1000
 Fernandez-Rico         CNVRico         .... off

SCF Procedure:
 Maximum # iterations   MaxIter         ....   125
 SCF integral mode      SCFMode         .... Direct
   Integral package                     .... SHARK and LIBINT hybrid scheme
 Reset frequency        DirectResetFreq ....    20
 Integral Threshold     Thresh          ....  2.500e-11 Eh
 Primitive CutOff       TCut            ....  2.500e-12 Eh

Convergence Tolerance:
 Convergence Check Mode ConvCheckMode   .... Total+1el-Energy
 Convergence forced     ConvForced      .... 1
 Energy Change          TolE            ....  1.000e-08 Eh
 1-El. energy change                    ....  1.000e-05 Eh
 Orbital Gradient       TolG            ....  1.000e-05
 Orbital Rotation angle TolX            ....  1.000e-05
 DIIS Error             TolErr          ....  5.000e-07


Diagonalization of the overlap matrix:
Smallest eigenvalue                        ... 5.364e-04
Time for diagonalization                   ...    0.001 sec
Threshold for overlap eigenvalues          ... 1.000e-08
Number of eigenvalues below threshold      ... 0
Time for construction of square roots      ...    0.002 sec
Total time needed                          ...    0.003 sec

---------------------
INITIAL GUESS: MOREAD
---------------------
Guess MOs are being read from file: ox_es1_A_orca0041.ges
Input Geometry matches current geometry (good)
Input basis set matches current basis set (good)
MOs were renormalized
MOs were reorthogonalized (Cholesky)
                      ------------------
                      INITIAL GUESS DONE (   0.0 sec)
                      ------------------
-------------------
DFT GRID GENERATION
-------------------

General Integration Accuracy     IntAcc      ... 4.388
Radial Grid Type                 RadialGrid  ... OptM3 with GC (2021)
Angular Grid (max. ang.)         AngularGrid ... 4 (Lebedev-302)
Angular grid pruning method      GridPruning ... 4 (adaptive)
Weight generation scheme         WeightScheme... Becke
Basis function cutoff            BFCut       ... 1.0000e-11
Integration weight cutoff        WCut        ... 1.0000e-14
Angular grids for H and He will be reduced by one unit
Partially contracted basis set               ... off
Rotationally invariant grid construction     ... off

Total number of grid points                  ...    31301
Total number of batches                      ...      493
Average number of points per batch           ...       63
Average number of grid points per atom       ...     4472
Time for grid setup =    0.121 sec

--------------------
COSX GRID GENERATION
--------------------

GRIDX 1
-------
General Integration Accuracy     IntAcc      ... 3.816
Radial Grid Type                 RadialGrid  ... OptM3 with GC (2021)
Angular Grid (max. ang.)         AngularGrid ... 1 (Lebedev-50)
Angular grid pruning method      GridPruning ... 4 (adaptive)
Weight generation scheme         WeightScheme... Becke
Basis function cutoff            BFCut       ... 1.0000e-11
Integration weight cutoff        WCut        ... 1.0000e-14
Angular grids for H and He will be reduced by one unit
Partially contracted basis set               ... on
Rotationally invariant grid construction     ... off

Total number of grid points                  ...     4036
Total number of batches                      ...       68
Average number of points per batch           ...       59
Average number of grid points per atom       ...      577
UseSFitting                                  ... on

GRIDX 2
-------
General Integration Accuracy     IntAcc      ... 4.020
Radial Grid Type                 RadialGrid  ... OptM3 with GC (2021)
Angular Grid (max. ang.)         AngularGrid ... 2 (Lebedev-110)
Angular grid pruning method      GridPruning ... 4 (adaptive)
Weight generation scheme         WeightScheme... Becke
Basis function cutoff            BFCut       ... 1.0000e-11
Integration weight cutoff        WCut        ... 1.0000e-14
Angular grids for H and He will be reduced by one unit
Partially contracted basis set               ... on
Rotationally invariant grid construction     ... off

Total number of grid points                  ...     8718
Total number of batches                      ...      140
Average number of points per batch           ...       62
Average number of grid points per atom       ...     1245
UseSFitting                                  ... on

GRIDX 3
-------
General Integration Accuracy     IntAcc      ... 4.338
Radial Grid Type                 RadialGrid  ... OptM3 with GC (2021)
Angular Grid (max. ang.)         AngularGrid ... 3 (Lebedev-194)
Angular grid pruning method      GridPruning ... 4 (adaptive)
Weight generation scheme         WeightScheme... Becke
Basis function cutoff            BFCut       ... 1.0000e-11
Integration weight cutoff        WCut        ... 1.0000e-14
Angular grids for H and He will be reduced by one unit
Partially contracted basis set               ... on
Rotationally invariant grid construction     ... off

Total number of grid points                  ...    19249
Total number of batches                      ...      305
Average number of points per batch           ...       63
Average number of grid points per atom       ...     2750
UseSFitting                                  ... on

Time for X-Grid setup             =    0.080 sec

--------------
SCF ITERATIONS
--------------
ITER       Energy         Delta-E        Max-DP      RMS-DP      [F,P]     Damp
               ***  Starting incremental Fock matrix formation  ***
                      *** Initiating the SOSCF procedure ***
                      *** Re-Reading the Fockian *** 
                      *** Removing any level shift *** 
ITER      Energy       Delta-E        Grad      Rot      Max-DP    RMS-DP
  0   -153.64649304 -153.6464930450  0.000001  0.000001  0.000002  0.000000
               *** Restarting incremental Fock matrix formation ***
                  ***Gradient check signals convergence***
              ***Rediagonalizing the Fockian in SOSCF/NRSCF***

               *****************************************************
               *                     SUCCESS                       *
               *           SCF CONVERGED AFTER   1 CYCLES          *
               *****************************************************

Old exchange energy                            =     -4.995818076 Eh
New exchange energy                            =     -4.995815179 Eh
Exchange energy change after final integration =      0.000002897 Eh
Total energy after final integration           =   -153.646490148 Eh
Final COS-X integration done in                =     0.314 sec

----------------
TOTAL SCF ENERGY
----------------

Total Energy       :         -153.64649015 Eh           -4180.93355 eV

Components:
Nuclear Repulsion  :           73.80363071 Eh            2008.29889 eV
Electronic Energy  :         -227.45012086 Eh           -6189.23244 eV
One Electron Energy:         -354.31849533 Eh           -9641.49642 eV
Two Electron Energy:          126.86837447 Eh            3452.26398 eV
Max COSX asymmetry :            0.00000236 Eh               0.00006 eV

Virial components:
Potential Energy   :         -306.64278916 Eh           -8344.17450 eV
Kinetic Energy     :          152.99629901 Eh            4163.24095 eV
Virial Ratio       :            2.00424972


DFT components:
N(Alpha)           :       12.000003412480 electrons
N(Beta)            :       12.000003412480 electrons
N(Total)           :       24.000006824960 electrons
E(X)               :      -14.962531362976 Eh       
E(C)               :       -0.787054245583 Eh       
E(XC)              :      -15.749585608559 Eh       
DFET-embed. en.    :        0.000000000000 Eh       

---------------
SCF CONVERGENCE
---------------

  Last Energy change         ...   -1.6286e-11  Tolerance :   1.0000e-08
  Last MAX-Density change    ...    4.4409e-16  Tolerance :   1.0000e-07
  Last RMS-Density change    ...    1.6598e-17  Tolerance :   5.0000e-09
  Last Orbital Gradient      ...    4.9917e-07  Tolerance :   1.0000e-05
  Last Orbital Rotation      ...    1.1962e-06  Tolerance :   1.0000e-05

             **** THE GBW FILE WAS UPDATED (ox_es1_A_orca0041.gbw) ****
             **** DENSITY ox_es1_A_orca0041.scfp WAS UPDATED ****
             **** ENERGY FILE WAS UPDATED (ox_es1_A_orca0041.en.tmp) ****
             **** THE GBW FILE WAS UPDATED (ox_es1_A_orca0041.gbw) ****
             **** DENSITY ox_es1_A_orca0041.scfp WAS UPDATED ****
----------------
ORBITAL ENERGIES
----------------

  NO   OCC          E(Eh)            E(eV) 
   0   2.0000     -19.221922      -523.0551 
   1   2.0000     -10.281026      -279.7609 
   2   2.0000     -10.268052      -279.4079 
   3   2.0000      -1.064874       -28.9767 
   4   2.0000      -0.712076       -19.3766 
   5   2.0000      -0.670047       -18.2329 
   6   2.0000      -0.525353       -14.2956 
   7   2.0000      -0.499104       -13.5813 
   8   2.0000      -0.408336       -11.1114 
   9   2.0000      -0.398899       -10.8546 
  10   2.0000      -0.330043        -8.9809 
  11   2.0000      -0.288548        -7.8518 
  12   0.0000       0.059388         1.6160 
  13   0.0000       0.068893         1.8747 
  14   0.0000       0.072469         1.9720 
  15   0.0000       0.096949         2.6381 
  16   0.0000       0.108831         2.9614 
  17   0.0000       0.153515         4.1773 
  18   0.0000       0.195032         5.3071 
  19   0.0000       0.211740         5.7617 
  20   0.0000       0.265458         7.2235 
  21   0.0000       0.266952         7.2641 
  22   0.0000       0.283553         7.7159 
  23   0.0000       0.302214         8.2237 
  24   0.0000       0.387293        10.5388 
  25   0.0000       0.397963        10.8291 
  26   0.0000       0.409247        11.1362 
  27   0.0000       0.420813        11.4509 
  28   0.0000       0.462220        12.5776 
  29   0.0000       0.474606        12.9147 
  30   0.0000       0.517735        14.0883 
  31   0.0000       0.527031        14.3412 
  32   0.0000       0.552992        15.0477 
  33   0.0000       0.690177        18.7807 
  34   0.0000       0.710337        19.3292 
  35   0.0000       0.723483        19.6870 
  36   0.0000       0.814710        22.1694 
  37   0.0000       0.843780        22.9604 
  38   0.0000       0.897751        24.4290 
  39   0.0000       0.933815        25.4104 
  40   0.0000       0.998086        27.1593 
  41   0.0000       1.015718        27.6391 
  42   0.0000       1.072508        29.1844 
  43   0.0000       1.094238        29.7757 
  44   0.0000       1.159817        31.5602 
  45   0.0000       1.341558        36.5056 
  46   0.0000       1.464977        39.8641 
  47   0.0000       1.476704        40.1832 
  48   0.0000       1.499417        40.8012 
  49   0.0000       1.513744        41.1911 
  50   0.0000       1.584271        43.1102 
  51   0.0000       1.622467        44.1496 
  52   0.0000       1.670758        45.4636 
  53   0.0000       1.724670        46.9306 
  54   0.0000       1.784963        48.5713 
  55   0.0000       1.832239        49.8577 
  56   0.0000       1.865147        50.7532 
  57   0.0000       1.885429        51.3051 
  58   0.0000       1.895110        51.5686 
  59   0.0000       1.961016        53.3620 
  60   0.0000       2.159092        58.7519 
  61   0.0000       2.164178        58.8903 
  62   0.0000       2.195968        59.7553 
  63   0.0000       2.218616        60.3716 
  64   0.0000       2.256717        61.4084 
  65   0.0000       2.387374        64.9637 
  66   0.0000       2.450442        66.6799 
  67   0.0000       2.524627        68.6986 
  68   0.0000       2.544110        69.2288 
  69   0.0000       2.600490        70.7629 
  70   0.0000       2.644125        71.9503 
  71   0.0000       2.665525        72.5326 
  72   0.0000       2.700899        73.4952 
  73   0.0000       2.716935        73.9316 
  74   0.0000       2.733700        74.3878 
  75   0.0000       2.812878        76.5423 
  76   0.0000       2.890639        78.6583 
  77   0.0000       2.937270        79.9272 
  78   0.0000       2.983014        81.1719 
  79   0.0000       2.996781        81.5466 
  80   0.0000       3.029579        82.4390 
  81   0.0000       3.101707        84.4017 
  82   0.0000       3.166463        86.1638 
  83   0.0000       3.197618        87.0116 
  84   0.0000       3.280177        89.2581 
  85   0.0000       3.332249        90.6751 
  86   0.0000       3.350909        91.1829 
  87   0.0000       3.397313        92.4456 
  88   0.0000       3.549110        96.5762 
  89   0.0000       3.579784        97.4109 
  90   0.0000       3.669334        99.8476 
  91   0.0000       3.683821       100.2419 
  92   0.0000       3.856885       104.9512 
  93   0.0000       4.000948       108.8713 
  94   0.0000       4.115694       111.9937 
  95   0.0000       4.221473       114.8721 
  96   0.0000       4.248863       115.6174 
  97   0.0000       4.354751       118.4988 
  98   0.0000       4.469324       121.6165 
  99   0.0000       4.612738       125.5190 
 100   0.0000       4.769202       129.7766 
 101   0.0000       4.818534       131.1190 
 102   0.0000       5.270440       143.4160 
 103   0.0000       5.403866       147.0467 
 104   0.0000       5.617069       152.8482 
 105   0.0000       5.677377       154.4893 
 106   0.0000       5.700673       155.1232 
 107   0.0000       5.804966       157.9612 
 108   0.0000       5.964492       162.3021 
 109   0.0000       6.563971       178.6147 
 110   0.0000       6.583616       179.1493 
 111   0.0000       6.751817       183.7263 
 112   0.0000       6.958270       189.3441 
 113   0.0000       7.184300       195.4948 
 114   0.0000      22.291335       606.5781 
 115   0.0000      22.497384       612.1849 
 116   0.0000      43.803349      1191.9497 

                    ********************************
                    * MULLIKEN POPULATION ANALYSIS *
                    ********************************

-----------------------
MULLIKEN ATOMIC CHARGES
-----------------------
   0 O :   -0.324674
   1 C :   -0.073155
   2 C :   -0.087434
   3 H :    0.114077
   4 H :    0.124691
   5 H :    0.109085
   6 H :    0.137411
Sum of atomic charges:   -0.0000000

--------------------------------
MULLIKEN REDUCED ORBITAL CHARGES
--------------------------------
  0 O s       :     3.871017  s :     3.871017
      pz      :     1.867359  p :     4.415390
      px      :     1.323357
      py      :     1.224675
      dz2     :     0.005257  d :     0.036473
      dxz     :     0.002031
      dyz     :     0.005450
      dx2y2   :     0.010390
      dxy     :     0.013345
      f0      :     0.000202  f :     0.001794
      f+1     :     0.000168
      f-1     :     0.000417
      f+2     :     0.000068
      f-2     :     0.000155
      f+3     :     0.000342
      f-3     :     0.000442
  1 C s       :     3.215152  s :     3.215152
      pz      :     1.065337  p :     2.743521
      px      :     0.910953
      py      :     0.767230
      dz2     :     0.005658  d :     0.103984
      dxz     :     0.022525
      dyz     :     0.028666
      dx2y2   :     0.026928
      dxy     :     0.020208
      f0      :     0.001253  f :     0.010498
      f+1     :     0.001321
      f-1     :     0.000658
      f+2     :     0.001344
      f-2     :     0.001323
      f+3     :     0.002018
      f-3     :     0.002582
  2 C s       :     3.234181  s :     3.234181
      pz      :     1.047966  p :     2.741674
      px      :     0.903212
      py      :     0.790496
      dz2     :     0.007035  d :     0.101267
      dxz     :     0.024595
      dyz     :     0.024970
      dx2y2   :     0.025645
      dxy     :     0.019023
      f0      :     0.001337  f :     0.010312
      f+1     :     0.001399
      f-1     :     0.000489
      f+2     :     0.001128
      f-2     :     0.001436
      f+3     :     0.002053
      f-3     :     0.002470
  3 H s       :     0.862395  s :     0.862395
      pz      :     0.010863  p :     0.023528
      px      :     0.007557
      py      :     0.005108
  4 H s       :     0.852366  s :     0.852366
      pz      :     0.010863  p :     0.022943
      px      :     0.007643
      py      :     0.004436
  5 H s       :     0.871997  s :     0.871997
      pz      :     0.010586  p :     0.018918
      px      :     0.004960
      py      :     0.003372
  6 H s       :     0.838578  s :     0.838578
      pz      :     0.010618  p :     0.024011
      px      :     0.008464
      py      :     0.004930


                     *******************************
                     * LOEWDIN POPULATION ANALYSIS *
                     *******************************

----------------------
LOEWDIN ATOMIC CHARGES
----------------------
   0 O :    0.053081
   1 C :   -0.240951
   2 C :   -0.227898
   3 H :    0.096244
   4 H :    0.100315
   5 H :    0.133350
   6 H :    0.085859

-------------------------------
LOEWDIN REDUCED ORBITAL CHARGES
-------------------------------
  0 O s       :     3.449199  s :     3.449199
      pz      :     1.768354  p :     4.416626
      px      :     1.315767
      py      :     1.332504
      dz2     :     0.010807  d :     0.076145
      dxz     :     0.005955
      dyz     :     0.011384
      dx2y2   :     0.025847
      dxy     :     0.022151
      f0      :     0.000441  f :     0.004950
      f+1     :     0.000206
      f-1     :     0.000783
      f+2     :     0.000142
      f-2     :     0.000680
      f+3     :     0.000996
      f-3     :     0.001701
  1 C s       :     2.810456  s :     2.810456
      pz      :     1.084450  p :     2.923912
      px      :     1.024752
      py      :     0.814711
      dz2     :     0.049841  d :     0.444127
      dxz     :     0.119229
      dyz     :     0.080327
      dx2y2   :     0.103216
      dxy     :     0.091514
      f0      :     0.007250  f :     0.062456
      f+1     :     0.005658
      f-1     :     0.005757
      f+2     :     0.008304
      f-2     :     0.005335
      f+3     :     0.013150
      f-3     :     0.017003
  2 C s       :     2.837830  s :     2.837830
      pz      :     1.067259  p :     2.912274
      px      :     1.019250
      py      :     0.825765
      dz2     :     0.050866  d :     0.419315
      dxz     :     0.120166
      dyz     :     0.065836
      dx2y2   :     0.094458
      dxy     :     0.087989
      f0      :     0.007411  f :     0.058479
      f+1     :     0.005383
      f-1     :     0.004807
      f+2     :     0.006560
      f-2     :     0.005663
      f+3     :     0.013594
      f-3     :     0.015062
  3 H s       :     0.828849  s :     0.828849
      pz      :     0.036010  p :     0.074907
      px      :     0.022437
      py      :     0.016460
  4 H s       :     0.826995  s :     0.826995
      pz      :     0.035548  p :     0.072689
      px      :     0.022547
      py      :     0.014594
  5 H s       :     0.815306  s :     0.815306
      pz      :     0.029511  p :     0.051344
      px      :     0.012534
      py      :     0.009299
  6 H s       :     0.833560  s :     0.833560
      pz      :     0.037459  p :     0.080582
      px      :     0.026283
      py      :     0.016840


                      *****************************
                      * MAYER POPULATION ANALYSIS *
                      *****************************

  NA   - Mulliken gross atomic population
  ZA   - Total nuclear charge
  QA   - Mulliken gross atomic charge
  VA   - Mayer's total valence
  BVA  - Mayer's bonded valence
  FA   - Mayer's free valence

  ATOM       NA         ZA         QA         VA         BVA        FA
  0 O      8.3247     8.0000    -0.3247     1.9802     1.9802    -0.0000
  1 C      6.0732     6.0000    -0.0732     3.9827     3.9827     0.0000
  2 C      6.0874     6.0000    -0.0874     3.9596     3.9596    -0.0000
  3 H      0.8859     1.0000     0.1141     0.9590     0.9590    -0.0000
  4 H      0.8753     1.0000     0.1247     0.9583     0.9583    -0.0000
  5 H      0.8909     1.0000     0.1091     0.9619     0.9619     0.0000
  6 H      0.8626     1.0000     0.1374     0.9568     0.9568    -0.0000

  Mayer bond orders larger than 0.100000
B(  0-O ,  1-C ) :   0.9859 B(  0-O ,  2-C ) :   0.9817 B(  1-C ,  2-C ) :   1.0613 
B(  1-C ,  3-H ) :   0.9659 B(  1-C ,  4-H ) :   0.9582 B(  2-C ,  5-H ) :   0.9507 
B(  2-C ,  6-H ) :   0.9570 

-------
TIMINGS
-------

Total SCF time: 0 days 0 hours 0 min 1 sec 

Total time                  ....       1.167 sec
Sum of individual times     ....       1.051 sec  ( 90.1%)

Fock matrix formation       ....       0.831 sec  ( 71.2%)
  Split-RI-J                ....       0.130 sec  ( 15.7% of F)
  Chain of spheres X        ....       0.623 sec  ( 74.9% of F)
  XC integration            ....       0.076 sec  (  9.1% of F)
    Basis function eval.    ....       0.021 sec  ( 28.2% of XC)
    Density eval.           ....       0.016 sec  ( 21.7% of XC)
    XC-Functional eval.     ....       0.004 sec  (  5.9% of XC)
    XC-Potential eval.      ....       0.025 sec  ( 33.0% of XC)
Diagonalization             ....       0.003 sec  (  0.2%)
Density matrix formation    ....       0.000 sec  (  0.0%)
Population analysis         ....       0.004 sec  (  0.3%)
Initial guess               ....       0.008 sec  (  0.7%)
Orbital Transformation      ....       0.000 sec  (  0.0%)
Orbital Orthonormalization  ....       0.001 sec  (  0.1%)
DIIS solution               ....       0.002 sec  (  0.1%)
SOSCF solution              ....       0.003 sec  (  0.2%)
Grid generation             ....       0.201 sec  ( 17.2%)

Maximum memory used throughout the entire SCF-calculation: 61.1 MB


           ************************************************************
           *        Program running with 8 parallel MPI-processes     *
           *              working on a common directory               *
           ************************************************************
------------------------------------------------------------------------------
                        ORCA TD-DFT/TDA CALCULATION
------------------------------------------------------------------------------

Input orbitals are from        ... ox_es1_A_orca0041.gbw
CI-vector output               ... ox_es1_A_orca0041.cis
Tamm-Dancoff approximation     ... operative
CIS-Integral strategy          ... AO-integrals
Integral handling              ... AO integral Direct
Max. core memory used          ... 3000 MB
Reference state                ... RHF
Generation of triplets         ... off
Follow IRoot                   ... off
Number of operators            ... 1
Orbital ranges used for CIS calculation:
 Operator 0:  Orbitals   3... 11  to  12...116
XAS localization array:
 Operator 0:  Orbitals  -1... -1

-------------------
XC-INTEGRATION GRID
-------------------

General Integration Accuracy     IntAcc      ... 3.467
Radial Grid Type                 RadialGrid  ... OptM3 with GC (2021)
Angular Grid (max. ang.)         AngularGrid ... 1 (Lebedev-50)
Angular grid pruning method      GridPruning ... 4 (adaptive)
Weight generation scheme         WeightScheme... Becke
Basis function cutoff            BFCut       ... 1.0000e-11
Integration weight cutoff        WCut        ... 1.0000e-14
Angular grids for H and He will be reduced by one unit
Partially contracted basis set               ... off
Rotationally invariant grid construction     ... off

Total number of grid points                  ...     4540
Total number of batches                      ...       75
Average number of points per batch           ...       60
Average number of grid points per atom       ...      649

---------------------
COSX-INTEGRATION GRID
---------------------

General Integration Accuracy     IntAcc      ... 3.067
Radial Grid Type                 RadialGrid  ... OptM3 with GC (2021)
Angular Grid (max. ang.)         AngularGrid ... 1 (Lebedev-50)
Angular grid pruning method      GridPruning ... 4 (adaptive)
Weight generation scheme         WeightScheme... Becke
Basis function cutoff            BFCut       ... 1.0000e-11
Integration weight cutoff        WCut        ... 1.0000e-14
Angular grids for H and He will be reduced by one unit
Partially contracted basis set               ... on
Rotationally invariant grid construction     ... off

Total number of grid points                  ...     2088
Total number of batches                      ...       38
Average number of points per batch           ...       54
Average number of grid points per atom       ...      298

---------------
TD-DFT XC SETUP
---------------

DFT calculation                         ... on
Name of the grid file                   ... ox_es1_A_orca0041.grid_cis.tmp
Exchange functional (TD-DFT)            ... PBE
   PBE kappa parameter  XKappa (TD-DFT) ...  0.804000
   PBE mue parameter   XMuePBE (TD-DFT) ...  0.219520
Correlation functional (TD-DFT)         ... PBE
   PBE beta parameter CBetaPBE (TD-DFT) ...  0.066725
 LDA part of GGA corr.  LDAOpt (TD-DFT) ... PW91-LDA
Hybrid DFT                              ... on
   Exchange mixing (TD-DFT)             ...  0.250
   GGA exch. scaling (TD-DFT)           ...  0.750
   GGA corr. scaling (TD-DFT)           ...  1.000

Building densities             ... done
Calculating rho(r) on the grid ... done
Building xc-kernel on the grid ... done
                    *** TD-DFT CALCULATION INITIALIZED ***

------------------------
DAVIDSON-DIAGONALIZATION
------------------------

Dimension of the eigenvalue problem            ...    945
Number of roots to be determined               ...      1
Maximum size of the expansion space            ...     10
Maximum number of iterations                   ...    100
Convergence tolerance for the residual         ...    2.500e-07
Convergence tolerance for the energies         ...    2.500e-07
Orthogonality tolerance                        ...    1.000e-14
Level Shift                                    ...    0.000e+00
Constructing the preconditioner                ... o.k.
Building the initial guess                     ... o.k.
Number of trial vectors determined             ...     10


                       ****Iteration    0****

   Memory handling for direct AO based CIS:
   Memory per vector needed      ...     1 MB
   Memory needed                 ...     1 MB
   Memory available              ...  3000 MB
   Number of vectors per batch   ...  3000
   Number of batches             ...     1
   Time for densities:            0.000
   Time for RI-J (Direct):        0.017
   Time for K (COSX):             0.062
   Time for XC-Integration:       0.019
   Time for Sigma-Completion:     0.000
   Size of expansion space: 3
   Lowest Energy          :     0.280888420445
   Maximum Energy change  :     0.280888420445 (vector 0)
   Maximum residual norm  :     0.004267095841

                       ****Iteration    1****
   Time for densities:            0.000
   Time for RI-J (Direct):        0.014
   Time for K (COSX):             0.057
   Time for XC-Integration:       0.008
   Time for Sigma-Completion:     0.000
   Size of expansion space: 4
   Lowest Energy          :     0.276908117545
   Maximum Energy change  :     0.003980302901 (vector 0)
   Maximum residual norm  :     0.000443983563

                       ****Iteration    2****
   Time for densities:            0.000
   Time for RI-J (Direct):        0.014
   Time for K (COSX):             0.058
   Time for XC-Integration:       0.008
   Time for Sigma-Completion:     0.000
   Size of expansion space: 5
   Lowest Energy          :     0.276275726661
   Maximum Energy change  :     0.000632390884 (vector 0)
   Maximum residual norm  :     0.000144525189

                       ****Iteration    3****
   Time for densities:            0.000
   Time for RI-J (Direct):        0.014
   Time for K (COSX):             0.058
   Time for XC-Integration:       0.008
   Time for Sigma-Completion:     0.000
   Size of expansion space: 6
   Lowest Energy          :     0.276093453692
   Maximum Energy change  :     0.000182272969 (vector 0)
   Maximum residual norm  :     0.000029324344

                       ****Iteration    4****
   Time for densities:            0.000
   Time for RI-J (Direct):        0.014
   Time for K (COSX):             0.058
   Time for XC-Integration:       0.008
   Time for Sigma-Completion:     0.000
   Size of expansion space: 7
   Lowest Energy          :     0.276042547781
   Maximum Energy change  :     0.000050905910 (vector 0)
   Maximum residual norm  :     0.000016900199

                       ****Iteration    5****
   Time for densities:            0.000
   Time for RI-J (Direct):        0.014
   Time for K (COSX):             0.058
   Time for XC-Integration:       0.008
   Time for Sigma-Completion:     0.000
   Size of expansion space: 8
   Lowest Energy          :     0.276022942508
   Maximum Energy change  :     0.000019605273 (vector 0)
   Maximum residual norm  :     0.000001412313

                       ****Iteration    6****
   Time for densities:            0.000
   Time for RI-J (Direct):        0.014
   Time for K (COSX):             0.058
   Time for XC-Integration:       0.008
   Time for Sigma-Completion:     0.000
   Size of expansion space: 9
   Lowest Energy          :     0.276021072564
   Maximum Energy change  :     0.000001869944 (vector 0)
   Maximum residual norm  :     0.000000088878

      *** CONVERGENCE OF RESIDUAL NORM REACHED ***

Storing the converged CI vectors               ... ox_es1_A_orca0041.cis1

                 *** DAVIDSON DONE ***

Total time for solving the CIS problem:     0.588sec

------------------------------------
TD-DFT/TDA EXCITED STATES (SINGLETS)
------------------------------------

the weight of the individual excitations are printed if larger than 1.0e-02

STATE  1:  E=   0.276021 au      7.511 eV    60579.6 cm**-1 <S**2> =   0.000000
    11a ->  12a  :     0.678370 (c= -0.82363249)
    11a ->  13a  :     0.243344 (c= -0.49329895)
    11a ->  14a  :     0.038089 (c= -0.19516426)
    11a ->  15a  :     0.026731 (c= -0.16349483)


-----------------------------
TD-DFT/TDA-EXCITATION SPECTRA
-----------------------------

Center of mass = ( -0.0597,  0.0144,  0.1205)
Calculating the Dipole integrals                  ... done
Transforming integrals                            ... done
Calculating the Linear Momentum integrals         ... done
Transforming integrals                            ... done
Calculating angular momentum integrals            ... done
Transforming integrals                            ... done

-----------------------------------------------------------------------------
         ABSORPTION SPECTRUM VIA TRANSITION ELECTRIC DIPOLE MOMENTS
-----------------------------------------------------------------------------
State   Energy    Wavelength  fosc         T2        TX        TY        TZ  
        (cm-1)      (nm)                 (au**2)    (au)      (au)      (au) 
-----------------------------------------------------------------------------
   1   60579.6    165.1   0.007086286   0.03851  -0.00802  -0.02033  -0.19502

-----------------------------------------------------------------------------
         ABSORPTION SPECTRUM VIA TRANSITION VELOCITY DIPOLE MOMENTS
-----------------------------------------------------------------------------
State   Energy    Wavelength   fosc        P2         PX        PY        PZ  
        (cm-1)      (nm)                 (au**2)     (au)      (au)      (au) 
-----------------------------------------------------------------------------
   1   60579.6    165.1   0.021265948   0.00880  -0.00584  -0.00450   0.09354

-------------------------------------------------------------------
                             CD SPECTRUM
-------------------------------------------------------------------
State  Energy     Wavelength     R         MX        MY        MZ   
       (cm-1)       (nm)     (1e40*cgs)   (au)      (au)      (au)  
-------------------------------------------------------------------
   1   60579.6    165.1      1.43861  -0.18281   0.14397  -0.02314

-------------------------------------------------------------------
         CD SPECTRUM VIA TRANSITION VELOCITY DIPOLE MOMENTS        
-------------------------------------------------------------------
State  Energy     Wavelength     R         MX        MY        MZ   
       (cm-1)       (nm)     (1e40*cgs)   (au)      (au)      (au)  
-------------------------------------------------------------------
   1   60579.6    165.1     -2.97867  -0.18281   0.14397  -0.02314

Total run time:        0.877 sec

           *** ORCA-CIS/TD-DFT FINISHED WITHOUT ERROR ***

Maximum memory used throughout the entire CIS-calculation: 49.4 MB

-----------------------
CIS/TD-DFT TOTAL ENERGY
-----------------------

    E(SCF)  =   -153.646490148 Eh
    DE(CIS) =      0.276021073 Eh (Root  1)
    ----------------------------- ---------
    E(tot)  =   -153.370469076 Eh



-------------------------------------------------------------------------------
                          DFT DISPERSION CORRECTION                            
                                                                               
                              DFTD3 V3.1  Rev 1                                
                          USING Becke-Johnson damping                          
-------------------------------------------------------------------------------
The PBE0 functional is recognized
Active option DFTDOPT                   ...         4   

molecular C6(AA) [au] = 351.063194 


            DFT-D V3
 parameters
 s6 scaling factor         :     1.0000 
 a1 scaling factor         :     0.4145 
 s8 scaling factor         :     1.2177 
 a2 scaling factor         :     4.8593 
 ad hoc parameters k1-k3   :    16.0000     1.3333    -4.0000 

 Edisp/kcal,au: -1.509286408927  -0.002405200735 
 E6   /kcal   :  -0.989358538 
 E8   /kcal   :  -0.519927871 
 % E8         :  34.448588948 

-------------------------   ----------------
Dispersion correction           -0.002405201
-------------------------   ----------------


-------------------------   --------------------
FINAL SINGLE POINT ENERGY      -153.372874276449
-------------------------   --------------------



           ************************************************************
           *        Program running with 8 parallel MPI-processes     *
           *              working on a common directory               *
           ************************************************************
------------------------------------------------------------------------------
                         ORCA SCF GRADIENT CALCULATION
------------------------------------------------------------------------------


------------------------
TD-DFT GRADIENT XC SETUP
------------------------

Building densities                     ... done
Calculating rho(r) on the grid         ... done
Building xc-kernel on the grid         ... done
Building xc 3rd derivative on the grid      ... done
                *** TD-DFT GRADIENT CALCULATION INITIALIZED ***

-------------------
TD-DFT/TDA GRADIENT
-------------------

Reference wavefunction             ... RHF
State of interest                  ... 1
Basis dimension                    ... 117
DFT-XC contribution needed         ... YES
RI-approximation                   ... ON
CIS-vectors being read from        ... ox_es1_A_orca0041.cis

 => Number of Vectors found: 1
 => Orbital Window: 3...11 -> 12...116

Reading the CIS file                     ... done
Norm of the CI vector                    ... 1.000000000
Making the CIS (pseudo)densities         ... done
Making operators G(D) and Q(T)           ... done
Transforming the Fock operators          ... done
Making the frozen-core relaxed density   ... done
Constructing the G(H) operator           ... done
Transforming the G(H) operator           ... done
Calculating the CIS Lagrangian           ... done
Solving the Z-vector equations           ... done
Finalizing the relaxed density           ... done
Storing the relaxed density              ... done
Constructing the G(Z) operator           ... done
Transforming the G(Z) operator           ... done
Making the W-matrix                      ... done
Finalizing the W-matrix                  ... done
Transforming the W-matrix                ... done
Nuclear repulsion gradient               ... done
One-Electron gradient                    ... done
Dispersion correction                    ... done
Prescreening matrices                    ... done
COSX-gradient                            ... done
Coulomb gradient (RI)                    ... done
Exchange-Correlation gradient            ... done

                 ---------------------------
                 EXCITED STATE GRADIENT DONE
                 ---------------------------

------------------
CARTESIAN GRADIENT
------------------

   1   O   :    0.095460357   -0.092378566   -0.004751642
   2   C   :   -0.093252075   -0.036276183   -0.007452861
   3   C   :   -0.021587812    0.125555231    0.126641274
   4   H   :    0.035180449    0.003202450   -0.057070625
   5   H   :    0.019039556    0.004420606    0.049669824
   6   H   :    0.009996427   -0.009721051   -0.037118124
   7   H   :   -0.044827461    0.005196199   -0.069965686

Difference to translation invariance:
           :    0.0000094424   -0.0000013140   -0.0000478398

Difference to rotation invariance:
           :    0.0000290567   -0.0000225541    0.0001929449

Norm of the cartesian gradient     ...    0.2754317893
RMS gradient                       ...    0.0601041440
MAX gradient                       ...    0.1266412741

------------------------------------------------------------------------------
                  RELAXED CIS/TDA DENSITY POPULATION ANALYSIS
                                   IROOT 1
------------------------------------------------------------------------------
------------------------------------------------------------------------------
                           ORCA POPULATION ANALYSIS
------------------------------------------------------------------------------
Input electron density              ... ox_es1_A_orca0041.cisp
BaseName (.gbw .S,...)              ... ox_es1_A_orca0041

                    ********************************
                    * MULLIKEN POPULATION ANALYSIS *
                    ********************************

-----------------------
MULLIKEN ATOMIC CHARGES
-----------------------
   0 O :    0.150248
   1 C :   -0.098649
   2 C :   -0.707045
   3 H :    0.138988
   4 H :    0.148647
   5 H :    0.177637
   6 H :    0.190174
Sum of atomic charges:   -0.0000000

--------------------------------
MULLIKEN REDUCED ORBITAL CHARGES
--------------------------------
  0 O s       :     3.745865  s :     3.745865
      pz      :     1.096313  p :     4.070690
      px      :     1.541590
      py      :     1.432787
      dz2     :     0.003051  d :     0.032069
      dxz     :     0.002427
      dyz     :     0.005512
      dx2y2   :     0.009754
      dxy     :     0.011324
      f0      :     0.000056  f :     0.001128
      f+1     :    -0.000040
      f-1     :     0.000121
      f+2     :     0.000073
      f-2     :     0.000170
      f+3     :     0.000308
      f-3     :     0.000441
  1 C s       :     3.206587  s :     3.206587
      pz      :     1.071755  p :     2.802620
      px      :     1.025693
      py      :     0.705171
      dz2     :     0.005039  d :     0.079873
      dxz     :     0.022141
      dyz     :     0.008995
      dx2y2   :     0.027025
      dxy     :     0.016673
      f0      :     0.000781  f :     0.009569
      f+1     :     0.001446
      f-1     :     0.000557
      f+2     :     0.000799
      f-2     :     0.000945
      f+3     :     0.002656
      f-3     :     0.002384
  2 C s       :     3.298910  s :     3.298910
      pz      :     1.077714  p :     3.314441
      px      :     0.847611
      py      :     1.389117
      dz2     :     0.008527  d :     0.084089
      dxz     :     0.013645
      dyz     :     0.004504
      dx2y2   :     0.030598
      dxy     :     0.026814
      f0      :     0.000865  f :     0.009605
      f+1     :     0.001324
      f-1     :     0.000757
      f+2     :     0.000934
      f-2     :     0.000920
      f+3     :     0.002719
      f-3     :     0.002085
  3 H s       :     0.836560  s :     0.836560
      pz      :     0.011085  p :     0.024452
      px      :     0.008737
      py      :     0.004630
  4 H s       :     0.827084  s :     0.827084
      pz      :     0.011091  p :     0.024269
      px      :     0.009185
      py      :     0.003993
  5 H s       :     0.798964  s :     0.798964
      pz      :     0.009728  p :     0.023399
      px      :     0.005070
      py      :     0.008601
  6 H s       :     0.779594  s :     0.779594
      pz      :     0.009712  p :     0.030232
      px      :     0.008441
      py      :     0.012079


                     *******************************
                     * LOEWDIN POPULATION ANALYSIS *
                     *******************************

----------------------
LOEWDIN ATOMIC CHARGES
----------------------
   0 O :    0.350895
   1 C :   -0.237654
   2 C :   -0.598764
   3 H :    0.113414
   4 H :    0.115567
   5 H :    0.161123
   6 H :    0.095419

-------------------------------
LOEWDIN REDUCED ORBITAL CHARGES
-------------------------------
  0 O s       :     3.504981  s :     3.504981
      pz      :     1.048696  p :     4.050429
      px      :     1.516910
      py      :     1.484824
      dz2     :     0.012867  d :     0.088897
      dxz     :     0.006978
      dyz     :     0.011825
      dx2y2   :     0.028254
      dxy     :     0.028973
      f0      :     0.000464  f :     0.004797
      f+1     :     0.000099
      f-1     :     0.000652
      f+2     :     0.000143
      f-2     :     0.000741
      f+3     :     0.000963
      f-3     :     0.001735
  1 C s       :     2.821352  s :     2.821352
      pz      :     1.073348  p :     2.956275
      px      :     1.091167
      py      :     0.791760
      dz2     :     0.056425  d :     0.398341
      dxz     :     0.114344
      dyz     :     0.036327
      dx2y2   :     0.104941
      dxy     :     0.086303
      f0      :     0.005517  f :     0.061686
      f+1     :     0.006169
      f-1     :     0.006191
      f+2     :     0.005540
      f-2     :     0.004014
      f+3     :     0.017376
      f-3     :     0.016879
  2 C s       :     2.839798  s :     2.839798
      pz      :     1.056660  p :     3.187159
      px      :     0.989964
      py      :     1.140535
      dz2     :     0.064884  d :     0.503471
      dxz     :     0.094990
      dyz     :     0.023863
      dx2y2   :     0.149816
      dxy     :     0.169918
      f0      :     0.005408  f :     0.068336
      f+1     :     0.005572
      f-1     :     0.008305
      f+2     :     0.004789
      f-2     :     0.003864
      f+3     :     0.025405
      f-3     :     0.014994
  3 H s       :     0.809278  s :     0.809278
      pz      :     0.036465  p :     0.077307
      px      :     0.025787
      py      :     0.015056
  4 H s       :     0.808055  s :     0.808055
      pz      :     0.036021  p :     0.076378
      px      :     0.027044
      py      :     0.013313
  5 H s       :     0.776025  s :     0.776025
      pz      :     0.027511  p :     0.062852
      px      :     0.012752
      py      :     0.022589
  6 H s       :     0.809457  s :     0.809457
      pz      :     0.035562  p :     0.095124
      px      :     0.026352
      py      :     0.033209


                      *****************************
                      * MAYER POPULATION ANALYSIS *
                      *****************************

  NA   - Mulliken gross atomic population
  ZA   - Total nuclear charge
  QA   - Mulliken gross atomic charge
  VA   - Mayer's total valence
  BVA  - Mayer's bonded valence
  FA   - Mayer's free valence

  ATOM       NA         ZA         QA         VA         BVA        FA
  0 O      7.8498     8.0000     0.1502     1.7622     1.0430     0.7192
  1 C      6.0986     6.0000    -0.0986     3.7392     3.6323     0.1069
  2 C      6.7070     6.0000    -0.7070     4.0317     3.0847     0.9470
  3 H      0.8610     1.0000     0.1390     0.9833     0.9594     0.0239
  4 H      0.8514     1.0000     0.1486     0.9824     0.9528     0.0295
  5 H      0.8224     1.0000     0.1776     0.9746     0.9309     0.0437
  6 H      0.8098     1.0000     0.1902     0.9757     0.9561     0.0196

  Mayer bond orders larger than 0.100000
B(  0-O ,  1-C ) :   0.8148 B(  0-O ,  2-C ) :   0.2134 B(  1-C ,  2-C ) :   0.9616 
B(  1-C ,  3-H ) :   0.9420 B(  1-C ,  4-H ) :   0.9278 B(  2-C ,  5-H ) :   0.9265 
B(  2-C ,  6-H ) :   0.9569 


-------
TIMINGS
-------

Total TD-DFT gradient time         ...        5.775 sec

Fock matrix formation       ....       0.964 sec  ( 16.7%)
  Coulomb formation         ....       0.774 sec  ( 80.3% of F)
  RI-J                      ....       0.329 sec  ( 34.1% of F)
  Chain of spheres X        ....       0.445 sec  ( 46.1% of F)
  XC integration            ....       0.190 sec  ( 19.7% of F)
Z-vector equation           ....       1.558 sec  ( 27.0%)
One electron gradient       ....       0.038 sec  (  0.7%)
Prescreening matrices       ....       0.183 sec  (  3.2%)
RI-J Coulomb gradient       ....       0.290 sec  (  5.0%)
COSX gradient               ....       0.408 sec  (  7.1%)
XC gradient                 ....       1.987 sec  ( 34.4%)

Maximum memory used throughout the entire SCFGRAD-calculation: 130.3 MB

                            ***************************************
                            *     ORCA property calculations      *
                            ***************************************

                                    ---------------------
                                    Active property flags
                                    ---------------------
   (+) Dipole Moment


------------------------------------------------------------------------------
                       ORCA ELECTRIC PROPERTIES CALCULATION
------------------------------------------------------------------------------

Dipole Moment Calculation                       ... on
Quadrupole Moment Calculation                   ... off
Polarizability Calculation                      ... off
GBWName                                         ... ox_es1_A_orca0041.gbw
Electron density                                ... ox_es1_A_orca0041.scfp
The origin for moment calculation is the CENTER OF MASS  = (-0.059696,  0.014351  0.120491)

-------------
DIPOLE MOMENT
-------------
                                X             Y             Z
Electronic contribution:     -0.09441       1.59733       0.24149
Nuclear contribution   :      0.10677      -2.43392      -0.24509
                        -----------------------------------------
Total Dipole Moment    :      0.01236      -0.83659      -0.00360
                        -----------------------------------------
Magnitude (a.u.)       :      0.83668
Magnitude (Debye)      :      2.12668



--------------------
Rotational spectrum 
--------------------
 
Rotational constants in cm-1:     0.807704     0.719177     0.442062 
Rotational constants in MHz : 24214.366785 21560.397218 13252.680208 

 Dipole components along the rotational axes: 
x,y,z [a.u.] :     0.074455    -0.832609     0.035481 
x,y,z [Debye]:     0.189249    -2.116325     0.090185 

 

                        *** CIS RELAXED DENSITY ***

------------------------------------------------------------------------------
                       ORCA ELECTRIC PROPERTIES CALCULATION
------------------------------------------------------------------------------

Dipole Moment Calculation                       ... on
Quadrupole Moment Calculation                   ... off
Polarizability Calculation                      ... off
GBWName                                         ... ox_es1_A_orca0041.gbw
Electron density                                ... ox_es1_A_orca0041.cisp
The origin for moment calculation is the CENTER OF MASS  = (-0.059696,  0.014351  0.120491)

-------------
DIPOLE MOMENT
-------------
                                X             Y             Z
Electronic contribution:     -0.83593       2.36966       0.19107
Nuclear contribution   :      0.10677      -2.43392      -0.24509
                        -----------------------------------------
Total Dipole Moment    :     -0.72915      -0.06425      -0.05402
                        -----------------------------------------
Magnitude (a.u.)       :      0.73397
Magnitude (Debye)      :      1.86560



--------------------
Rotational spectrum 
--------------------
 
Rotational constants in cm-1:     0.807704     0.719177     0.442062 
Rotational constants in MHz : 24214.366785 21560.397218 13252.680208 

 Dipole components along the rotational axes: 
x,y,z [a.u.] :    -0.723986    -0.119438    -0.017063 
x,y,z [Debye]:    -1.840227    -0.303586    -0.043372 

 

Timings for individual modules:

Sum of individual times         ...        8.802 sec (=   0.147 min)
GTO integral calculation        ...        0.299 sec (=   0.005 min)   3.4 %
SCF iterations                  ...        1.368 sec (=   0.023 min)  15.5 %
CIS module                      ...        1.120 sec (=   0.019 min)  12.7 %
SCF Gradient evaluation         ...        6.015 sec (=   0.100 min)  68.3 %
                             ****ORCA TERMINATED NORMALLY****
TOTAL RUN TIME: 0 days 0 hours 0 minutes 9 seconds 161 msec
