
                                 *****************
                                 * O   R   C   A *
                                 *****************

                                            #,                                       
                                            ###                                      
                                            ####                                     
                                            #####                                    
                                            ######                                   
                                           ########,                                 
                                     ,,################,,,,,                         
                               ,,#################################,,                 
                          ,,##########################################,,             
                       ,#########################################, ''#####,          
                    ,#############################################,,   '####,        
                  ,##################################################,,,,####,       
                ,###########''''           ''''###############################       
              ,#####''   ,,,,##########,,,,          '''####'''          '####       
            ,##' ,,,,###########################,,,                        '##       
           ' ,,###''''                  '''############,,,                           
         ,,##''                                '''############,,,,        ,,,,,,###''
      ,#''                                            '''#######################'''  
     '                                                          ''''####''''         
             ,#######,   #######,   ,#######,      ##                                
            ,#'     '#,  ##    ##  ,#'     '#,    #''#        ######   ,####,        
            ##       ##  ##   ,#'  ##            #'  '#       #        #'  '#        
            ##       ##  #######   ##           ,######,      #####,   #    #        
            '#,     ,#'  ##    ##  '#,     ,#' ,#      #,         ##   #,  ,#        
             '#######'   ##     ##  '#######'  #'      '#     #####' # '####'        



                  #######################################################
                  #                        -***-                        #
                  #          Department of theory and spectroscopy      #
                  #    Directorship and core code : Frank Neese         #
                  #        Max Planck Institute fuer Kohlenforschung    #
                  #                Kaiser Wilhelm Platz 1               #
                  #                 D-45470 Muelheim/Ruhr               #
                  #                      Germany                        #
                  #                                                     #
                  #                  All rights reserved                #
                  #                        -***-                        #
                  #######################################################


                         Program Version 5.0.2 -  RELEASE  -


 With contributions from (in alphabetic order):
   Daniel Aravena         : Magnetic Suceptibility
   Michael Atanasov       : Ab Initio Ligand Field Theory (pilot matlab implementation)
   Alexander A. Auer      : GIAO ZORA, VPT2 properties, NMR spectrum
   Ute Becker             : Parallelization
   Giovanni Bistoni       : ED, misc. LED, open-shell LED, HFLD
   Martin Brehm           : Molecular dynamics
   Dmytro Bykov           : SCF Hessian
   Vijay G. Chilkuri      : MRCI spin determinant printing, contributions to CSF-ICE
   Dipayan Datta          : RHF DLPNO-CCSD density
   Achintya Kumar Dutta   : EOM-CC, STEOM-CC
   Dmitry Ganyushin       : Spin-Orbit,Spin-Spin,Magnetic field MRCI
   Miquel Garcia          : C-PCM and meta-GGA Hessian, CC/C-PCM, Gaussian charge scheme
   Yang Guo               : DLPNO-NEVPT2, F12-NEVPT2, CIM, IAO-localization
   Andreas Hansen         : Spin unrestricted coupled pair/coupled cluster methods
   Benjamin Helmich-Paris : MC-RPA, TRAH-SCF, COSX integrals
   Lee Huntington         : MR-EOM, pCC
   Robert Izsak           : Overlap fitted RIJCOSX, COSX-SCS-MP3, EOM
   Marcus Kettner         : VPT2
   Christian Kollmar      : KDIIS, OOCD, Brueckner-CCSD(T), CCSD density, CASPT2, CASPT2-K
   Simone Kossmann        : Meta GGA functionals, TD-DFT gradient, OOMP2, MP2 Hessian
   Martin Krupicka        : Initial AUTO-CI
   Lucas Lang             : DCDCAS
   Marvin Lechner         : AUTO-CI (C++ implementation), FIC-MRCC
   Dagmar Lenk            : GEPOL surface, SMD
   Dimitrios Liakos       : Extrapolation schemes; Compound Job, initial MDCI parallelization
   Dimitrios Manganas     : Further ROCIS development; embedding schemes
   Dimitrios Pantazis     : SARC Basis sets
   Anastasios Papadopoulos: AUTO-CI, single reference methods and gradients
   Taras Petrenko         : DFT Hessian,TD-DFT gradient, ASA, ECA, R-Raman, ABS, FL, XAS/XES, NRVS
   Peter Pinski           : DLPNO-MP2, DLPNO-MP2 Gradient
   Christoph Reimann      : Effective Core Potentials
   Marius Retegan         : Local ZFS, SOC
   Christoph Riplinger    : Optimizer, TS searches, QM/MM, DLPNO-CCSD(T), (RO)-DLPNO pert. Triples
   Tobias Risthaus        : Range-separated hybrids, TD-DFT gradient, RPA, STAB
   Michael Roemelt        : Original ROCIS implementation
   Masaaki Saitow         : Open-shell DLPNO-CCSD energy and density
   Barbara Sandhoefer     : DKH picture change effects
   Avijit Sen             : IP-ROCIS
   Kantharuban Sivalingam : CASSCF convergence, NEVPT2, FIC-MRCI
   Bernardo de Souza      : ESD, SOC TD-DFT
   Georgi Stoychev        : AutoAux, RI-MP2 NMR, DLPNO-MP2 response
   Willem Van den Heuvel  : Paramagnetic NMR
   Boris Wezisla          : Elementary symmetry handling
   Frank Wennmohs         : Technical directorship


 We gratefully acknowledge several colleagues who have allowed us to
 interface, adapt or use parts of their codes:
   Stefan Grimme, W. Hujo, H. Kruse, P. Pracht,  : VdW corrections, initial TS optimization,
                  C. Bannwarth, S. Ehlert          DFT functionals, gCP, sTDA/sTD-DF
   Ed Valeev, F. Pavosevic, A. Kumar             : LibInt (2-el integral package), F12 methods
   Garnet Chan, S. Sharma, J. Yang, R. Olivares  : DMRG
   Ulf Ekstrom                                   : XCFun DFT Library
   Mihaly Kallay                                 : mrcc  (arbitrary order and MRCC methods)
   Jiri Pittner, Ondrej Demel                    : Mk-CCSD
   Frank Weinhold                                : gennbo (NPA and NBO analysis)
   Christopher J. Cramer and Donald G. Truhlar   : smd solvation model
   Lars Goerigk                                  : TD-DFT with DH, B97 family of functionals
   V. Asgeirsson, H. Jonsson                     : NEB implementation
   FAccTs GmbH                                   : IRC, NEB, NEB-TS, DLPNO-Multilevel, CI-OPT
                                                   MM, QMMM, 2- and 3-layer-ONIOM, Crystal-QMMM,
                                                   LR-CPCM, SF, NACMEs, symmetry and pop. for TD-DFT,
                                                   nearIR, NL-DFT gradient (VV10), updates on ESD,
                                                   ML-optimized integration grids
   S Lehtola, MJT Oliveira, MAL Marques          : LibXC Library
   Liviu Ungur et al                             : ANISO software


 Your calculation uses the libint2 library for the computation of 2-el integrals
 For citations please refer to: http://libint.valeyev.net

 Your ORCA version has been built with support for libXC version: 5.1.0
 For citations please refer to: https://tddft.org/programs/libxc/

 This ORCA versions uses:
   CBLAS   interface :  Fast vector & matrix operations
   LAPACKE interface :  Fast linear algebra routines
   SCALAPACK package :  Parallel linear algebra routines
   Shared memory     :  Shared parallel matrices
   BLAS/LAPACK       :  OpenBLAS 0.3.15  USE64BITINT DYNAMIC_ARCH NO_AFFINITY SkylakeX SINGLE_THREADED
        Core in use  :  SkylakeX
   Copyright (c) 2011-2014, The OpenBLAS Project


Your calculation utilizes the atom-pairwise dispersion correction
with the Becke-Johnson damping scheme (D3BJ)
Cite in your paper:
S.Grimme, S.Ehrlich, L.Goerigk, J Comput Chem, (2011), 32, 1456–1465 
S.Grimme, J.Antony, S.Ehrlich and H.Krieg, J.Chem.Phys., 132, (2010), 154104 
   

================================================================================

----- Orbital basis set information -----
Your calculation utilizes the basis: def2-TZVP
   F. Weigend and R. Ahlrichs, Phys. Chem. Chem. Phys. 7, 3297 (2005).

----- AuxJ basis set information -----
Your calculation utilizes the auxiliary basis: def2/J
   F. Weigend, Phys. Chem. Chem. Phys. 8, 1057 (2006).

================================================================================
                                        WARNINGS
                       Please study these warnings very carefully!
================================================================================

INFO   : Checking CIS options ...

WARNING: CIS/ROCIS methods need fully converged wavefunctions
  ===> : Setting SCFConvForced true
         You can overwrite this default with %scf ConvForced false 


INFO   : the flag for use of the SHARK integral package has been found!

================================================================================
                                       INPUT FILE
================================================================================
NAME = ox_es1_A_orca0009.inp
|  1> ! engrad PBE0 D3BJ def2-TZVP  
|  2> %pal nprocs 8 end
|  3> %maxcore 3000
|  4> 
|  5> %tddft
|  6>   nroots 1
|  7>   tda true
|  8>   Iroot 1
|  9>   end 
| 10> *xyz 0 1 
| 11> O   -0.07574231123429323 0.744598562396649 0.04282004971617362
| 12> C   -0.7181849027934898 -0.5093074289355994 0.0086590462925591
| 13> C   0.7481554089864418 -0.49121336181005665 0.007686255297276396
| 14> H   -1.2609124940777 -0.7254193248915312 0.9378655880174142
| 15> H   -1.2357835436815883 -0.6141183478412362 -0.8672861173982549
| 16> H   1.1949393516021454 -0.7151621119957562 -0.8942244566395671
| 17> H   1.2895121675456105 -0.6425184256846976 1.112612744532736
| 18> *
| 19> 
| 20>                          ****END OF INPUT****
================================================================================

                     *******************************
                     * Energy+Gradient Calculation *
                     *******************************

---------------------------------
CARTESIAN COORDINATES (ANGSTROEM)
---------------------------------
  O     -0.075742    0.744599    0.042820
  C     -0.718185   -0.509307    0.008659
  C      0.748155   -0.491213    0.007686
  H     -1.260912   -0.725419    0.937866
  H     -1.235784   -0.614118   -0.867286
  H      1.194939   -0.715162   -0.894224
  H      1.289512   -0.642518    1.112613

----------------------------
CARTESIAN COORDINATES (A.U.)
----------------------------
  NO LB      ZA    FRAG     MASS         X           Y           Z
   0 O     8.0000    0    15.999   -0.143132    1.407087    0.080918
   1 C     6.0000    0    12.011   -1.357173   -0.962452    0.016363
   2 C     6.0000    0    12.011    1.413809   -0.928259    0.014525
   3 H     1.0000    0     1.008   -2.382779   -1.370844    1.772309
   4 H     1.0000    0     1.008   -2.335292   -1.160515   -1.638933
   5 H     1.0000    0     1.008    2.258108   -1.351461   -1.689839
   6 H     1.0000    0     1.008    2.436825   -1.214184    2.102533

--------------------------------
INTERNAL COORDINATES (ANGSTROEM)
--------------------------------
 O      0   0   0     0.000000000000     0.00000000     0.00000000
 C      1   0   0     1.409318875451     0.00000000     0.00000000
 C      2   1   0     1.466452267051    62.17449325     0.00000000
 H      2   1   3     1.097580241759   112.33821911   113.03031529
 H      2   1   3     1.022826286113   110.03619274   245.33067634
 H      3   2   1     1.031121654508   115.54159865   254.13169694
 H      3   2   1     1.239686617257   115.75716289    96.54327607

---------------------------
INTERNAL COORDINATES (A.U.)
---------------------------
 O      0   0   0     0.000000000000     0.00000000     0.00000000
 C      1   0   0     2.663226709969     0.00000000     0.00000000
 C      2   1   0     2.771193173194    62.17449325     0.00000000
 H      2   1   3     2.074126066927   112.33821911   113.03031529
 H      2   1   3     1.932861563330   110.03619274   245.33067634
 H      3   2   1     1.948537537776   115.54159865   254.13169694
 H      3   2   1     2.342668198503   115.75716289    96.54327607

---------------------
BASIS SET INFORMATION
---------------------
There are 3 groups of distinct atoms

 Group   1 Type O   : 11s6p2d1f contracted to 5s3p2d1f pattern {62111/411/11/1}
 Group   2 Type C   : 11s6p2d1f contracted to 5s3p2d1f pattern {62111/411/11/1}
 Group   3 Type H   : 5s1p contracted to 3s1p pattern {311/1}

Atom   0O    basis set group =>   1
Atom   1C    basis set group =>   2
Atom   2C    basis set group =>   2
Atom   3H    basis set group =>   3
Atom   4H    basis set group =>   3
Atom   5H    basis set group =>   3
Atom   6H    basis set group =>   3
---------------------------------
AUXILIARY/J BASIS SET INFORMATION
---------------------------------
There are 3 groups of distinct atoms

 Group   1 Type O   : 12s5p4d2f1g contracted to 6s4p3d1f1g pattern {711111/2111/211/2/1}
 Group   2 Type C   : 12s5p4d2f1g contracted to 6s4p3d1f1g pattern {711111/2111/211/2/1}
 Group   3 Type H   : 5s2p1d contracted to 3s1p1d pattern {311/2/1}

Atom   0O    basis set group =>   1
Atom   1C    basis set group =>   2
Atom   2C    basis set group =>   2
Atom   3H    basis set group =>   3
Atom   4H    basis set group =>   3
Atom   5H    basis set group =>   3
Atom   6H    basis set group =>   3

Checking for AutoStart:
The File: ox_es1_A_orca0009.gbw exists
Trying to determine its content:
     ... Fine, the file contains calculation information
     ... Fine, the calculation information was read
     ... Fine, the file contains a basis set
     ... Fine, the basis set was read
     ... Fine, the file contains a geometry
     ... Fine, the geometry was read
     ... Fine, the file contains a set of orbitals
     ... Fine, the orbitals can be read
     => possible old guess file was deleted
     => GBW file was renamed to GES file
     => GES file is set as startup file
     => Guess is set to MORead
     ... now leaving AutoStart



           ************************************************************
           *        Program running with 8 parallel MPI-processes     *
           *              working on a common directory               *
           ************************************************************
------------------------------------------------------------------------------
                           ORCA GTO INTEGRAL CALCULATION
                           -- RI-GTO INTEGRALS CHOSEN --
------------------------------------------------------------------------------
------------------------------------------------------------------------------
                   ___                                                        
                  /   \      - P O W E R E D   B Y -                         
                 /     \                                                     
                 |  |  |   _    _      __       _____    __    __             
                 |  |  |  | |  | |    /  \     |  _  \  |  |  /  |          
                  \  \/   | |  | |   /    \    | | | |  |  | /  /          
                 / \  \   | |__| |  /  /\  \   | |_| |  |  |/  /          
                |  |  |   |  __  | /  /__\  \  |    /   |      \           
                |  |  |   | |  | | |   __   |  |    \   |  |\   \          
                \     /   | |  | | |  |  |  |  | |\  \  |  | \   \       
                 \___/    |_|  |_| |__|  |__|  |_| \__\ |__|  \__/        
                                                                              
                      - O R C A' S   B I G   F R I E N D -                    
                                      &                                       
                       - I N T E G R A L  F E E D E R -                       
                                                                              
 v1 FN, 2020, v2 2021                                                         
------------------------------------------------------------------------------


Reading SHARK input file ox_es1_A_orca0009.SHARKINP.tmp ... ok
----------------------
SHARK INTEGRAL PACKAGE
----------------------

Number of atoms                             ...      7
Number of basis functions                   ...    117
Number of shells                            ...     49
Maximum angular momentum                    ...      3
Integral batch strategy                     ... SHARK/LIBINT Hybrid
RI-J (if used) integral strategy            ... SPLIT-RIJ (Revised 2003 algorithm where possible)
Printlevel                                  ...      1
Contraction scheme used                     ... SEGMENTED contraction
Coulomb Range Separation                    ... NOT USED
Exchange Range Separation                   ... NOT USED
Finite Nucleus Model                        ... NOT USED
Auxiliary Coulomb fitting basis             ... AVAILABLE
   # of basis functions in Aux-J            ...    191
   # of shells in Aux-J                     ...     65
   Maximum angular momentum in Aux-J        ...      4
Auxiliary J/K fitting basis                 ... NOT available
Auxiliary Correlation fitting basis         ... NOT available
Auxiliary 'external' fitting basis          ... NOT available
Integral threshold                          ...     2.500000e-11
Primitive cut-off                           ...     2.500000e-12
Primitive pair pre-selection threshold      ...     2.500000e-12

Calculating pre-screening integrals         ... done (  0.0 sec) Dimension = 49
Organizing shell pair data                  ... done (  0.0 sec)
Shell pair information
Total number of shell pairs                 ...      1225
Shell pairs after pre-screening             ...      1220
Total number of primitive shell pairs       ...      3648
Primitive shell pairs kept                  ...      3145
          la=0 lb=0:    373 shell pairs
          la=1 lb=0:    351 shell pairs
          la=1 lb=1:     91 shell pairs
          la=2 lb=0:    162 shell pairs
          la=2 lb=1:     78 shell pairs
          la=2 lb=2:     21 shell pairs
          la=3 lb=0:     81 shell pairs
          la=3 lb=1:     39 shell pairs
          la=3 lb=2:     18 shell pairs
          la=3 lb=3:      6 shell pairs

Calculating one electron integrals          ... done (  0.0 sec)
Calculating RI/J V-Matrix + Cholesky decomp.... done (  0.0 sec)
Calculating Nuclear repulsion               ... done (  0.0 sec) ENN=     74.843639561206 Eh

SHARK setup successfully completed in   0.1 seconds

Maximum memory used throughout the entire GTOINT-calculation: 14.9 MB


           ************************************************************
           *        Program running with 8 parallel MPI-processes     *
           *              working on a common directory               *
           ************************************************************
-------------------------------------------------------------------------------
                                 ORCA SCF
-------------------------------------------------------------------------------

------------
SCF SETTINGS
------------
Hamiltonian:
 Density Functional     Method          .... DFT(GTOs)
 Exchange Functional    Exchange        .... PBE
   PBE kappa parameter   XKappa         ....  0.804000
   PBE mue parameter    XMuePBE         ....  0.219520
 Correlation Functional Correlation     .... PBE
   PBE beta parameter  CBetaPBE         ....  0.066725
 LDA part of GGA corr.  LDAOpt          .... PW91-LDA
 Gradients option       PostSCFGGA      .... off
 Hybrid DFT is turned on
   Fraction HF Exchange ScalHFX         ....  0.250000
   Scaling of DF-GGA-X  ScalDFX         ....  0.750000
   Scaling of DF-GGA-C  ScalDFC         ....  1.000000
   Scaling of DF-LDA-C  ScalLDAC        ....  1.000000
   Perturbative correction              ....  0.000000
   Density functional embedding theory  .... OFF
   NL short-range parameter             ....  6.900000
 RI-approximation to the Coulomb term is turned on
   Number of AuxJ basis functions       .... 191
   RIJ-COSX (HFX calculated with COS-X)).... on


General Settings:
 Integral files         IntName         .... ox_es1_A_orca0009
 Hartree-Fock type      HFTyp           .... RHF
 Total Charge           Charge          ....    0
 Multiplicity           Mult            ....    1
 Number of Electrons    NEL             ....   24
 Basis Dimension        Dim             ....  117
 Nuclear Repulsion      ENuc            ....     74.8436395612 Eh

Convergence Acceleration:
 DIIS                   CNVDIIS         .... on
   Start iteration      DIISMaxIt       ....    12
   Startup error        DIISStart       ....  0.200000
   # of expansion vecs  DIISMaxEq       ....     5
   Bias factor          DIISBfac        ....   1.050
   Max. coefficient     DIISMaxC        ....  10.000
 Trust-Rad. Augm. Hess. CNVTRAH         .... auto
   Auto Start mean grad. ratio tolernc. ....  1.125000
   Auto Start start iteration           ....     1
   Auto Start num. interpolation iter.  ....    10
   Max. Number of Micro iterations      ....    16
   Max. Number of Macro iterations      .... Maxiter - #DIIS iter
   Number of Davidson start vectors     ....     2
   Converg. threshold I  (grad. norm)   ....   1.000e-05
   Converg. threshold II (energy diff.) ....   1.000e-08
   Grad. Scal. Fac. for Micro threshold ....   0.100
   Minimum threshold for Micro iter.    ....   0.010
   NR start threshold (gradient norm)   ....   0.001
   Initial trust radius                 ....   0.400
   Minimum AH scaling param. (alpha)    ....   1.000
   Maximum AH scaling param. (alpha)    .... 1000.000
   Orbital update algorithm             .... Taylor
   White noise on init. David. guess    .... on
   Maximum white noise                  ....   0.010
   Quad. conv. algorithm                .... NR
 SOSCF                  CNVSOSCF        .... on
   Start iteration      SOSCFMaxIt      ....   150
   Startup grad/error   SOSCFStart      ....  0.003300
 Level Shifting         CNVShift        .... on
   Level shift para.    LevelShift      ....    0.2500
   Turn off err/grad.   ShiftErr        ....    0.0010
 Zerner damping         CNVZerner       .... off
 Static damping         CNVDamp         .... on
   Fraction old density DampFac         ....    0.7000
   Max. Damping (<1)    DampMax         ....    0.9800
   Min. Damping (>=0)   DampMin         ....    0.0000
   Turn off err/grad.   DampErr         ....    0.1000
 Fernandez-Rico         CNVRico         .... off

SCF Procedure:
 Maximum # iterations   MaxIter         ....   125
 SCF integral mode      SCFMode         .... Direct
   Integral package                     .... SHARK and LIBINT hybrid scheme
 Reset frequency        DirectResetFreq ....    20
 Integral Threshold     Thresh          ....  2.500e-11 Eh
 Primitive CutOff       TCut            ....  2.500e-12 Eh

Convergence Tolerance:
 Convergence Check Mode ConvCheckMode   .... Total+1el-Energy
 Convergence forced     ConvForced      .... 1
 Energy Change          TolE            ....  1.000e-08 Eh
 1-El. energy change                    ....  1.000e-05 Eh
 Orbital Gradient       TolG            ....  1.000e-05
 Orbital Rotation angle TolX            ....  1.000e-05
 DIIS Error             TolErr          ....  5.000e-07


Diagonalization of the overlap matrix:
Smallest eigenvalue                        ... 3.955e-04
Time for diagonalization                   ...    0.001 sec
Threshold for overlap eigenvalues          ... 1.000e-08
Number of eigenvalues below threshold      ... 0
Time for construction of square roots      ...    0.001 sec
Total time needed                          ...    0.003 sec

---------------------
INITIAL GUESS: MOREAD
---------------------
Guess MOs are being read from file: ox_es1_A_orca0009.ges
Input Geometry matches current geometry (good)
Input basis set matches current basis set (good)
MOs were renormalized
MOs were reorthogonalized (Cholesky)
                      ------------------
                      INITIAL GUESS DONE (   0.0 sec)
                      ------------------
-------------------
DFT GRID GENERATION
-------------------

General Integration Accuracy     IntAcc      ... 4.388
Radial Grid Type                 RadialGrid  ... OptM3 with GC (2021)
Angular Grid (max. ang.)         AngularGrid ... 4 (Lebedev-302)
Angular grid pruning method      GridPruning ... 4 (adaptive)
Weight generation scheme         WeightScheme... Becke
Basis function cutoff            BFCut       ... 1.0000e-11
Integration weight cutoff        WCut        ... 1.0000e-14
Angular grids for H and He will be reduced by one unit
Partially contracted basis set               ... off
Rotationally invariant grid construction     ... off

Total number of grid points                  ...    31306
Total number of batches                      ...      493
Average number of points per batch           ...       63
Average number of grid points per atom       ...     4472
Time for grid setup =    0.118 sec

--------------------
COSX GRID GENERATION
--------------------

GRIDX 1
-------
General Integration Accuracy     IntAcc      ... 3.816
Radial Grid Type                 RadialGrid  ... OptM3 with GC (2021)
Angular Grid (max. ang.)         AngularGrid ... 1 (Lebedev-50)
Angular grid pruning method      GridPruning ... 4 (adaptive)
Weight generation scheme         WeightScheme... Becke
Basis function cutoff            BFCut       ... 1.0000e-11
Integration weight cutoff        WCut        ... 1.0000e-14
Angular grids for H and He will be reduced by one unit
Partially contracted basis set               ... on
Rotationally invariant grid construction     ... off

Total number of grid points                  ...     4034
Total number of batches                      ...       68
Average number of points per batch           ...       59
Average number of grid points per atom       ...      576
UseSFitting                                  ... on

GRIDX 2
-------
General Integration Accuracy     IntAcc      ... 4.020
Radial Grid Type                 RadialGrid  ... OptM3 with GC (2021)
Angular Grid (max. ang.)         AngularGrid ... 2 (Lebedev-110)
Angular grid pruning method      GridPruning ... 4 (adaptive)
Weight generation scheme         WeightScheme... Becke
Basis function cutoff            BFCut       ... 1.0000e-11
Integration weight cutoff        WCut        ... 1.0000e-14
Angular grids for H and He will be reduced by one unit
Partially contracted basis set               ... on
Rotationally invariant grid construction     ... off

Total number of grid points                  ...     8712
Total number of batches                      ...      140
Average number of points per batch           ...       62
Average number of grid points per atom       ...     1245
UseSFitting                                  ... on

GRIDX 3
-------
General Integration Accuracy     IntAcc      ... 4.338
Radial Grid Type                 RadialGrid  ... OptM3 with GC (2021)
Angular Grid (max. ang.)         AngularGrid ... 3 (Lebedev-194)
Angular grid pruning method      GridPruning ... 4 (adaptive)
Weight generation scheme         WeightScheme... Becke
Basis function cutoff            BFCut       ... 1.0000e-11
Integration weight cutoff        WCut        ... 1.0000e-14
Angular grids for H and He will be reduced by one unit
Partially contracted basis set               ... on
Rotationally invariant grid construction     ... off

Total number of grid points                  ...    19239
Total number of batches                      ...      304
Average number of points per batch           ...       63
Average number of grid points per atom       ...     2748
UseSFitting                                  ... on

Time for X-Grid setup             =    0.073 sec

--------------
SCF ITERATIONS
--------------
ITER       Energy         Delta-E        Max-DP      RMS-DP      [F,P]     Damp
               ***  Starting incremental Fock matrix formation  ***
                      *** Initiating the SOSCF procedure ***
                      *** Re-Reading the Fockian *** 
                      *** Removing any level shift *** 
ITER      Energy       Delta-E        Grad      Rot      Max-DP    RMS-DP
  0   -153.65150334 -153.6515033351  0.000001  0.000001  0.000001  0.000000
               *** Restarting incremental Fock matrix formation ***
                  ***Gradient check signals convergence***
              ***Rediagonalizing the Fockian in SOSCF/NRSCF***

               *****************************************************
               *                     SUCCESS                       *
               *           SCF CONVERGED AFTER   1 CYCLES          *
               *****************************************************

Old exchange energy                            =     -4.991215188 Eh
New exchange energy                            =     -4.991214422 Eh
Exchange energy change after final integration =      0.000000766 Eh
Total energy after final integration           =   -153.651502569 Eh
Final COS-X integration done in                =     0.249 sec

----------------
TOTAL SCF ENERGY
----------------

Total Energy       :         -153.65150257 Eh           -4181.06995 eV

Components:
Nuclear Repulsion  :           74.84363956 Eh            2036.59897 eV
Electronic Energy  :         -228.49514213 Eh           -6217.66892 eV
One Electron Energy:         -356.41281168 Eh           -9698.48567 eV
Two Electron Energy:          127.91766955 Eh            3480.81675 eV
Max COSX asymmetry :            0.00000163 Eh               0.00004 eV

Virial components:
Potential Energy   :         -306.57743565 Eh           -8342.39614 eV
Kinetic Energy     :          152.92593308 Eh            4161.32620 eV
Virial Ratio       :            2.00474458


DFT components:
N(Alpha)           :       12.000005488909 electrons
N(Beta)            :       12.000005488909 electrons
N(Total)           :       24.000010977818 electrons
E(X)               :      -14.946980956600 Eh       
E(C)               :       -0.789144986553 Eh       
E(XC)              :      -15.736125943153 Eh       
DFET-embed. en.    :        0.000000000000 Eh       

---------------
SCF CONVERGENCE
---------------

  Last Energy change         ...   -2.1117e-11  Tolerance :   1.0000e-08
  Last MAX-Density change    ...    5.5511e-16  Tolerance :   1.0000e-07
  Last RMS-Density change    ...    1.7547e-17  Tolerance :   5.0000e-09
  Last Orbital Gradient      ...    4.2381e-07  Tolerance :   1.0000e-05
  Last Orbital Rotation      ...    8.4444e-07  Tolerance :   1.0000e-05

             **** THE GBW FILE WAS UPDATED (ox_es1_A_orca0009.gbw) ****
             **** DENSITY ox_es1_A_orca0009.scfp WAS UPDATED ****
             **** ENERGY FILE WAS UPDATED (ox_es1_A_orca0009.en.tmp) ****
             **** THE GBW FILE WAS UPDATED (ox_es1_A_orca0009.gbw) ****
             **** DENSITY ox_es1_A_orca0009.scfp WAS UPDATED ****
----------------
ORBITAL ENERGIES
----------------

  NO   OCC          E(Eh)            E(eV) 
   0   2.0000     -19.218283      -522.9561 
   1   2.0000     -10.288585      -279.9666 
   2   2.0000     -10.267026      -279.3800 
   3   2.0000      -1.094105       -29.7721 
   4   2.0000      -0.703003       -19.1297 
   5   2.0000      -0.652981       -17.7685 
   6   2.0000      -0.535588       -14.5741 
   7   2.0000      -0.489572       -13.3219 
   8   2.0000      -0.411433       -11.1956 
   9   2.0000      -0.390300       -10.6206 
  10   2.0000      -0.333672        -9.0797 
  11   2.0000      -0.286807        -7.8044 
  12   0.0000       0.051216         1.3937 
  13   0.0000       0.067830         1.8458 
  14   0.0000       0.080868         2.2005 
  15   0.0000       0.097473         2.6524 
  16   0.0000       0.108236         2.9453 
  17   0.0000       0.151315         4.1175 
  18   0.0000       0.187357         5.0982 
  19   0.0000       0.203742         5.5441 
  20   0.0000       0.266786         7.2596 
  21   0.0000       0.275794         7.5047 
  22   0.0000       0.299362         8.1461 
  23   0.0000       0.325463         8.8563 
  24   0.0000       0.381866        10.3911 
  25   0.0000       0.396239        10.7822 
  26   0.0000       0.419283        11.4093 
  27   0.0000       0.437664        11.9094 
  28   0.0000       0.441914        12.0251 
  29   0.0000       0.469839        12.7850 
  30   0.0000       0.489944        13.3320 
  31   0.0000       0.517960        14.0944 
  32   0.0000       0.552989        15.0476 
  33   0.0000       0.695601        18.9283 
  34   0.0000       0.711532        19.3618 
  35   0.0000       0.728376        19.8201 
  36   0.0000       0.820291        22.3212 
  37   0.0000       0.852271        23.1915 
  38   0.0000       0.890438        24.2301 
  39   0.0000       0.925775        25.1916 
  40   0.0000       1.015630        27.6367 
  41   0.0000       1.035602        28.1802 
  42   0.0000       1.044380        28.4190 
  43   0.0000       1.087421        29.5902 
  44   0.0000       1.172265        31.8989 
  45   0.0000       1.357846        36.9489 
  46   0.0000       1.457433        39.6588 
  47   0.0000       1.497947        40.7612 
  48   0.0000       1.508348        41.0442 
  49   0.0000       1.522805        41.4376 
  50   0.0000       1.599087        43.5134 
  51   0.0000       1.627715        44.2924 
  52   0.0000       1.648939        44.8699 
  53   0.0000       1.669770        45.4367 
  54   0.0000       1.776264        48.3346 
  55   0.0000       1.811519        49.2939 
  56   0.0000       1.831011        49.8243 
  57   0.0000       1.885356        51.3031 
  58   0.0000       1.903140        51.7871 
  59   0.0000       1.989272        54.1309 
  60   0.0000       2.144817        58.3634 
  61   0.0000       2.168676        59.0127 
  62   0.0000       2.185075        59.4589 
  63   0.0000       2.213712        60.2382 
  64   0.0000       2.284261        62.1579 
  65   0.0000       2.421098        65.8814 
  66   0.0000       2.431372        66.1610 
  67   0.0000       2.473485        67.3070 
  68   0.0000       2.583740        70.3071 
  69   0.0000       2.594719        70.6059 
  70   0.0000       2.605400        70.8965 
  71   0.0000       2.682904        73.0055 
  72   0.0000       2.695054        73.3361 
  73   0.0000       2.719320        73.9965 
  74   0.0000       2.766173        75.2714 
  75   0.0000       2.790738        75.9399 
  76   0.0000       2.874024        78.2062 
  77   0.0000       2.967582        80.7520 
  78   0.0000       3.018518        82.1380 
  79   0.0000       3.021491        82.2189 
  80   0.0000       3.044747        82.8518 
  81   0.0000       3.067653        83.4751 
  82   0.0000       3.158115        85.9367 
  83   0.0000       3.222802        87.6969 
  84   0.0000       3.320029        90.3426 
  85   0.0000       3.340654        90.9038 
  86   0.0000       3.351635        91.2026 
  87   0.0000       3.416677        92.9725 
  88   0.0000       3.550496        96.6139 
  89   0.0000       3.607317        98.1601 
  90   0.0000       3.635852        98.9366 
  91   0.0000       3.712620       101.0255 
  92   0.0000       3.831514       104.2608 
  93   0.0000       3.939997       107.2128 
  94   0.0000       4.094203       111.4089 
  95   0.0000       4.127948       112.3272 
  96   0.0000       4.227967       115.0488 
  97   0.0000       4.282522       116.5334 
  98   0.0000       4.413146       120.0878 
  99   0.0000       4.612862       125.5224 
 100   0.0000       4.693159       127.7073 
 101   0.0000       4.831900       131.4827 
 102   0.0000       5.295753       144.1048 
 103   0.0000       5.435249       147.9006 
 104   0.0000       5.644460       153.5936 
 105   0.0000       5.741192       156.2258 
 106   0.0000       5.790577       157.5696 
 107   0.0000       5.863602       159.5567 
 108   0.0000       6.033338       164.1755 
 109   0.0000       6.593020       179.4052 
 110   0.0000       6.628855       180.3803 
 111   0.0000       6.797133       184.9594 
 112   0.0000       6.966505       189.5682 
 113   0.0000       7.181918       195.4299 
 114   0.0000      22.174147       603.3892 
 115   0.0000      22.504457       612.3774 
 116   0.0000      43.854638      1193.3454 

                    ********************************
                    * MULLIKEN POPULATION ANALYSIS *
                    ********************************

-----------------------
MULLIKEN ATOMIC CHARGES
-----------------------
   0 O :   -0.321998
   1 C :   -0.060018
   2 C :   -0.097982
   3 H :    0.110819
   4 H :    0.116747
   5 H :    0.126748
   6 H :    0.125683
Sum of atomic charges:   -0.0000000

--------------------------------
MULLIKEN REDUCED ORBITAL CHARGES
--------------------------------
  0 O s       :     3.861588  s :     3.861588
      pz      :     1.852042  p :     4.417139
      px      :     1.319390
      py      :     1.245707
      dz2     :     0.005654  d :     0.041158
      dxz     :     0.002558
      dyz     :     0.006355
      dx2y2   :     0.011847
      dxy     :     0.014744
      f0      :     0.000239  f :     0.002113
      f+1     :     0.000186
      f-1     :     0.000464
      f+2     :     0.000088
      f-2     :     0.000194
      f+3     :     0.000387
      f-3     :     0.000556
  1 C s       :     3.214067  s :     3.214067
      pz      :     1.053379  p :     2.716460
      px      :     0.900901
      py      :     0.762180
      dz2     :     0.005862  d :     0.117534
      dxz     :     0.025817
      dyz     :     0.033300
      dx2y2   :     0.031299
      dxy     :     0.021257
      f0      :     0.001685  f :     0.011956
      f+1     :     0.001438
      f-1     :     0.000614
      f+2     :     0.001638
      f-2     :     0.001488
      f+3     :     0.001946
      f-3     :     0.003149
  2 C s       :     3.254068  s :     3.254068
      pz      :     1.023139  p :     2.728266
      px      :     0.910549
      py      :     0.794578
      dz2     :     0.008866  d :     0.104884
      dxz     :     0.025505
      dyz     :     0.025744
      dx2y2   :     0.025150
      dxy     :     0.019619
      f0      :     0.001576  f :     0.010764
      f+1     :     0.001345
      f-1     :     0.000491
      f+2     :     0.001078
      f-2     :     0.001536
      f+3     :     0.002070
      f-3     :     0.002667
  3 H s       :     0.868464  s :     0.868464
      pz      :     0.010662  p :     0.020717
      px      :     0.006177
      py      :     0.003878
  4 H s       :     0.860131  s :     0.860131
      pz      :     0.011329  p :     0.023122
      px      :     0.007087
      py      :     0.004705
  5 H s       :     0.849557  s :     0.849557
      pz      :     0.012092  p :     0.023694
      px      :     0.006580
      py      :     0.005022
  6 H s       :     0.858100  s :     0.858100
      pz      :     0.009765  p :     0.016218
      px      :     0.003979
      py      :     0.002473


                     *******************************
                     * LOEWDIN POPULATION ANALYSIS *
                     *******************************

----------------------
LOEWDIN ATOMIC CHARGES
----------------------
   0 O :    0.096830
   1 C :   -0.317358
   2 C :   -0.256048
   3 H :    0.118528
   4 H :    0.100703
   5 H :    0.104832
   6 H :    0.152511

-------------------------------
LOEWDIN REDUCED ORBITAL CHARGES
-------------------------------
  0 O s       :     3.404125  s :     3.404125
      pz      :     1.740996  p :     4.404034
      px      :     1.306736
      py      :     1.356302
      dz2     :     0.011442  d :     0.088742
      dxz     :     0.007337
      dyz     :     0.014466
      dx2y2   :     0.030671
      dxy     :     0.024825
      f0      :     0.000596  f :     0.006269
      f+1     :     0.000237
      f-1     :     0.000882
      f+2     :     0.000208
      f-2     :     0.000867
      f+3     :     0.001175
      f-3     :     0.002304
  1 C s       :     2.816044  s :     2.816044
      pz      :     1.054888  p :     2.918293
      px      :     1.030200
      py      :     0.833206
      dz2     :     0.057180  d :     0.504356
      dxz     :     0.133372
      dyz     :     0.090620
      dx2y2   :     0.118466
      dxy     :     0.104717
      f0      :     0.010850  f :     0.078665
      f+1     :     0.006135
      f-1     :     0.006451
      f+2     :     0.010582
      f-2     :     0.006488
      f+3     :     0.015077
      f-3     :     0.023080
  2 C s       :     2.855462  s :     2.855462
      pz      :     1.041430  p :     2.910639
      px      :     1.040444
      py      :     0.828764
      dz2     :     0.056709  d :     0.426077
      dxz     :     0.117956
      dyz     :     0.068219
      dx2y2   :     0.093087
      dxy     :     0.090105
      f0      :     0.009749  f :     0.063871
      f+1     :     0.005228
      f-1     :     0.004784
      f+2     :     0.006425
      f-2     :     0.006033
      f+3     :     0.014051
      f-3     :     0.017600
  3 H s       :     0.822409  s :     0.822409
      pz      :     0.031348  p :     0.059062
      px      :     0.016491
      py      :     0.011224
  4 H s       :     0.827255  s :     0.827255
      pz      :     0.036314  p :     0.072042
      px      :     0.020947
      py      :     0.014781
  5 H s       :     0.822511  s :     0.822511
      pz      :     0.037879  p :     0.072656
      px      :     0.019293
      py      :     0.015485
  6 H s       :     0.805888  s :     0.805888
      pz      :     0.025789  p :     0.041601
      px      :     0.009524
      py      :     0.006288


                      *****************************
                      * MAYER POPULATION ANALYSIS *
                      *****************************

  NA   - Mulliken gross atomic population
  ZA   - Total nuclear charge
  QA   - Mulliken gross atomic charge
  VA   - Mayer's total valence
  BVA  - Mayer's bonded valence
  FA   - Mayer's free valence

  ATOM       NA         ZA         QA         VA         BVA        FA
  0 O      8.3220     8.0000    -0.3220     1.9784     1.9784    -0.0000
  1 C      6.0600     6.0000    -0.0600     3.9930     3.9930     0.0000
  2 C      6.0980     6.0000    -0.0980     3.9660     3.9660     0.0000
  3 H      0.8892     1.0000     0.1108     0.9624     0.9624    -0.0000
  4 H      0.8833     1.0000     0.1167     0.9644     0.9644     0.0000
  5 H      0.8733     1.0000     0.1267     0.9566     0.9566     0.0000
  6 H      0.8743     1.0000     0.1257     0.9646     0.9646     0.0000

  Mayer bond orders larger than 0.100000
B(  0-O ,  1-C ) :   0.9822 B(  0-O ,  2-C ) :   0.9867 B(  1-C ,  2-C ) :   1.0742 
B(  1-C ,  3-H ) :   0.9527 B(  1-C ,  4-H ) :   0.9657 B(  2-C ,  5-H ) :   0.9491 
B(  2-C ,  6-H ) :   0.9415 

-------
TIMINGS
-------

Total SCF time: 0 days 0 hours 0 min 0 sec 

Total time                  ....       0.975 sec
Sum of individual times     ....       0.886 sec  ( 90.8%)

Fock matrix formation       ....       0.678 sec  ( 69.5%)
  Split-RI-J                ....       0.113 sec  ( 16.7% of F)
  Chain of spheres X        ....       0.500 sec  ( 73.8% of F)
  XC integration            ....       0.063 sec  (  9.2% of F)
    Basis function eval.    ....       0.017 sec  ( 27.5% of XC)
    Density eval.           ....       0.014 sec  ( 21.6% of XC)
    XC-Functional eval.     ....       0.004 sec  (  5.7% of XC)
    XC-Potential eval.      ....       0.020 sec  ( 32.4% of XC)
Diagonalization             ....       0.002 sec  (  0.2%)
Density matrix formation    ....       0.000 sec  (  0.0%)
Population analysis         ....       0.002 sec  (  0.3%)
Initial guess               ....       0.008 sec  (  0.8%)
Orbital Transformation      ....       0.000 sec  (  0.0%)
Orbital Orthonormalization  ....       0.001 sec  (  0.1%)
DIIS solution               ....       0.001 sec  (  0.1%)
SOSCF solution              ....       0.003 sec  (  0.3%)
Grid generation             ....       0.191 sec  ( 19.6%)

Maximum memory used throughout the entire SCF-calculation: 61.1 MB


           ************************************************************
           *        Program running with 8 parallel MPI-processes     *
           *              working on a common directory               *
           ************************************************************
------------------------------------------------------------------------------
                        ORCA TD-DFT/TDA CALCULATION
------------------------------------------------------------------------------

Input orbitals are from        ... ox_es1_A_orca0009.gbw
CI-vector output               ... ox_es1_A_orca0009.cis
Tamm-Dancoff approximation     ... operative
CIS-Integral strategy          ... AO-integrals
Integral handling              ... AO integral Direct
Max. core memory used          ... 3000 MB
Reference state                ... RHF
Generation of triplets         ... off
Follow IRoot                   ... off
Number of operators            ... 1
Orbital ranges used for CIS calculation:
 Operator 0:  Orbitals   3... 11  to  12...116
XAS localization array:
 Operator 0:  Orbitals  -1... -1

-------------------
XC-INTEGRATION GRID
-------------------

General Integration Accuracy     IntAcc      ... 3.467
Radial Grid Type                 RadialGrid  ... OptM3 with GC (2021)
Angular Grid (max. ang.)         AngularGrid ... 1 (Lebedev-50)
Angular grid pruning method      GridPruning ... 4 (adaptive)
Weight generation scheme         WeightScheme... Becke
Basis function cutoff            BFCut       ... 1.0000e-11
Integration weight cutoff        WCut        ... 1.0000e-14
Angular grids for H and He will be reduced by one unit
Partially contracted basis set               ... off
Rotationally invariant grid construction     ... off

Total number of grid points                  ...     4536
Total number of batches                      ...       75
Average number of points per batch           ...       60
Average number of grid points per atom       ...      648

---------------------
COSX-INTEGRATION GRID
---------------------

General Integration Accuracy     IntAcc      ... 3.067
Radial Grid Type                 RadialGrid  ... OptM3 with GC (2021)
Angular Grid (max. ang.)         AngularGrid ... 1 (Lebedev-50)
Angular grid pruning method      GridPruning ... 4 (adaptive)
Weight generation scheme         WeightScheme... Becke
Basis function cutoff            BFCut       ... 1.0000e-11
Integration weight cutoff        WCut        ... 1.0000e-14
Angular grids for H and He will be reduced by one unit
Partially contracted basis set               ... on
Rotationally invariant grid construction     ... off

Total number of grid points                  ...     2085
Total number of batches                      ...       37
Average number of points per batch           ...       56
Average number of grid points per atom       ...      298

---------------
TD-DFT XC SETUP
---------------

DFT calculation                         ... on
Name of the grid file                   ... ox_es1_A_orca0009.grid_cis.tmp
Exchange functional (TD-DFT)            ... PBE
   PBE kappa parameter  XKappa (TD-DFT) ...  0.804000
   PBE mue parameter   XMuePBE (TD-DFT) ...  0.219520
Correlation functional (TD-DFT)         ... PBE
   PBE beta parameter CBetaPBE (TD-DFT) ...  0.066725
 LDA part of GGA corr.  LDAOpt (TD-DFT) ... PW91-LDA
Hybrid DFT                              ... on
   Exchange mixing (TD-DFT)             ...  0.250
   GGA exch. scaling (TD-DFT)           ...  0.750
   GGA corr. scaling (TD-DFT)           ...  1.000

Building densities             ... done
Calculating rho(r) on the grid ... done
Building xc-kernel on the grid ... done
                    *** TD-DFT CALCULATION INITIALIZED ***

------------------------
DAVIDSON-DIAGONALIZATION
------------------------

Dimension of the eigenvalue problem            ...    945
Number of roots to be determined               ...      1
Maximum size of the expansion space            ...     10
Maximum number of iterations                   ...    100
Convergence tolerance for the residual         ...    2.500e-07
Convergence tolerance for the energies         ...    2.500e-07
Orthogonality tolerance                        ...    1.000e-14
Level Shift                                    ...    0.000e+00
Constructing the preconditioner                ... o.k.
Building the initial guess                     ... o.k.
Number of trial vectors determined             ...     10


                       ****Iteration    0****

   Memory handling for direct AO based CIS:
   Memory per vector needed      ...     1 MB
   Memory needed                 ...     1 MB
   Memory available              ...  3000 MB
   Number of vectors per batch   ...  3000
   Number of batches             ...     1
   Time for densities:            0.001
   Time for RI-J (Direct):        0.015
   Time for K (COSX):             0.055
   Time for XC-Integration:       0.015
   Time for Sigma-Completion:     0.000
   Size of expansion space: 3
   Lowest Energy          :     0.284636674335
   Maximum Energy change  :     0.284636674335 (vector 0)
   Maximum residual norm  :     0.003913755213

                       ****Iteration    1****
   Time for densities:            0.000
   Time for RI-J (Direct):        0.012
   Time for K (COSX):             0.048
   Time for XC-Integration:       0.006
   Time for Sigma-Completion:     0.000
   Size of expansion space: 4
   Lowest Energy          :     0.281177167001
   Maximum Energy change  :     0.003459507334 (vector 0)
   Maximum residual norm  :     0.000629954895

                       ****Iteration    2****
   Time for densities:            0.000
   Time for RI-J (Direct):        0.012
   Time for K (COSX):             0.048
   Time for XC-Integration:       0.006
   Time for Sigma-Completion:     0.000
   Size of expansion space: 5
   Lowest Energy          :     0.280269244875
   Maximum Energy change  :     0.000907922126 (vector 0)
   Maximum residual norm  :     0.000178450241

                       ****Iteration    3****
   Time for densities:            0.000
   Time for RI-J (Direct):        0.012
   Time for K (COSX):             0.049
   Time for XC-Integration:       0.006
   Time for Sigma-Completion:     0.000
   Size of expansion space: 6
   Lowest Energy          :     0.279952991576
   Maximum Energy change  :     0.000316253299 (vector 0)
   Maximum residual norm  :     0.000055850640

                       ****Iteration    4****
   Time for densities:            0.000
   Time for RI-J (Direct):        0.012
   Time for K (COSX):             0.049
   Time for XC-Integration:       0.006
   Time for Sigma-Completion:     0.000
   Size of expansion space: 7
   Lowest Energy          :     0.279847751482
   Maximum Energy change  :     0.000105240094 (vector 0)
   Maximum residual norm  :     0.000013565089

                       ****Iteration    5****
   Time for densities:            0.000
   Time for RI-J (Direct):        0.012
   Time for K (COSX):             0.049
   Time for XC-Integration:       0.006
   Time for Sigma-Completion:     0.000
   Size of expansion space: 8
   Lowest Energy          :     0.279827215194
   Maximum Energy change  :     0.000020536288 (vector 0)
   Maximum residual norm  :     0.000002257003

                       ****Iteration    6****
   Time for densities:            0.000
   Time for RI-J (Direct):        0.012
   Time for K (COSX):             0.049
   Time for XC-Integration:       0.006
   Time for Sigma-Completion:     0.000
   Size of expansion space: 9
   Lowest Energy          :     0.279824348829
   Maximum Energy change  :     0.000002866365 (vector 0)
   Maximum residual norm  :     0.000000379960

                       ****Iteration    7****
   Time for densities:            0.000
   Time for RI-J (Direct):        0.012
   Time for K (COSX):             0.049
   Time for XC-Integration:       0.006
   Time for Sigma-Completion:     0.000
   Size of expansion space: 10
   Lowest Energy          :     0.279823851436
   Maximum Energy change  :     0.000000497393 (vector 0)
   Maximum residual norm  :     0.000000023441

      *** CONVERGENCE OF RESIDUAL NORM REACHED ***

Storing the converged CI vectors               ... ox_es1_A_orca0009.cis1

                 *** DAVIDSON DONE ***

Total time for solving the CIS problem:     0.563sec

------------------------------------
TD-DFT/TDA EXCITED STATES (SINGLETS)
------------------------------------

the weight of the individual excitations are printed if larger than 1.0e-02

STATE  1:  E=   0.279824 au      7.614 eV    61414.2 cm**-1 <S**2> =   0.000000
    11a ->  12a  :     0.171931 (c=  0.41464599)
    11a ->  13a  :     0.786465 (c= -0.88682856)
    11a ->  15a  :     0.013808 (c= -0.11750889)
    11a ->  16a  :     0.018651 (c= -0.13656740)


-----------------------------
TD-DFT/TDA-EXCITATION SPECTRA
-----------------------------

Center of mass = ( -0.0371, -0.1211,  0.0503)
Calculating the Dipole integrals                  ... done
Transforming integrals                            ... done
Calculating the Linear Momentum integrals         ... done
Transforming integrals                            ... done
Calculating angular momentum integrals            ... done
Transforming integrals                            ... done

-----------------------------------------------------------------------------
         ABSORPTION SPECTRUM VIA TRANSITION ELECTRIC DIPOLE MOMENTS
-----------------------------------------------------------------------------
State   Energy    Wavelength  fosc         T2        TX        TY        TZ  
        (cm-1)      (nm)                 (au**2)    (au)      (au)      (au) 
-----------------------------------------------------------------------------
   1   61414.2    162.8   0.000232957   0.00125  -0.02306   0.01423  -0.02268

-----------------------------------------------------------------------------
         ABSORPTION SPECTRUM VIA TRANSITION VELOCITY DIPOLE MOMENTS
-----------------------------------------------------------------------------
State   Energy    Wavelength   fosc        P2         PX        PY        PZ  
        (cm-1)      (nm)                 (au**2)     (au)      (au)      (au) 
-----------------------------------------------------------------------------
   1   61414.2    162.8   0.006402838   0.00269   0.00596   0.00001  -0.05150

-------------------------------------------------------------------
                             CD SPECTRUM
-------------------------------------------------------------------
State  Energy     Wavelength     R         MX        MY        MZ   
       (cm-1)       (nm)     (1e40*cgs)   (au)      (au)      (au)  
-------------------------------------------------------------------
   1   61414.2    162.8     -4.28852   0.32287  -0.13060  -0.00913

-------------------------------------------------------------------
         CD SPECTRUM VIA TRANSITION VELOCITY DIPOLE MOMENTS        
-------------------------------------------------------------------
State  Energy     Wavelength     R         MX        MY        MZ   
       (cm-1)       (nm)     (1e40*cgs)   (au)      (au)      (au)  
-------------------------------------------------------------------
   1   61414.2    162.8      4.02934   0.32287  -0.13060  -0.00913

Total run time:        0.827 sec

           *** ORCA-CIS/TD-DFT FINISHED WITHOUT ERROR ***

Maximum memory used throughout the entire CIS-calculation: 49.4 MB

-----------------------
CIS/TD-DFT TOTAL ENERGY
-----------------------

    E(SCF)  =   -153.651502569 Eh
    DE(CIS) =      0.279823851 Eh (Root  1)
    ----------------------------- ---------
    E(tot)  =   -153.371678718 Eh



-------------------------------------------------------------------------------
                          DFT DISPERSION CORRECTION                            
                                                                               
                              DFTD3 V3.1  Rev 1                                
                          USING Becke-Johnson damping                          
-------------------------------------------------------------------------------
The PBE0 functional is recognized
Active option DFTDOPT                   ...         4   

molecular C6(AA) [au] = 351.752101 


            DFT-D V3
 parameters
 s6 scaling factor         :     1.0000 
 a1 scaling factor         :     0.4145 
 s8 scaling factor         :     1.2177 
 a2 scaling factor         :     4.8593 
 ad hoc parameters k1-k3   :    16.0000     1.3333    -4.0000 

 Edisp/kcal,au: -1.514097414593  -0.002412867559 
 E6   /kcal   :  -0.992806041 
 E8   /kcal   :  -0.521291373 
 % E8         :  34.429183239 

-------------------------   ----------------
Dispersion correction           -0.002412868
-------------------------   ----------------


-------------------------   --------------------
FINAL SINGLE POINT ENERGY      -153.374091585424
-------------------------   --------------------



           ************************************************************
           *        Program running with 8 parallel MPI-processes     *
           *              working on a common directory               *
           ************************************************************
------------------------------------------------------------------------------
                         ORCA SCF GRADIENT CALCULATION
------------------------------------------------------------------------------


------------------------
TD-DFT GRADIENT XC SETUP
------------------------

Building densities                     ... done
Calculating rho(r) on the grid         ... done
Building xc-kernel on the grid         ... done
Building xc 3rd derivative on the grid      ... done
                *** TD-DFT GRADIENT CALCULATION INITIALIZED ***

-------------------
TD-DFT/TDA GRADIENT
-------------------

Reference wavefunction             ... RHF
State of interest                  ... 1
Basis dimension                    ... 117
DFT-XC contribution needed         ... YES
RI-approximation                   ... ON
CIS-vectors being read from        ... ox_es1_A_orca0009.cis

 => Number of Vectors found: 1
 => Orbital Window: 3...11 -> 12...116

Reading the CIS file                     ... done
Norm of the CI vector                    ... 1.000000000
Making the CIS (pseudo)densities         ... done
Making operators G(D) and Q(T)           ... done
Transforming the Fock operators          ... done
Making the frozen-core relaxed density   ... done
Constructing the G(H) operator           ... done
Transforming the G(H) operator           ... done
Calculating the CIS Lagrangian           ... done
Solving the Z-vector equations           ... done
Finalizing the relaxed density           ... done
Storing the relaxed density              ... done
Constructing the G(Z) operator           ... done
Transforming the G(Z) operator           ... done
Making the W-matrix                      ... done
Finalizing the W-matrix                  ... done
Transforming the W-matrix                ... done
Nuclear repulsion gradient               ... done
One-Electron gradient                    ... done
Dispersion correction                    ... done
Prescreening matrices                    ... done
COSX-gradient                            ... done
Coulomb gradient (RI)                    ... done
Exchange-Correlation gradient            ... done

                 ---------------------------
                 EXCITED STATE GRADIENT DONE
                 ---------------------------

------------------
CARTESIAN GRADIENT
------------------

   1   O   :    0.061489803   -0.108192053   -0.018380641
   2   C   :   -0.035694786   -0.003890381   -0.042834336
   3   C   :   -0.050175161    0.136797103   -0.072489706
   4   H   :    0.000623284   -0.005324767    0.003431857
   5   H   :    0.029862675    0.007646109    0.044136762
   6   H   :   -0.028550314   -0.001058348    0.030712732
   7   H   :    0.022444969   -0.025987721    0.055411566

Difference to translation invariance:
           :    0.0000004699   -0.0000100588   -0.0000117659

Difference to rotation invariance:
           :   -0.0004091983   -0.0001479839    0.0000117588

Norm of the cartesian gradient     ...    0.2331996066
RMS gradient                       ...    0.0508883261
MAX gradient                       ...    0.1367971027

------------------------------------------------------------------------------
                  RELAXED CIS/TDA DENSITY POPULATION ANALYSIS
                                   IROOT 1
------------------------------------------------------------------------------
------------------------------------------------------------------------------
                           ORCA POPULATION ANALYSIS
------------------------------------------------------------------------------
Input electron density              ... ox_es1_A_orca0009.cisp
BaseName (.gbw .S,...)              ... ox_es1_A_orca0009

                    ********************************
                    * MULLIKEN POPULATION ANALYSIS *
                    ********************************

-----------------------
MULLIKEN ATOMIC CHARGES
-----------------------
   0 O :    0.197260
   1 C :   -0.184091
   2 C :   -0.591226
   3 H :    0.148620
   4 H :    0.154805
   5 H :    0.177101
   6 H :    0.097532
Sum of atomic charges:    0.0000000

--------------------------------
MULLIKEN REDUCED ORBITAL CHARGES
--------------------------------
  0 O s       :     3.711323  s :     3.711323
      pz      :     1.102428  p :     4.051405
      px      :     1.525947
      py      :     1.423030
      dz2     :     0.004299  d :     0.038475
      dxz     :     0.002979
      dyz     :     0.006681
      dx2y2   :     0.011389
      dxy     :     0.013127
      f0      :     0.000099  f :     0.001537
      f+1     :    -0.000011
      f-1     :     0.000199
      f+2     :     0.000096
      f-2     :     0.000211
      f+3     :     0.000369
      f-3     :     0.000574
  1 C s       :     3.247028  s :     3.247028
      pz      :     1.049749  p :     2.833346
      px      :     1.033046
      py      :     0.750552
      dz2     :     0.007943  d :     0.093278
      dxz     :     0.024281
      dyz     :     0.011743
      dx2y2   :     0.030720
      dxy     :     0.018591
      f0      :     0.001002  f :     0.010439
      f+1     :     0.001544
      f-1     :     0.000537
      f+2     :     0.000955
      f-2     :     0.000958
      f+3     :     0.002490
      f-3     :     0.002952
  2 C s       :     3.249813  s :     3.249813
      pz      :     1.071379  p :     3.243516
      px      :     0.860287
      py      :     1.311850
      dz2     :     0.017194  d :     0.088161
      dxz     :     0.014521
      dyz     :     0.004796
      dx2y2   :     0.030433
      dxy     :     0.021218
      f0      :     0.001059  f :     0.009736
      f+1     :     0.001274
      f-1     :     0.000739
      f+2     :     0.000832
      f-2     :     0.000913
      f+3     :     0.002591
      f-3     :     0.002327
  3 H s       :     0.829103  s :     0.829103
      pz      :     0.011998  p :     0.022277
      px      :     0.006744
      py      :     0.003535
  4 H s       :     0.820709  s :     0.820709
      pz      :     0.012217  p :     0.024487
      px      :     0.008190
      py      :     0.004080
  5 H s       :     0.793532  s :     0.793532
      pz      :     0.012447  p :     0.029367
      px      :     0.006435
      py      :     0.010486
  6 H s       :     0.881168  s :     0.881168
      pz      :     0.011761  p :     0.021300
      px      :     0.004260
      py      :     0.005280


                     *******************************
                     * LOEWDIN POPULATION ANALYSIS *
                     *******************************

----------------------
LOEWDIN ATOMIC CHARGES
----------------------
   0 O :    0.405855
   1 C :   -0.323774
   2 C :   -0.595130
   3 H :    0.141246
   4 H :    0.123816
   5 H :    0.113228
   6 H :    0.134759

-------------------------------
LOEWDIN REDUCED ORBITAL CHARGES
-------------------------------
  0 O s       :     3.462071  s :     3.462071
      pz      :     1.048856  p :     4.026708
      px      :     1.491340
      py      :     1.486513
      dz2     :     0.011063  d :     0.099278
      dxz     :     0.008616
      dyz     :     0.015005
      dx2y2   :     0.033951
      dxy     :     0.030643
      f0      :     0.000629  f :     0.006089
      f+1     :     0.000123
      f-1     :     0.000683
      f+2     :     0.000205
      f-2     :     0.000946
      f+3     :     0.001132
      f-3     :     0.002371
  1 C s       :     2.819571  s :     2.819571
      pz      :     1.032898  p :     2.964493
      px      :     1.101792
      py      :     0.829804
      dz2     :     0.080975  d :     0.464073
      dxz     :     0.124123
      dyz     :     0.040047
      dx2y2   :     0.119643
      dxy     :     0.099284
      f0      :     0.007776  f :     0.075637
      f+1     :     0.006560
      f-1     :     0.006934
      f+2     :     0.007141
      f-2     :     0.004274
      f+3     :     0.019926
      f-3     :     0.023026
  2 C s       :     2.851062  s :     2.851062
      pz      :     1.047760  p :     3.161381
      px      :     1.020746
      py      :     1.092876
      dz2     :     0.104028  d :     0.512656
      dxz     :     0.098243
      dyz     :     0.024661
      dx2y2   :     0.139072
      dxy     :     0.146651
      f0      :     0.007488  f :     0.070030
      f+1     :     0.005135
      f-1     :     0.007430
      f+2     :     0.004596
      f-2     :     0.003834
      f+3     :     0.023945
      f-3     :     0.017603
  3 H s       :     0.795220  s :     0.795220
      pz      :     0.035171  p :     0.063534
      px      :     0.018122
      py      :     0.010241
  4 H s       :     0.799544  s :     0.799544
      pz      :     0.039005  p :     0.076640
      px      :     0.024405
      py      :     0.013229
  5 H s       :     0.798985  s :     0.798985
      pz      :     0.040465  p :     0.087788
      px      :     0.019276
      py      :     0.028046
  6 H s       :     0.808749  s :     0.808749
      pz      :     0.033659  p :     0.056492
      px      :     0.010298
      py      :     0.012535


                      *****************************
                      * MAYER POPULATION ANALYSIS *
                      *****************************

  NA   - Mulliken gross atomic population
  ZA   - Total nuclear charge
  QA   - Mulliken gross atomic charge
  VA   - Mayer's total valence
  BVA  - Mayer's bonded valence
  FA   - Mayer's free valence

  ATOM       NA         ZA         QA         VA         BVA        FA
  0 O      7.8027     8.0000     0.1973     1.7559     1.1002     0.6558
  1 C      6.1841     6.0000    -0.1841     3.9544     3.7442     0.2102
  2 C      6.5912     6.0000    -0.5912     4.0280     3.2436     0.7843
  3 H      0.8514     1.0000     0.1486     0.9891     0.9388     0.0504
  4 H      0.8452     1.0000     0.1548     0.9813     0.9454     0.0360
  5 H      0.8229     1.0000     0.1771     0.9960     0.9696     0.0264
  6 H      0.9025     1.0000     0.0975     1.0555     0.9409     0.1146

  Mayer bond orders larger than 0.100000
B(  0-O ,  1-C ) :   0.8289 B(  0-O ,  2-C ) :   0.2980 B(  1-C ,  2-C ) :   1.0507 
B(  1-C ,  3-H ) :   0.9073 B(  1-C ,  4-H ) :   0.9240 B(  2-C ,  5-H ) :   0.9630 
B(  2-C ,  6-H ) :   0.8981 


-------
TIMINGS
-------

Total TD-DFT gradient time         ...        5.034 sec

Fock matrix formation       ....       0.831 sec  ( 16.5%)
  Coulomb formation         ....       0.673 sec  ( 81.0% of F)
  RI-J                      ....       0.293 sec  ( 35.3% of F)
  Chain of spheres X        ....       0.379 sec  ( 45.6% of F)
  XC integration            ....       0.158 sec  ( 19.0% of F)
Z-vector equation           ....       1.386 sec  ( 27.5%)
One electron gradient       ....       0.031 sec  (  0.6%)
Prescreening matrices       ....       0.154 sec  (  3.1%)
RI-J Coulomb gradient       ....       0.264 sec  (  5.3%)
COSX gradient               ....       0.337 sec  (  6.7%)
XC gradient                 ....       1.708 sec  ( 33.9%)

Maximum memory used throughout the entire SCFGRAD-calculation: 130.3 MB

                            ***************************************
                            *     ORCA property calculations      *
                            ***************************************

                                    ---------------------
                                    Active property flags
                                    ---------------------
   (+) Dipole Moment


------------------------------------------------------------------------------
                       ORCA ELECTRIC PROPERTIES CALCULATION
------------------------------------------------------------------------------

Dipole Moment Calculation                       ... on
Quadrupole Moment Calculation                   ... off
Polarizability Calculation                      ... off
GBWName                                         ... ox_es1_A_orca0009.gbw
Electron density                                ... ox_es1_A_orca0009.scfp
The origin for moment calculation is the CENTER OF MASS  = (-0.037070, -0.121107  0.050304)

-------------
DIPOLE MOMENT
-------------
                                X             Y             Z
Electronic contribution:     -0.04272       1.52241      -0.22374
Nuclear contribution   :      0.06130      -2.27801       0.17145
                        -----------------------------------------
Total Dipole Moment    :      0.01857      -0.75559      -0.05229
                        -----------------------------------------
Magnitude (a.u.)       :      0.75763
Magnitude (Debye)      :      1.92574



--------------------
Rotational spectrum 
--------------------
 
Rotational constants in cm-1:     0.846257     0.724649     0.470819 
Rotational constants in MHz : 25370.139476 21724.438989 14114.800941 

 Dipole components along the rotational axes: 
x,y,z [a.u.] :     0.251077    -0.713894    -0.036256 
x,y,z [Debye]:     0.638187    -1.814576    -0.092156 

 

                        *** CIS RELAXED DENSITY ***

------------------------------------------------------------------------------
                       ORCA ELECTRIC PROPERTIES CALCULATION
------------------------------------------------------------------------------

Dipole Moment Calculation                       ... on
Quadrupole Moment Calculation                   ... off
Polarizability Calculation                      ... off
GBWName                                         ... ox_es1_A_orca0009.gbw
Electron density                                ... ox_es1_A_orca0009.cisp
The origin for moment calculation is the CENTER OF MASS  = (-0.037070, -0.121107  0.050304)

-------------
DIPOLE MOMENT
-------------
                                X             Y             Z
Electronic contribution:     -0.83961       2.09325      -0.32885
Nuclear contribution   :      0.06130      -2.27801       0.17145
                        -----------------------------------------
Total Dipole Moment    :     -0.77831      -0.18476      -0.15740
                        -----------------------------------------
Magnitude (a.u.)       :      0.81528
Magnitude (Debye)      :      2.07227



--------------------
Rotational spectrum 
--------------------
 
Rotational constants in cm-1:     0.846257     0.724649     0.470819 
Rotational constants in MHz : 25370.139476 21724.438989 14114.800941 

 Dipole components along the rotational axes: 
x,y,z [a.u.] :    -0.684188    -0.420292    -0.141143 
x,y,z [Debye]:    -1.739066    -1.068298    -0.358758 

 

Timings for individual modules:

Sum of individual times         ...        7.787 sec (=   0.130 min)
GTO integral calculation        ...        0.315 sec (=   0.005 min)   4.1 %
SCF iterations                  ...        1.181 sec (=   0.020 min)  15.2 %
CIS module                      ...        1.044 sec (=   0.017 min)  13.4 %
SCF Gradient evaluation         ...        5.248 sec (=   0.087 min)  67.4 %
                             ****ORCA TERMINATED NORMALLY****
TOTAL RUN TIME: 0 days 0 hours 0 minutes 8 seconds 174 msec
