
                                 *****************
                                 * O   R   C   A *
                                 *****************

                                            #,                                       
                                            ###                                      
                                            ####                                     
                                            #####                                    
                                            ######                                   
                                           ########,                                 
                                     ,,################,,,,,                         
                               ,,#################################,,                 
                          ,,##########################################,,             
                       ,#########################################, ''#####,          
                    ,#############################################,,   '####,        
                  ,##################################################,,,,####,       
                ,###########''''           ''''###############################       
              ,#####''   ,,,,##########,,,,          '''####'''          '####       
            ,##' ,,,,###########################,,,                        '##       
           ' ,,###''''                  '''############,,,                           
         ,,##''                                '''############,,,,        ,,,,,,###''
      ,#''                                            '''#######################'''  
     '                                                          ''''####''''         
             ,#######,   #######,   ,#######,      ##                                
            ,#'     '#,  ##    ##  ,#'     '#,    #''#        ######   ,####,        
            ##       ##  ##   ,#'  ##            #'  '#       #        #'  '#        
            ##       ##  #######   ##           ,######,      #####,   #    #        
            '#,     ,#'  ##    ##  '#,     ,#' ,#      #,         ##   #,  ,#        
             '#######'   ##     ##  '#######'  #'      '#     #####' # '####'        



                  #######################################################
                  #                        -***-                        #
                  #          Department of theory and spectroscopy      #
                  #    Directorship and core code : Frank Neese         #
                  #        Max Planck Institute fuer Kohlenforschung    #
                  #                Kaiser Wilhelm Platz 1               #
                  #                 D-45470 Muelheim/Ruhr               #
                  #                      Germany                        #
                  #                                                     #
                  #                  All rights reserved                #
                  #                        -***-                        #
                  #######################################################


                         Program Version 5.0.2 -  RELEASE  -


 With contributions from (in alphabetic order):
   Daniel Aravena         : Magnetic Suceptibility
   Michael Atanasov       : Ab Initio Ligand Field Theory (pilot matlab implementation)
   Alexander A. Auer      : GIAO ZORA, VPT2 properties, NMR spectrum
   Ute Becker             : Parallelization
   Giovanni Bistoni       : ED, misc. LED, open-shell LED, HFLD
   Martin Brehm           : Molecular dynamics
   Dmytro Bykov           : SCF Hessian
   Vijay G. Chilkuri      : MRCI spin determinant printing, contributions to CSF-ICE
   Dipayan Datta          : RHF DLPNO-CCSD density
   Achintya Kumar Dutta   : EOM-CC, STEOM-CC
   Dmitry Ganyushin       : Spin-Orbit,Spin-Spin,Magnetic field MRCI
   Miquel Garcia          : C-PCM and meta-GGA Hessian, CC/C-PCM, Gaussian charge scheme
   Yang Guo               : DLPNO-NEVPT2, F12-NEVPT2, CIM, IAO-localization
   Andreas Hansen         : Spin unrestricted coupled pair/coupled cluster methods
   Benjamin Helmich-Paris : MC-RPA, TRAH-SCF, COSX integrals
   Lee Huntington         : MR-EOM, pCC
   Robert Izsak           : Overlap fitted RIJCOSX, COSX-SCS-MP3, EOM
   Marcus Kettner         : VPT2
   Christian Kollmar      : KDIIS, OOCD, Brueckner-CCSD(T), CCSD density, CASPT2, CASPT2-K
   Simone Kossmann        : Meta GGA functionals, TD-DFT gradient, OOMP2, MP2 Hessian
   Martin Krupicka        : Initial AUTO-CI
   Lucas Lang             : DCDCAS
   Marvin Lechner         : AUTO-CI (C++ implementation), FIC-MRCC
   Dagmar Lenk            : GEPOL surface, SMD
   Dimitrios Liakos       : Extrapolation schemes; Compound Job, initial MDCI parallelization
   Dimitrios Manganas     : Further ROCIS development; embedding schemes
   Dimitrios Pantazis     : SARC Basis sets
   Anastasios Papadopoulos: AUTO-CI, single reference methods and gradients
   Taras Petrenko         : DFT Hessian,TD-DFT gradient, ASA, ECA, R-Raman, ABS, FL, XAS/XES, NRVS
   Peter Pinski           : DLPNO-MP2, DLPNO-MP2 Gradient
   Christoph Reimann      : Effective Core Potentials
   Marius Retegan         : Local ZFS, SOC
   Christoph Riplinger    : Optimizer, TS searches, QM/MM, DLPNO-CCSD(T), (RO)-DLPNO pert. Triples
   Tobias Risthaus        : Range-separated hybrids, TD-DFT gradient, RPA, STAB
   Michael Roemelt        : Original ROCIS implementation
   Masaaki Saitow         : Open-shell DLPNO-CCSD energy and density
   Barbara Sandhoefer     : DKH picture change effects
   Avijit Sen             : IP-ROCIS
   Kantharuban Sivalingam : CASSCF convergence, NEVPT2, FIC-MRCI
   Bernardo de Souza      : ESD, SOC TD-DFT
   Georgi Stoychev        : AutoAux, RI-MP2 NMR, DLPNO-MP2 response
   Willem Van den Heuvel  : Paramagnetic NMR
   Boris Wezisla          : Elementary symmetry handling
   Frank Wennmohs         : Technical directorship


 We gratefully acknowledge several colleagues who have allowed us to
 interface, adapt or use parts of their codes:
   Stefan Grimme, W. Hujo, H. Kruse, P. Pracht,  : VdW corrections, initial TS optimization,
                  C. Bannwarth, S. Ehlert          DFT functionals, gCP, sTDA/sTD-DF
   Ed Valeev, F. Pavosevic, A. Kumar             : LibInt (2-el integral package), F12 methods
   Garnet Chan, S. Sharma, J. Yang, R. Olivares  : DMRG
   Ulf Ekstrom                                   : XCFun DFT Library
   Mihaly Kallay                                 : mrcc  (arbitrary order and MRCC methods)
   Jiri Pittner, Ondrej Demel                    : Mk-CCSD
   Frank Weinhold                                : gennbo (NPA and NBO analysis)
   Christopher J. Cramer and Donald G. Truhlar   : smd solvation model
   Lars Goerigk                                  : TD-DFT with DH, B97 family of functionals
   V. Asgeirsson, H. Jonsson                     : NEB implementation
   FAccTs GmbH                                   : IRC, NEB, NEB-TS, DLPNO-Multilevel, CI-OPT
                                                   MM, QMMM, 2- and 3-layer-ONIOM, Crystal-QMMM,
                                                   LR-CPCM, SF, NACMEs, symmetry and pop. for TD-DFT,
                                                   nearIR, NL-DFT gradient (VV10), updates on ESD,
                                                   ML-optimized integration grids
   S Lehtola, MJT Oliveira, MAL Marques          : LibXC Library
   Liviu Ungur et al                             : ANISO software


 Your calculation uses the libint2 library for the computation of 2-el integrals
 For citations please refer to: http://libint.valeyev.net

 Your ORCA version has been built with support for libXC version: 5.1.0
 For citations please refer to: https://tddft.org/programs/libxc/

 This ORCA versions uses:
   CBLAS   interface :  Fast vector & matrix operations
   LAPACKE interface :  Fast linear algebra routines
   SCALAPACK package :  Parallel linear algebra routines
   Shared memory     :  Shared parallel matrices
   BLAS/LAPACK       :  OpenBLAS 0.3.15  USE64BITINT DYNAMIC_ARCH NO_AFFINITY SkylakeX SINGLE_THREADED
        Core in use  :  SkylakeX
   Copyright (c) 2011-2014, The OpenBLAS Project


Your calculation utilizes the atom-pairwise dispersion correction
with the Becke-Johnson damping scheme (D3BJ)
Cite in your paper:
S.Grimme, S.Ehrlich, L.Goerigk, J Comput Chem, (2011), 32, 1456–1465 
S.Grimme, J.Antony, S.Ehrlich and H.Krieg, J.Chem.Phys., 132, (2010), 154104 
   

================================================================================

----- Orbital basis set information -----
Your calculation utilizes the basis: def2-TZVP
   F. Weigend and R. Ahlrichs, Phys. Chem. Chem. Phys. 7, 3297 (2005).

----- AuxJ basis set information -----
Your calculation utilizes the auxiliary basis: def2/J
   F. Weigend, Phys. Chem. Chem. Phys. 8, 1057 (2006).

================================================================================
                                        WARNINGS
                       Please study these warnings very carefully!
================================================================================

INFO   : Checking CIS options ...

WARNING: CIS/ROCIS methods need fully converged wavefunctions
  ===> : Setting SCFConvForced true
         You can overwrite this default with %scf ConvForced false 


INFO   : the flag for use of the SHARK integral package has been found!

================================================================================
                                       INPUT FILE
================================================================================
NAME = ox_es1_D_orca0003.inp
|  1> ! engrad PBE0 D3BJ def2-TZVP  
|  2> %pal nprocs 8 end
|  3> %maxcore 3000
|  4> 
|  5> %tddft
|  6>   nroots 1
|  7>   tda true
|  8>   Iroot 1
|  9>   end 
| 10> *xyz 0 1 
| 11> O   -0.6760558291839665 0.9505118596229704 -0.0070507768165884955
| 12> C   -0.7343991716209768 -0.48638970451929103 -0.025707958217194144
| 13> C   0.686903461610899 -0.4263773203854076 -0.1048420950584123
| 14> H   -1.283101423706982 -0.6383072503981899 0.9478960487208161
| 15> H   -1.3294669808354926 -0.7583187581342034 -0.9527535048353902
| 16> H   1.3529397035192854 -0.6556485896401142 -0.960817037897408
| 17> H   1.2966393050408103 -0.7453791341842744 0.956961263748533
| 18> *
| 19> 
| 20>                          ****END OF INPUT****
================================================================================

                     *******************************
                     * Energy+Gradient Calculation *
                     *******************************

---------------------------------
CARTESIAN COORDINATES (ANGSTROEM)
---------------------------------
  O     -0.676056    0.950512   -0.007051
  C     -0.734399   -0.486390   -0.025708
  C      0.686903   -0.426377   -0.104842
  H     -1.283101   -0.638307    0.947896
  H     -1.329467   -0.758319   -0.952754
  H      1.352940   -0.655649   -0.960817
  H      1.296639   -0.745379    0.956961

----------------------------
CARTESIAN COORDINATES (A.U.)
----------------------------
  NO LB      ZA    FRAG     MASS         X           Y           Z
   0 O     8.0000    0    15.999   -1.277560    1.796207   -0.013324
   1 C     6.0000    0    12.011   -1.387813   -0.919143   -0.048581
   2 C     6.0000    0    12.011    1.298059   -0.805736   -0.198123
   3 H     1.0000    0     1.008   -2.424710   -1.206226    1.791264
   4 H     1.0000    0     1.008   -2.512328   -1.433015   -1.800443
   5 H     1.0000    0     1.008    2.556686   -1.238996   -1.815681
   6 H     1.0000    0     1.008    2.450293   -1.408562    1.808395

--------------------------------
INTERNAL COORDINATES (ANGSTROEM)
--------------------------------
 O      0   0   0     0.000000000000     0.00000000     0.00000000
 C      1   0   0     1.438206571067     0.00000000     0.00000000
 C      2   1   0     1.424768357697    85.30623118     0.00000000
 H      2   1   3     1.127855427134    98.22791324   122.31009868
 H      2   1   3     1.134664951987   105.74236272   240.95751767
 H      3   2   1     1.108540794563   129.31154560   251.54374855
 H      3   2   1     1.265292981386   115.05525825   106.47888626

---------------------------
INTERNAL COORDINATES (A.U.)
---------------------------
 O      0   0   0     0.000000000000     0.00000000     0.00000000
 C      1   0   0     2.717816543322     0.00000000     0.00000000
 C      2   1   0     2.692422000324    85.30623118     0.00000000
 H      2   1   3     2.131337875940    98.22791324   122.31009868
 H      2   1   3     2.144206013015   105.74236272   240.95751767
 H      3   2   1     2.094838510003   129.31154560   251.54374855
 H      3   2   1     2.391057213992   115.05525825   106.47888626

---------------------
BASIS SET INFORMATION
---------------------
There are 3 groups of distinct atoms

 Group   1 Type O   : 11s6p2d1f contracted to 5s3p2d1f pattern {62111/411/11/1}
 Group   2 Type C   : 11s6p2d1f contracted to 5s3p2d1f pattern {62111/411/11/1}
 Group   3 Type H   : 5s1p contracted to 3s1p pattern {311/1}

Atom   0O    basis set group =>   1
Atom   1C    basis set group =>   2
Atom   2C    basis set group =>   2
Atom   3H    basis set group =>   3
Atom   4H    basis set group =>   3
Atom   5H    basis set group =>   3
Atom   6H    basis set group =>   3
---------------------------------
AUXILIARY/J BASIS SET INFORMATION
---------------------------------
There are 3 groups of distinct atoms

 Group   1 Type O   : 12s5p4d2f1g contracted to 6s4p3d1f1g pattern {711111/2111/211/2/1}
 Group   2 Type C   : 12s5p4d2f1g contracted to 6s4p3d1f1g pattern {711111/2111/211/2/1}
 Group   3 Type H   : 5s2p1d contracted to 3s1p1d pattern {311/2/1}

Atom   0O    basis set group =>   1
Atom   1C    basis set group =>   2
Atom   2C    basis set group =>   2
Atom   3H    basis set group =>   3
Atom   4H    basis set group =>   3
Atom   5H    basis set group =>   3
Atom   6H    basis set group =>   3

Checking for AutoStart:
The File: ox_es1_D_orca0003.gbw exists
Trying to determine its content:
     ... Fine, the file contains calculation information
     ... Fine, the calculation information was read
     ... Fine, the file contains a basis set
     ... Fine, the basis set was read
     ... Fine, the file contains a geometry
     ... Fine, the geometry was read
     ... Fine, the file contains a set of orbitals
     ... Fine, the orbitals can be read
     => possible old guess file was deleted
     => GBW file was renamed to GES file
     => GES file is set as startup file
     => Guess is set to MORead
     ... now leaving AutoStart



           ************************************************************
           *        Program running with 8 parallel MPI-processes     *
           *              working on a common directory               *
           ************************************************************
------------------------------------------------------------------------------
                           ORCA GTO INTEGRAL CALCULATION
                           -- RI-GTO INTEGRALS CHOSEN --
------------------------------------------------------------------------------
------------------------------------------------------------------------------
                   ___                                                        
                  /   \      - P O W E R E D   B Y -                         
                 /     \                                                     
                 |  |  |   _    _      __       _____    __    __             
                 |  |  |  | |  | |    /  \     |  _  \  |  |  /  |          
                  \  \/   | |  | |   /    \    | | | |  |  | /  /          
                 / \  \   | |__| |  /  /\  \   | |_| |  |  |/  /          
                |  |  |   |  __  | /  /__\  \  |    /   |      \           
                |  |  |   | |  | | |   __   |  |    \   |  |\   \          
                \     /   | |  | | |  |  |  |  | |\  \  |  | \   \       
                 \___/    |_|  |_| |__|  |__|  |_| \__\ |__|  \__/        
                                                                              
                      - O R C A' S   B I G   F R I E N D -                    
                                      &                                       
                       - I N T E G R A L  F E E D E R -                       
                                                                              
 v1 FN, 2020, v2 2021                                                         
------------------------------------------------------------------------------


Reading SHARK input file ox_es1_D_orca0003.SHARKINP.tmp ... ok
----------------------
SHARK INTEGRAL PACKAGE
----------------------

Number of atoms                             ...      7
Number of basis functions                   ...    117
Number of shells                            ...     49
Maximum angular momentum                    ...      3
Integral batch strategy                     ... SHARK/LIBINT Hybrid
RI-J (if used) integral strategy            ... SPLIT-RIJ (Revised 2003 algorithm where possible)
Printlevel                                  ...      1
Contraction scheme used                     ... SEGMENTED contraction
Coulomb Range Separation                    ... NOT USED
Exchange Range Separation                   ... NOT USED
Finite Nucleus Model                        ... NOT USED
Auxiliary Coulomb fitting basis             ... AVAILABLE
   # of basis functions in Aux-J            ...    191
   # of shells in Aux-J                     ...     65
   Maximum angular momentum in Aux-J        ...      4
Auxiliary J/K fitting basis                 ... NOT available
Auxiliary Correlation fitting basis         ... NOT available
Auxiliary 'external' fitting basis          ... NOT available
Integral threshold                          ...     2.500000e-11
Primitive cut-off                           ...     2.500000e-12
Primitive pair pre-selection threshold      ...     2.500000e-12

Calculating pre-screening integrals         ... done (  0.0 sec) Dimension = 49
Organizing shell pair data                  ... done (  0.0 sec)
Shell pair information
Total number of shell pairs                 ...      1225
Shell pairs after pre-screening             ...      1215
Total number of primitive shell pairs       ...      3648
Primitive shell pairs kept                  ...      3089
          la=0 lb=0:    368 shell pairs
          la=1 lb=0:    351 shell pairs
          la=1 lb=1:     91 shell pairs
          la=2 lb=0:    162 shell pairs
          la=2 lb=1:     78 shell pairs
          la=2 lb=2:     21 shell pairs
          la=3 lb=0:     81 shell pairs
          la=3 lb=1:     39 shell pairs
          la=3 lb=2:     18 shell pairs
          la=3 lb=3:      6 shell pairs

Calculating one electron integrals          ... done (  0.0 sec)
Calculating RI/J V-Matrix + Cholesky decomp.... done (  0.0 sec)
Calculating Nuclear repulsion               ... done (  0.0 sec) ENN=     69.313430163808 Eh

SHARK setup successfully completed in   0.1 seconds

Maximum memory used throughout the entire GTOINT-calculation: 14.9 MB


           ************************************************************
           *        Program running with 8 parallel MPI-processes     *
           *              working on a common directory               *
           ************************************************************
-------------------------------------------------------------------------------
                                 ORCA SCF
-------------------------------------------------------------------------------

------------
SCF SETTINGS
------------
Hamiltonian:
 Density Functional     Method          .... DFT(GTOs)
 Exchange Functional    Exchange        .... PBE
   PBE kappa parameter   XKappa         ....  0.804000
   PBE mue parameter    XMuePBE         ....  0.219520
 Correlation Functional Correlation     .... PBE
   PBE beta parameter  CBetaPBE         ....  0.066725
 LDA part of GGA corr.  LDAOpt          .... PW91-LDA
 Gradients option       PostSCFGGA      .... off
 Hybrid DFT is turned on
   Fraction HF Exchange ScalHFX         ....  0.250000
   Scaling of DF-GGA-X  ScalDFX         ....  0.750000
   Scaling of DF-GGA-C  ScalDFC         ....  1.000000
   Scaling of DF-LDA-C  ScalLDAC        ....  1.000000
   Perturbative correction              ....  0.000000
   Density functional embedding theory  .... OFF
   NL short-range parameter             ....  6.900000
 RI-approximation to the Coulomb term is turned on
   Number of AuxJ basis functions       .... 191
   RIJ-COSX (HFX calculated with COS-X)).... on


General Settings:
 Integral files         IntName         .... ox_es1_D_orca0003
 Hartree-Fock type      HFTyp           .... RHF
 Total Charge           Charge          ....    0
 Multiplicity           Mult            ....    1
 Number of Electrons    NEL             ....   24
 Basis Dimension        Dim             ....  117
 Nuclear Repulsion      ENuc            ....     69.3134301638 Eh

Convergence Acceleration:
 DIIS                   CNVDIIS         .... on
   Start iteration      DIISMaxIt       ....    12
   Startup error        DIISStart       ....  0.200000
   # of expansion vecs  DIISMaxEq       ....     5
   Bias factor          DIISBfac        ....   1.050
   Max. coefficient     DIISMaxC        ....  10.000
 Trust-Rad. Augm. Hess. CNVTRAH         .... auto
   Auto Start mean grad. ratio tolernc. ....  1.125000
   Auto Start start iteration           ....     1
   Auto Start num. interpolation iter.  ....    10
   Max. Number of Micro iterations      ....    16
   Max. Number of Macro iterations      .... Maxiter - #DIIS iter
   Number of Davidson start vectors     ....     2
   Converg. threshold I  (grad. norm)   ....   1.000e-05
   Converg. threshold II (energy diff.) ....   1.000e-08
   Grad. Scal. Fac. for Micro threshold ....   0.100
   Minimum threshold for Micro iter.    ....   0.010
   NR start threshold (gradient norm)   ....   0.001
   Initial trust radius                 ....   0.400
   Minimum AH scaling param. (alpha)    ....   1.000
   Maximum AH scaling param. (alpha)    .... 1000.000
   Orbital update algorithm             .... Taylor
   White noise on init. David. guess    .... on
   Maximum white noise                  ....   0.010
   Quad. conv. algorithm                .... NR
 SOSCF                  CNVSOSCF        .... on
   Start iteration      SOSCFMaxIt      ....   150
   Startup grad/error   SOSCFStart      ....  0.003300
 Level Shifting         CNVShift        .... on
   Level shift para.    LevelShift      ....    0.2500
   Turn off err/grad.   ShiftErr        ....    0.0010
 Zerner damping         CNVZerner       .... off
 Static damping         CNVDamp         .... on
   Fraction old density DampFac         ....    0.7000
   Max. Damping (<1)    DampMax         ....    0.9800
   Min. Damping (>=0)   DampMin         ....    0.0000
   Turn off err/grad.   DampErr         ....    0.1000
 Fernandez-Rico         CNVRico         .... off

SCF Procedure:
 Maximum # iterations   MaxIter         ....   125
 SCF integral mode      SCFMode         .... Direct
   Integral package                     .... SHARK and LIBINT hybrid scheme
 Reset frequency        DirectResetFreq ....    20
 Integral Threshold     Thresh          ....  2.500e-11 Eh
 Primitive CutOff       TCut            ....  2.500e-12 Eh

Convergence Tolerance:
 Convergence Check Mode ConvCheckMode   .... Total+1el-Energy
 Convergence forced     ConvForced      .... 1
 Energy Change          TolE            ....  1.000e-08 Eh
 1-El. energy change                    ....  1.000e-05 Eh
 Orbital Gradient       TolG            ....  1.000e-05
 Orbital Rotation angle TolX            ....  1.000e-05
 DIIS Error             TolErr          ....  5.000e-07


Diagonalization of the overlap matrix:
Smallest eigenvalue                        ... 3.429e-04
Time for diagonalization                   ...    0.001 sec
Threshold for overlap eigenvalues          ... 1.000e-08
Number of eigenvalues below threshold      ... 0
Time for construction of square roots      ...    0.002 sec
Total time needed                          ...    0.003 sec

---------------------
INITIAL GUESS: MOREAD
---------------------
Guess MOs are being read from file: ox_es1_D_orca0003.ges
Input Geometry matches current geometry (good)
Input basis set matches current basis set (good)
MOs were renormalized
MOs were reorthogonalized (Cholesky)
                      ------------------
                      INITIAL GUESS DONE (   0.0 sec)
                      ------------------
-------------------
DFT GRID GENERATION
-------------------

General Integration Accuracy     IntAcc      ... 4.388
Radial Grid Type                 RadialGrid  ... OptM3 with GC (2021)
Angular Grid (max. ang.)         AngularGrid ... 4 (Lebedev-302)
Angular grid pruning method      GridPruning ... 4 (adaptive)
Weight generation scheme         WeightScheme... Becke
Basis function cutoff            BFCut       ... 1.0000e-11
Integration weight cutoff        WCut        ... 1.0000e-14
Angular grids for H and He will be reduced by one unit
Partially contracted basis set               ... off
Rotationally invariant grid construction     ... off

Total number of grid points                  ...    31337
Total number of batches                      ...      493
Average number of points per batch           ...       63
Average number of grid points per atom       ...     4477
Time for grid setup =    0.118 sec

--------------------
COSX GRID GENERATION
--------------------

GRIDX 1
-------
General Integration Accuracy     IntAcc      ... 3.816
Radial Grid Type                 RadialGrid  ... OptM3 with GC (2021)
Angular Grid (max. ang.)         AngularGrid ... 1 (Lebedev-50)
Angular grid pruning method      GridPruning ... 4 (adaptive)
Weight generation scheme         WeightScheme... Becke
Basis function cutoff            BFCut       ... 1.0000e-11
Integration weight cutoff        WCut        ... 1.0000e-14
Angular grids for H and He will be reduced by one unit
Partially contracted basis set               ... on
Rotationally invariant grid construction     ... off

Total number of grid points                  ...     4032
Total number of batches                      ...       67
Average number of points per batch           ...       60
Average number of grid points per atom       ...      576
UseSFitting                                  ... on

GRIDX 2
-------
General Integration Accuracy     IntAcc      ... 4.020
Radial Grid Type                 RadialGrid  ... OptM3 with GC (2021)
Angular Grid (max. ang.)         AngularGrid ... 2 (Lebedev-110)
Angular grid pruning method      GridPruning ... 4 (adaptive)
Weight generation scheme         WeightScheme... Becke
Basis function cutoff            BFCut       ... 1.0000e-11
Integration weight cutoff        WCut        ... 1.0000e-14
Angular grids for H and He will be reduced by one unit
Partially contracted basis set               ... on
Rotationally invariant grid construction     ... off

Total number of grid points                  ...     8725
Total number of batches                      ...      140
Average number of points per batch           ...       62
Average number of grid points per atom       ...     1246
UseSFitting                                  ... on

GRIDX 3
-------
General Integration Accuracy     IntAcc      ... 4.338
Radial Grid Type                 RadialGrid  ... OptM3 with GC (2021)
Angular Grid (max. ang.)         AngularGrid ... 3 (Lebedev-194)
Angular grid pruning method      GridPruning ... 4 (adaptive)
Weight generation scheme         WeightScheme... Becke
Basis function cutoff            BFCut       ... 1.0000e-11
Integration weight cutoff        WCut        ... 1.0000e-14
Angular grids for H and He will be reduced by one unit
Partially contracted basis set               ... on
Rotationally invariant grid construction     ... off

Total number of grid points                  ...    19267
Total number of batches                      ...      304
Average number of points per batch           ...       63
Average number of grid points per atom       ...     2752
UseSFitting                                  ... on

Time for X-Grid setup             =    0.073 sec

--------------
SCF ITERATIONS
--------------
ITER       Energy         Delta-E        Max-DP      RMS-DP      [F,P]     Damp
               ***  Starting incremental Fock matrix formation  ***
                      *** Initiating the SOSCF procedure ***
                      *** Re-Reading the Fockian *** 
                      *** Removing any level shift *** 
ITER      Energy       Delta-E        Grad      Rot      Max-DP    RMS-DP
  0   -153.57110724 -153.5711072350  0.000002  0.000002  0.000005  0.000000
               *** Restarting incremental Fock matrix formation ***
                  ***Gradient check signals convergence***
              ***Rediagonalizing the Fockian in SOSCF/NRSCF***

               *****************************************************
               *                     SUCCESS                       *
               *           SCF CONVERGED AFTER   1 CYCLES          *
               *****************************************************

Old exchange energy                            =     -4.939368065 Eh
New exchange energy                            =     -4.939380035 Eh
Exchange energy change after final integration =     -0.000011970 Eh
Total energy after final integration           =   -153.571119205 Eh
Final COS-X integration done in                =     0.256 sec

----------------
TOTAL SCF ENERGY
----------------

Total Energy       :         -153.57111920 Eh           -4178.88260 eV

Components:
Nuclear Repulsion  :           69.31343016 Eh            1886.11432 eV
Electronic Energy  :         -222.88454937 Eh           -6064.99693 eV
One Electron Energy:         -345.52130694 Eh           -9402.11276 eV
Two Electron Energy:          122.63675757 Eh            3337.11583 eV
Max COSX asymmetry :            0.00000140 Eh               0.00004 eV

Virial components:
Potential Energy   :         -306.02025837 Eh           -8327.23458 eV
Kinetic Energy     :          152.44913917 Eh            4148.35197 eV
Virial Ratio       :            2.00735970


DFT components:
N(Alpha)           :       12.000003217891 electrons
N(Beta)            :       12.000003217891 electrons
N(Total)           :       24.000006435782 electrons
E(X)               :      -14.827730429961 Eh       
E(C)               :       -0.772877542282 Eh       
E(XC)              :      -15.600607972244 Eh       
DFET-embed. en.    :        0.000000000000 Eh       

---------------
SCF CONVERGENCE
---------------

  Last Energy change         ...   -4.6441e-11  Tolerance :   1.0000e-08
  Last MAX-Density change    ...    1.5543e-15  Tolerance :   1.0000e-07
  Last RMS-Density change    ...    2.3730e-17  Tolerance :   5.0000e-09
  Last Orbital Gradient      ...    1.6146e-06  Tolerance :   1.0000e-05
  Last Orbital Rotation      ...    7.6550e-06  Tolerance :   1.0000e-05

             **** THE GBW FILE WAS UPDATED (ox_es1_D_orca0003.gbw) ****
             **** DENSITY ox_es1_D_orca0003.scfp WAS UPDATED ****
             **** ENERGY FILE WAS UPDATED (ox_es1_D_orca0003.en.tmp) ****
             **** THE GBW FILE WAS UPDATED (ox_es1_D_orca0003.gbw) ****
             **** DENSITY ox_es1_D_orca0003.scfp WAS UPDATED ****
----------------
ORBITAL ENERGIES
----------------

  NO   OCC          E(Eh)            E(eV) 
   0   2.0000     -19.213108      -522.8153 
   1   2.0000     -10.325204      -280.9631 
   2   2.0000     -10.281021      -279.7608 
   3   2.0000      -1.012742       -27.5581 
   4   2.0000      -0.750774       -20.4296 
   5   2.0000      -0.619095       -16.8464 
   6   2.0000      -0.504862       -13.7380 
   7   2.0000      -0.489405       -13.3174 
   8   2.0000      -0.404511       -11.0073 
   9   2.0000      -0.380997       -10.3675 
  10   2.0000      -0.302692        -8.2367 
  11   2.0000      -0.268145        -7.2966 
  12   0.0000      -0.091774        -2.4973 
  13   0.0000       0.038285         1.0418 
  14   0.0000       0.071063         1.9337 
  15   0.0000       0.075037         2.0418 
  16   0.0000       0.114569         3.1176 
  17   0.0000       0.142095         3.8666 
  18   0.0000       0.184737         5.0270 
  19   0.0000       0.198876         5.4117 
  20   0.0000       0.239244         6.5102 
  21   0.0000       0.248089         6.7508 
  22   0.0000       0.275701         7.5022 
  23   0.0000       0.320553         8.7227 
  24   0.0000       0.364125         9.9083 
  25   0.0000       0.367539        10.0012 
  26   0.0000       0.399400        10.8682 
  27   0.0000       0.403721        10.9858 
  28   0.0000       0.427029        11.6201 
  29   0.0000       0.477014        12.9802 
  30   0.0000       0.506201        13.7744 
  31   0.0000       0.515204        14.0194 
  32   0.0000       0.548454        14.9242 
  33   0.0000       0.632152        17.2017 
  34   0.0000       0.679747        18.4968 
  35   0.0000       0.764319        20.7982 
  36   0.0000       0.780238        21.2313 
  37   0.0000       0.840508        22.8714 
  38   0.0000       0.861841        23.4519 
  39   0.0000       0.930484        25.3198 
  40   0.0000       0.944063        25.6893 
  41   0.0000       1.034414        28.1478 
  42   0.0000       1.074244        29.2317 
  43   0.0000       1.094415        29.7805 
  44   0.0000       1.180937        32.1349 
  45   0.0000       1.349275        36.7156 
  46   0.0000       1.396693        38.0059 
  47   0.0000       1.449444        39.4414 
  48   0.0000       1.506017        40.9808 
  49   0.0000       1.532080        41.6900 
  50   0.0000       1.555874        42.3375 
  51   0.0000       1.585347        43.1395 
  52   0.0000       1.657497        45.1028 
  53   0.0000       1.671679        45.4887 
  54   0.0000       1.693424        46.0804 
  55   0.0000       1.754016        47.7292 
  56   0.0000       1.803206        49.0677 
  57   0.0000       1.820791        49.5462 
  58   0.0000       1.876896        51.0729 
  59   0.0000       1.917621        52.1811 
  60   0.0000       1.992320        54.2138 
  61   0.0000       2.049272        55.7635 
  62   0.0000       2.102022        57.1989 
  63   0.0000       2.214292        60.2540 
  64   0.0000       2.278290        61.9954 
  65   0.0000       2.322832        63.2075 
  66   0.0000       2.390005        65.0353 
  67   0.0000       2.408795        65.5466 
  68   0.0000       2.447769        66.6072 
  69   0.0000       2.504179        68.1422 
  70   0.0000       2.511643        68.3453 
  71   0.0000       2.584806        70.3362 
  72   0.0000       2.623114        71.3786 
  73   0.0000       2.686551        73.1048 
  74   0.0000       2.756963        75.0208 
  75   0.0000       2.771618        75.4196 
  76   0.0000       2.863147        77.9102 
  77   0.0000       2.915116        79.3243 
  78   0.0000       2.965717        80.7013 
  79   0.0000       3.001540        81.6761 
  80   0.0000       3.022139        82.2366 
  81   0.0000       3.073859        83.6440 
  82   0.0000       3.097934        84.2991 
  83   0.0000       3.130882        85.1956 
  84   0.0000       3.173861        86.3651 
  85   0.0000       3.186191        86.7007 
  86   0.0000       3.284802        89.3840 
  87   0.0000       3.303301        89.8874 
  88   0.0000       3.473217        94.5110 
  89   0.0000       3.498416        95.1967 
  90   0.0000       3.564658        96.9993 
  91   0.0000       3.658331        99.5482 
  92   0.0000       3.698264       100.6349 
  93   0.0000       3.798688       103.3675 
  94   0.0000       3.993468       108.6678 
  95   0.0000       4.100381       111.5770 
  96   0.0000       4.126250       112.2810 
  97   0.0000       4.183347       113.8347 
  98   0.0000       4.332059       117.8813 
  99   0.0000       4.529750       123.2608 
 100   0.0000       4.552239       123.8727 
 101   0.0000       4.730858       128.7332 
 102   0.0000       5.229115       142.2915 
 103   0.0000       5.251376       142.8972 
 104   0.0000       5.365658       146.0070 
 105   0.0000       5.390691       146.6882 
 106   0.0000       5.731949       155.9743 
 107   0.0000       5.752121       156.5232 
 108   0.0000       5.917878       161.0336 
 109   0.0000       6.393873       173.9861 
 110   0.0000       6.480333       176.3388 
 111   0.0000       6.767566       184.1548 
 112   0.0000       6.888034       187.4329 
 113   0.0000       6.970013       189.6637 
 114   0.0000      21.982788       598.1821 
 115   0.0000      22.354451       608.2955 
 116   0.0000      43.696131      1189.0322 

                    ********************************
                    * MULLIKEN POPULATION ANALYSIS *
                    ********************************

-----------------------
MULLIKEN ATOMIC CHARGES
-----------------------
   0 O :   -0.359271
   1 C :   -0.036343
   2 C :   -0.158339
   3 H :    0.127964
   4 H :    0.108351
   5 H :    0.170802
   6 H :    0.146836
Sum of atomic charges:   -0.0000000

--------------------------------
MULLIKEN REDUCED ORBITAL CHARGES
--------------------------------
  0 O s       :     3.912352  s :     3.912352
      pz      :     1.903667  p :     4.420563
      px      :     1.291537
      py      :     1.225358
      dz2     :     0.003562  d :     0.025063
      dxz     :     0.000487
      dyz     :     0.005031
      dx2y2   :     0.008402
      dxy     :     0.007580
      f0      :     0.000146  f :     0.001294
      f+1     :     0.000074
      f-1     :     0.000321
      f+2     :     0.000143
      f-2     :     0.000032
      f+3     :     0.000282
      f-3     :     0.000296
  1 C s       :     3.192194  s :     3.192194
      pz      :     1.056964  p :     2.684356
      px      :     0.912959
      py      :     0.714433
      dz2     :     0.010333  d :     0.149398
      dxz     :     0.021056
      dyz     :     0.044692
      dx2y2   :     0.026450
      dxy     :     0.046868
      f0      :     0.001693  f :     0.010395
      f+1     :     0.001164
      f-1     :     0.000766
      f+2     :     0.002951
      f-2     :     0.000118
      f+3     :     0.002099
      f-3     :     0.001604
  2 C s       :     3.308877  s :     3.308877
      pz      :     1.033734  p :     2.778152
      px      :     0.981018
      py      :     0.763400
      dz2     :     0.006361  d :     0.065408
      dxz     :     0.025310
      dyz     :     0.008079
      dx2y2   :     0.008764
      dxy     :     0.016895
      f0      :     0.000554  f :     0.005903
      f+1     :     0.000995
      f-1     :     0.000185
      f+2     :     0.000945
      f-2     :     0.000504
      f+3     :     0.001136
      f-3     :     0.001584
  3 H s       :     0.851681  s :     0.851681
      pz      :     0.010636  p :     0.020355
      px      :     0.005700
      py      :     0.004019
  4 H s       :     0.872229  s :     0.872229
      pz      :     0.009688  p :     0.019421
      px      :     0.006174
      py      :     0.003559
  5 H s       :     0.806996  s :     0.806996
      pz      :     0.009802  p :     0.022201
      px      :     0.008264
      py      :     0.004135
  6 H s       :     0.837188  s :     0.837188
      pz      :     0.008543  p :     0.015976
      px      :     0.004569
      py      :     0.002863


                     *******************************
                     * LOEWDIN POPULATION ANALYSIS *
                     *******************************

----------------------
LOEWDIN ATOMIC CHARGES
----------------------
   0 O :   -0.041894
   1 C :   -0.426221
   2 C :   -0.087635
   3 H :    0.132527
   4 H :    0.124153
   5 H :    0.134193
   6 H :    0.164878

-------------------------------
LOEWDIN REDUCED ORBITAL CHARGES
-------------------------------
  0 O s       :     3.561982  s :     3.561982
      pz      :     1.829883  p :     4.421676
      px      :     1.249542
      py      :     1.342250
      dz2     :     0.007626  d :     0.054699
      dxz     :     0.000816
      dyz     :     0.012874
      dx2y2   :     0.017564
      dxy     :     0.015819
      f0      :     0.000341  f :     0.003536
      f+1     :     0.000112
      f-1     :     0.000601
      f+2     :     0.000625
      f-2     :     0.000049
      f+3     :     0.001067
      f-3     :     0.000742
  1 C s       :     2.840447  s :     2.840447
      pz      :     1.043221  p :     2.926264
      px      :     1.062099
      py      :     0.820944
      dz2     :     0.063889  d :     0.585720
      dxz     :     0.116093
      dyz     :     0.117681
      dx2y2   :     0.137051
      dxy     :     0.151006
      f0      :     0.010429  f :     0.073790
      f+1     :     0.005567
      f-1     :     0.007103
      f+2     :     0.016919
      f-2     :     0.000891
      f+3     :     0.015163
      f-3     :     0.017718
  2 C s       :     2.920700  s :     2.920700
      pz      :     1.055043  p :     2.866927
      px      :     1.101810
      py      :     0.710074
      dz2     :     0.029743  d :     0.270757
      dxz     :     0.119778
      dyz     :     0.019008
      dx2y2   :     0.046880
      dxy     :     0.055348
      f0      :     0.003286  f :     0.029252
      f+1     :     0.003413
      f-1     :     0.001410
      f+2     :     0.004906
      f-2     :     0.002161
      f+3     :     0.005975
      f-3     :     0.008100
  3 H s       :     0.811982  s :     0.811982
      pz      :     0.030352  p :     0.055491
      px      :     0.014726
      py      :     0.010413
  4 H s       :     0.822348  s :     0.822348
      pz      :     0.028048  p :     0.053499
      px      :     0.015799
      py      :     0.009652
  5 H s       :     0.802000  s :     0.802000
      pz      :     0.030670  p :     0.063808
      px      :     0.021563
      py      :     0.011575
  6 H s       :     0.794509  s :     0.794509
      pz      :     0.023263  p :     0.040614
      px      :     0.010284
      py      :     0.007067


                      *****************************
                      * MAYER POPULATION ANALYSIS *
                      *****************************

  NA   - Mulliken gross atomic population
  ZA   - Total nuclear charge
  QA   - Mulliken gross atomic charge
  VA   - Mayer's total valence
  BVA  - Mayer's bonded valence
  FA   - Mayer's free valence

  ATOM       NA         ZA         QA         VA         BVA        FA
  0 O      8.3593     8.0000    -0.3593     1.8670     1.8670    -0.0000
  1 C      6.0363     6.0000    -0.0363     4.0067     4.0067    -0.0000
  2 C      6.1583     6.0000    -0.1583     3.8704     3.8704     0.0000
  3 H      0.8720     1.0000     0.1280     0.9673     0.9673    -0.0000
  4 H      0.8916     1.0000     0.1084     0.9611     0.9611    -0.0000
  5 H      0.8292     1.0000     0.1708     0.9506     0.9506     0.0000
  6 H      0.8532     1.0000     0.1468     0.9587     0.9587    -0.0000

  Mayer bond orders larger than 0.100000
B(  0-O ,  1-C ) :   0.9671 B(  0-O ,  2-C ) :   0.8878 B(  1-C ,  2-C ) :   1.1086 
B(  1-C ,  3-H ) :   0.9637 B(  1-C ,  4-H ) :   0.9468 B(  2-C ,  5-H ) :   0.9326 
B(  2-C ,  6-H ) :   0.9301 

-------
TIMINGS
-------

Total SCF time: 0 days 0 hours 0 min 1 sec 

Total time                  ....       1.039 sec
Sum of individual times     ....       0.908 sec  ( 87.4%)

Fock matrix formation       ....       0.700 sec  ( 67.4%)
  Split-RI-J                ....       0.113 sec  ( 16.1% of F)
  Chain of spheres X        ....       0.516 sec  ( 73.6% of F)
  XC integration            ....       0.063 sec  (  8.9% of F)
    Basis function eval.    ....       0.017 sec  ( 27.6% of XC)
    Density eval.           ....       0.014 sec  ( 21.7% of XC)
    XC-Functional eval.     ....       0.004 sec  (  5.9% of XC)
    XC-Potential eval.      ....       0.020 sec  ( 31.4% of XC)
Diagonalization             ....       0.002 sec  (  0.2%)
Density matrix formation    ....       0.000 sec  (  0.0%)
Population analysis         ....       0.003 sec  (  0.2%)
Initial guess               ....       0.008 sec  (  0.8%)
Orbital Transformation      ....       0.000 sec  (  0.0%)
Orbital Orthonormalization  ....       0.001 sec  (  0.1%)
DIIS solution               ....       0.001 sec  (  0.1%)
SOSCF solution              ....       0.002 sec  (  0.2%)
Grid generation             ....       0.191 sec  ( 18.4%)

Maximum memory used throughout the entire SCF-calculation: 61.1 MB


           ************************************************************
           *        Program running with 8 parallel MPI-processes     *
           *              working on a common directory               *
           ************************************************************
------------------------------------------------------------------------------
                        ORCA TD-DFT/TDA CALCULATION
------------------------------------------------------------------------------

Input orbitals are from        ... ox_es1_D_orca0003.gbw
CI-vector output               ... ox_es1_D_orca0003.cis
Tamm-Dancoff approximation     ... operative
CIS-Integral strategy          ... AO-integrals
Integral handling              ... AO integral Direct
Max. core memory used          ... 3000 MB
Reference state                ... RHF
Generation of triplets         ... off
Follow IRoot                   ... off
Number of operators            ... 1
Orbital ranges used for CIS calculation:
 Operator 0:  Orbitals   3... 11  to  12...116
XAS localization array:
 Operator 0:  Orbitals  -1... -1

-------------------
XC-INTEGRATION GRID
-------------------

General Integration Accuracy     IntAcc      ... 3.467
Radial Grid Type                 RadialGrid  ... OptM3 with GC (2021)
Angular Grid (max. ang.)         AngularGrid ... 1 (Lebedev-50)
Angular grid pruning method      GridPruning ... 4 (adaptive)
Weight generation scheme         WeightScheme... Becke
Basis function cutoff            BFCut       ... 1.0000e-11
Integration weight cutoff        WCut        ... 1.0000e-14
Angular grids for H and He will be reduced by one unit
Partially contracted basis set               ... off
Rotationally invariant grid construction     ... off

Total number of grid points                  ...     4532
Total number of batches                      ...       76
Average number of points per batch           ...       59
Average number of grid points per atom       ...      647

---------------------
COSX-INTEGRATION GRID
---------------------

General Integration Accuracy     IntAcc      ... 3.067
Radial Grid Type                 RadialGrid  ... OptM3 with GC (2021)
Angular Grid (max. ang.)         AngularGrid ... 1 (Lebedev-50)
Angular grid pruning method      GridPruning ... 4 (adaptive)
Weight generation scheme         WeightScheme... Becke
Basis function cutoff            BFCut       ... 1.0000e-11
Integration weight cutoff        WCut        ... 1.0000e-14
Angular grids for H and He will be reduced by one unit
Partially contracted basis set               ... on
Rotationally invariant grid construction     ... off

Total number of grid points                  ...     2083
Total number of batches                      ...       36
Average number of points per batch           ...       57
Average number of grid points per atom       ...      298

---------------
TD-DFT XC SETUP
---------------

DFT calculation                         ... on
Name of the grid file                   ... ox_es1_D_orca0003.grid_cis.tmp
Exchange functional (TD-DFT)            ... PBE
   PBE kappa parameter  XKappa (TD-DFT) ...  0.804000
   PBE mue parameter   XMuePBE (TD-DFT) ...  0.219520
Correlation functional (TD-DFT)         ... PBE
   PBE beta parameter CBetaPBE (TD-DFT) ...  0.066725
 LDA part of GGA corr.  LDAOpt (TD-DFT) ... PW91-LDA
Hybrid DFT                              ... on
   Exchange mixing (TD-DFT)             ...  0.250
   GGA exch. scaling (TD-DFT)           ...  0.750
   GGA corr. scaling (TD-DFT)           ...  1.000

Building densities             ... done
Calculating rho(r) on the grid ... done
Building xc-kernel on the grid ... done
                    *** TD-DFT CALCULATION INITIALIZED ***

------------------------
DAVIDSON-DIAGONALIZATION
------------------------

Dimension of the eigenvalue problem            ...    945
Number of roots to be determined               ...      1
Maximum size of the expansion space            ...     10
Maximum number of iterations                   ...    100
Convergence tolerance for the residual         ...    2.500e-07
Convergence tolerance for the energies         ...    2.500e-07
Orthogonality tolerance                        ...    1.000e-14
Level Shift                                    ...    0.000e+00
Constructing the preconditioner                ... o.k.
Building the initial guess                     ... o.k.
Number of trial vectors determined             ...     10


                       ****Iteration    0****

   Memory handling for direct AO based CIS:
   Memory per vector needed      ...     1 MB
   Memory needed                 ...     1 MB
   Memory available              ...  3000 MB
   Number of vectors per batch   ...  3000
   Number of batches             ...     1
   Time for densities:            0.001
   Time for RI-J (Direct):        0.016
   Time for K (COSX):             0.056
   Time for XC-Integration:       0.016
   Time for Sigma-Completion:     0.000
   Size of expansion space: 3
   Lowest Energy          :     0.093162251093
   Maximum Energy change  :     0.093162251093 (vector 0)
   Maximum residual norm  :     0.003053425461

                       ****Iteration    1****
   Time for densities:            0.000
   Time for RI-J (Direct):        0.013
   Time for K (COSX):             0.050
   Time for XC-Integration:       0.007
   Time for Sigma-Completion:     0.000
   Size of expansion space: 4
   Lowest Energy          :     0.090843769231
   Maximum Energy change  :     0.002318481862 (vector 0)
   Maximum residual norm  :     0.000069190976

                       ****Iteration    2****
   Time for densities:            0.000
   Time for RI-J (Direct):        0.012
   Time for K (COSX):             0.050
   Time for XC-Integration:       0.007
   Time for Sigma-Completion:     0.000
   Size of expansion space: 5
   Lowest Energy          :     0.090796963058
   Maximum Energy change  :     0.000046806173 (vector 0)
   Maximum residual norm  :     0.000001957087

                       ****Iteration    3****
   Time for densities:            0.000
   Time for RI-J (Direct):        0.012
   Time for K (COSX):             0.050
   Time for XC-Integration:       0.007
   Time for Sigma-Completion:     0.000
   Size of expansion space: 6
   Lowest Energy          :     0.090794852800
   Maximum Energy change  :     0.000002110258 (vector 0)
   Maximum residual norm  :     0.000000160196

      *** CONVERGENCE OF RESIDUAL NORM REACHED ***

Storing the converged CI vectors               ... ox_es1_D_orca0003.cis1

                 *** DAVIDSON DONE ***

Total time for solving the CIS problem:     0.300sec

------------------------------------
TD-DFT/TDA EXCITED STATES (SINGLETS)
------------------------------------

the weight of the individual excitations are printed if larger than 1.0e-02

STATE  1:  E=   0.090795 au      2.471 eV    19927.2 cm**-1 <S**2> =   0.000000
    11a ->  12a  :     0.992543 (c=  0.99626439)


-----------------------------
TD-DFT/TDA-EXCITATION SPECTRA
-----------------------------

Center of mass = ( -0.4869,  0.0611, -0.0725)
Calculating the Dipole integrals                  ... done
Transforming integrals                            ... done
Calculating the Linear Momentum integrals         ... done
Transforming integrals                            ... done
Calculating angular momentum integrals            ... done
Transforming integrals                            ... done

-----------------------------------------------------------------------------
         ABSORPTION SPECTRUM VIA TRANSITION ELECTRIC DIPOLE MOMENTS
-----------------------------------------------------------------------------
State   Energy    Wavelength  fosc         T2        TX        TY        TZ  
        (cm-1)      (nm)                 (au**2)    (au)      (au)      (au) 
-----------------------------------------------------------------------------
   1   19927.2    501.8   0.000343565   0.00568  -0.00280  -0.00007   0.07529

-----------------------------------------------------------------------------
         ABSORPTION SPECTRUM VIA TRANSITION VELOCITY DIPOLE MOMENTS
-----------------------------------------------------------------------------
State   Energy    Wavelength   fosc        P2         PX        PY        PZ  
        (cm-1)      (nm)                 (au**2)     (au)      (au)      (au) 
-----------------------------------------------------------------------------
   1   19927.2    501.8   0.009027979   0.00123  -0.00304   0.00214  -0.03487

-------------------------------------------------------------------
                             CD SPECTRUM
-------------------------------------------------------------------
State  Energy     Wavelength     R         MX        MY        MZ   
       (cm-1)       (nm)     (1e40*cgs)   (au)      (au)      (au)  
-------------------------------------------------------------------
   1   19927.2    501.8     -0.10530  -0.02349  -0.25514  -0.00406

-------------------------------------------------------------------
         CD SPECTRUM VIA TRANSITION VELOCITY DIPOLE MOMENTS        
-------------------------------------------------------------------
State  Energy     Wavelength     R         MX        MY        MZ   
       (cm-1)       (nm)     (1e40*cgs)   (au)      (au)      (au)  
-------------------------------------------------------------------
   1   19927.2    501.8     -1.73456  -0.02349  -0.25514  -0.00406

Total run time:        0.578 sec

           *** ORCA-CIS/TD-DFT FINISHED WITHOUT ERROR ***

Maximum memory used throughout the entire CIS-calculation: 49.4 MB

-----------------------
CIS/TD-DFT TOTAL ENERGY
-----------------------

    E(SCF)  =   -153.571119205 Eh
    DE(CIS) =      0.090794853 Eh (Root  1)
    ----------------------------- ---------
    E(tot)  =   -153.480324352 Eh



-------------------------------------------------------------------------------
                          DFT DISPERSION CORRECTION                            
                                                                               
                              DFTD3 V3.1  Rev 1                                
                          USING Becke-Johnson damping                          
-------------------------------------------------------------------------------
The PBE0 functional is recognized
Active option DFTDOPT                   ...         4   

molecular C6(AA) [au] = 391.442322 


            DFT-D V3
 parameters
 s6 scaling factor         :     1.0000 
 a1 scaling factor         :     0.4145 
 s8 scaling factor         :     1.2177 
 a2 scaling factor         :     4.8593 
 ad hoc parameters k1-k3   :    16.0000     1.3333    -4.0000 

 Edisp/kcal,au: -1.636065981694  -0.002607236822 
 E6   /kcal   :  -1.067522942 
 E8   /kcal   :  -0.568543039 
 % E8         :  34.750617995 

-------------------------   ----------------
Dispersion correction           -0.002607237
-------------------------   ----------------


-------------------------   --------------------
FINAL SINGLE POINT ENERGY      -153.482931588604
-------------------------   --------------------



           ************************************************************
           *        Program running with 8 parallel MPI-processes     *
           *              working on a common directory               *
           ************************************************************
------------------------------------------------------------------------------
                         ORCA SCF GRADIENT CALCULATION
------------------------------------------------------------------------------


------------------------
TD-DFT GRADIENT XC SETUP
------------------------

Building densities                     ... done
Calculating rho(r) on the grid         ... done
Building xc-kernel on the grid         ... done
Building xc 3rd derivative on the grid      ... done
                *** TD-DFT GRADIENT CALCULATION INITIALIZED ***

-------------------
TD-DFT/TDA GRADIENT
-------------------

Reference wavefunction             ... RHF
State of interest                  ... 1
Basis dimension                    ... 117
DFT-XC contribution needed         ... YES
RI-approximation                   ... ON
CIS-vectors being read from        ... ox_es1_D_orca0003.cis

 => Number of Vectors found: 1
 => Orbital Window: 3...11 -> 12...116

Reading the CIS file                     ... done
Norm of the CI vector                    ... 1.000000000
Making the CIS (pseudo)densities         ... done
Making operators G(D) and Q(T)           ... done
Transforming the Fock operators          ... done
Making the frozen-core relaxed density   ... done
Constructing the G(H) operator           ... done
Transforming the G(H) operator           ... done
Calculating the CIS Lagrangian           ... done
Solving the Z-vector equations           ... done
Finalizing the relaxed density           ... done
Storing the relaxed density              ... done
Constructing the G(Z) operator           ... done
Transforming the G(Z) operator           ... done
Making the W-matrix                      ... done
Finalizing the W-matrix                  ... done
Transforming the W-matrix                ... done
Nuclear repulsion gradient               ... done
One-Electron gradient                    ... done
Dispersion correction                    ... done
Prescreening matrices                    ... done
COSX-gradient                            ... done
Coulomb gradient (RI)                    ... done
Exchange-Correlation gradient            ... done

                 ---------------------------
                 EXCITED STATE GRADIENT DONE
                 ---------------------------

------------------
CARTESIAN GRADIENT
------------------

   1   O   :    0.044462447   -0.011878571    0.002561885
   2   C   :    0.007049104   -0.062037440    0.014228082
   3   C   :   -0.092603169    0.088293942   -0.066162951
   4   H   :   -0.007743077    0.015575172    0.016212425
   5   H   :   -0.004338949    0.002433106   -0.021116066
   6   H   :    0.019359904   -0.007613158   -0.004157714
   7   H   :    0.033816252   -0.024770397    0.058443114

Difference to translation invariance:
           :    0.0000025131    0.0000026532    0.0000087742

Difference to rotation invariance:
           :    0.0001422777   -0.0000547417   -0.0000913634

Norm of the cartesian gradient     ...    0.1833925531
RMS gradient                       ...    0.0400195360
MAX gradient                       ...    0.0926031687

------------------------------------------------------------------------------
                  RELAXED CIS/TDA DENSITY POPULATION ANALYSIS
                                   IROOT 1
------------------------------------------------------------------------------
------------------------------------------------------------------------------
                           ORCA POPULATION ANALYSIS
------------------------------------------------------------------------------
Input electron density              ... ox_es1_D_orca0003.cisp
BaseName (.gbw .S,...)              ... ox_es1_D_orca0003

                    ********************************
                    * MULLIKEN POPULATION ANALYSIS *
                    ********************************

-----------------------
MULLIKEN ATOMIC CHARGES
-----------------------
   0 O :   -0.181712
   1 C :   -0.066406
   2 C :   -0.331724
   3 H :    0.164603
   4 H :    0.153483
   5 H :    0.147992
   6 H :    0.113765
Sum of atomic charges:   -0.0000000

--------------------------------
MULLIKEN REDUCED ORBITAL CHARGES
--------------------------------
  0 O s       :     3.892739  s :     3.892739
      pz      :     1.089123  p :     4.264073
      px      :     1.856439
      py      :     1.318510
      dz2     :     0.002933  d :     0.024002
      dxz     :     0.000444
      dyz     :     0.005588
      dx2y2   :     0.008464
      dxy     :     0.006572
      f0      :     0.000018  f :     0.000898
      f+1     :    -0.000054
      f-1     :     0.000091
      f+2     :     0.000172
      f-2     :     0.000005
      f+3     :     0.000310
      f-3     :     0.000356
  1 C s       :     3.196401  s :     3.196401
      pz      :     1.017557  p :     2.726173
      px      :     0.983567
      py      :     0.725050
      dz2     :     0.009416  d :     0.133787
      dxz     :     0.024053
      dyz     :     0.021347
      dx2y2   :     0.026950
      dxy     :     0.052022
      f0      :     0.000923  f :     0.010046
      f+1     :     0.001268
      f-1     :     0.000590
      f+2     :     0.001593
      f-2     :     0.000117
      f+3     :     0.003134
      f-3     :     0.002421
  2 C s       :     3.334851  s :     3.334851
      pz      :     1.017632  p :     2.935514
      px      :     0.912843
      py      :     1.005039
      dz2     :     0.005654  d :     0.055773
      dxz     :     0.015730
      dyz     :     0.003351
      dx2y2   :     0.010310
      dxy     :     0.020728
      f0      :     0.000455  f :     0.005586
      f+1     :     0.000846
      f-1     :     0.000290
      f+2     :     0.000895
      f-2     :     0.000309
      f+3     :     0.001357
      f-3     :     0.001435
  3 H s       :     0.814532  s :     0.814532
      pz      :     0.011033  p :     0.020865
      px      :     0.005975
      py      :     0.003857
  4 H s       :     0.826538  s :     0.826538
      pz      :     0.009999  p :     0.019979
      px      :     0.006384
      py      :     0.003597
  5 H s       :     0.828575  s :     0.828575
      pz      :     0.008952  p :     0.023434
      px      :     0.007849
      py      :     0.006633
  6 H s       :     0.869618  s :     0.869618
      pz      :     0.007619  p :     0.016617
      px      :     0.004432
      py      :     0.004567


                     *******************************
                     * LOEWDIN POPULATION ANALYSIS *
                     *******************************

----------------------
LOEWDIN ATOMIC CHARGES
----------------------
   0 O :    0.098660
   1 C :   -0.391977
   2 C :   -0.291187
   3 H :    0.166392
   4 H :    0.159229
   5 H :    0.117656
   6 H :    0.141227

-------------------------------
LOEWDIN REDUCED ORBITAL CHARGES
-------------------------------
  0 O s       :     3.578842  s :     3.578842
      pz      :     1.058354  p :     4.260405
      px      :     1.782368
      py      :     1.419683
      dz2     :     0.008358  d :     0.058819
      dxz     :     0.000836
      dyz     :     0.012116
      dx2y2   :     0.016885
      dxy     :     0.020623
      f0      :     0.000342  f :     0.003275
      f+1     :     0.000054
      f-1     :     0.000389
      f+2     :     0.000514
      f-2     :     0.000031
      f+3     :     0.001154
      f-3     :     0.000790
  1 C s       :     2.845695  s :     2.845695
      pz      :     0.997588  p :     2.935072
      px      :     1.104716
      py      :     0.832769
      dz2     :     0.062557  d :     0.532928
      dxz     :     0.116496
      dyz     :     0.056315
      dx2y2   :     0.153777
      dxy     :     0.143783
      f0      :     0.006471  f :     0.078282
      f+1     :     0.005514
      f-1     :     0.006966
      f+2     :     0.010740
      f-2     :     0.000931
      f+3     :     0.023085
      f-3     :     0.024575
  2 C s       :     2.941437  s :     2.941437
      pz      :     1.046061  p :     3.033620
      px      :     1.068336
      py      :     0.919223
      dz2     :     0.033817  d :     0.284707
      dxz     :     0.108616
      dyz     :     0.011281
      dx2y2   :     0.047083
      dxy     :     0.083911
      f0      :     0.003188  f :     0.031422
      f+1     :     0.004175
      f-1     :     0.002271
      f+2     :     0.004531
      f-2     :     0.001681
      f+3     :     0.007281
      f-3     :     0.008295
  3 H s       :     0.777410  s :     0.777410
      pz      :     0.030872  p :     0.056198
      px      :     0.015276
      py      :     0.010050
  4 H s       :     0.786085  s :     0.786085
      pz      :     0.028552  p :     0.054687
      px      :     0.016430
      py      :     0.009704
  5 H s       :     0.814991  s :     0.814991
      pz      :     0.028227  p :     0.067353
      px      :     0.020579
      py      :     0.018547
  6 H s       :     0.816350  s :     0.816350
      pz      :     0.020881  p :     0.042423
      px      :     0.009942
      py      :     0.011600


                      *****************************
                      * MAYER POPULATION ANALYSIS *
                      *****************************

  NA   - Mulliken gross atomic population
  ZA   - Total nuclear charge
  QA   - Mulliken gross atomic charge
  VA   - Mayer's total valence
  BVA  - Mayer's bonded valence
  FA   - Mayer's free valence

  ATOM       NA         ZA         QA         VA         BVA        FA
  0 O      8.1817     8.0000    -0.1817     1.9401     1.1344     0.8057
  1 C      6.0664     6.0000    -0.0664     4.0293     3.9492     0.0801
  2 C      6.3317     6.0000    -0.3317     3.8768     3.1118     0.7650
  3 H      0.8354     1.0000     0.1646     0.9569     0.9029     0.0540
  4 H      0.8465     1.0000     0.1535     0.9572     0.9043     0.0529
  5 H      0.8520     1.0000     0.1480     0.9686     0.9539     0.0147
  6 H      0.8862     1.0000     0.1138     0.9730     0.9599     0.0131

  Mayer bond orders larger than 0.100000
B(  0-O ,  1-C ) :   1.0268 B(  1-C ,  2-C ) :   1.1346 B(  1-C ,  3-H ) :   0.8864 
B(  1-C ,  4-H ) :   0.8875 B(  2-C ,  5-H ) :   0.9419 B(  2-C ,  6-H ) :   0.9370 



-------
TIMINGS
-------

Total TD-DFT gradient time         ...        5.285 sec

Fock matrix formation       ....       0.834 sec  ( 15.8%)
  Coulomb formation         ....       0.681 sec  ( 81.7% of F)
  RI-J                      ....       0.293 sec  ( 35.1% of F)
  Chain of spheres X        ....       0.388 sec  ( 46.5% of F)
  XC integration            ....       0.153 sec  ( 18.3% of F)
Z-vector equation           ....       1.733 sec  ( 32.8%)
One electron gradient       ....       0.032 sec  (  0.6%)
Prescreening matrices       ....       0.155 sec  (  2.9%)
RI-J Coulomb gradient       ....       0.250 sec  (  4.7%)
COSX gradient               ....       0.345 sec  (  6.5%)
XC gradient                 ....       1.615 sec  ( 30.6%)

Maximum memory used throughout the entire SCFGRAD-calculation: 130.2 MB

                            ***************************************
                            *     ORCA property calculations      *
                            ***************************************

                                    ---------------------
                                    Active property flags
                                    ---------------------
   (+) Dipole Moment


------------------------------------------------------------------------------
                       ORCA ELECTRIC PROPERTIES CALCULATION
------------------------------------------------------------------------------

Dipole Moment Calculation                       ... on
Quadrupole Moment Calculation                   ... off
Polarizability Calculation                      ... off
GBWName                                         ... ox_es1_D_orca0003.gbw
Electron density                                ... ox_es1_D_orca0003.scfp
The origin for moment calculation is the CENTER OF MASS  = (-0.486850,  0.061083 -0.072479)

-------------
DIPOLE MOMENT
-------------
                                X             Y             Z
Electronic contribution:     -0.52052       1.61409      -0.17995
Nuclear contribution   :      0.99534      -2.73242       0.13622
                        -----------------------------------------
Total Dipole Moment    :      0.47482      -1.11833      -0.04373
                        -----------------------------------------
Magnitude (a.u.)       :      1.21574
Magnitude (Debye)      :      3.09017



--------------------
Rotational spectrum 
--------------------
 
Rotational constants in cm-1:     0.995292     0.475652     0.374729 
Rotational constants in MHz : 29838.105977 14259.689495 11234.104916 

 Dipole components along the rotational axes: 
x,y,z [a.u.] :    -1.099465    -0.518811    -0.006052 
x,y,z [Debye]:    -2.794618    -1.318712    -0.015382 

 

                        *** CIS RELAXED DENSITY ***

------------------------------------------------------------------------------
                       ORCA ELECTRIC PROPERTIES CALCULATION
------------------------------------------------------------------------------

Dipole Moment Calculation                       ... on
Quadrupole Moment Calculation                   ... off
Polarizability Calculation                      ... off
GBWName                                         ... ox_es1_D_orca0003.gbw
Electron density                                ... ox_es1_D_orca0003.cisp
The origin for moment calculation is the CENTER OF MASS  = (-0.486850,  0.061083 -0.072479)

-------------
DIPOLE MOMENT
-------------
                                X             Y             Z
Electronic contribution:     -1.25588       1.94195      -0.17591
Nuclear contribution   :      0.99534      -2.73242       0.13622
                        -----------------------------------------
Total Dipole Moment    :     -0.26053      -0.79047      -0.03969
                        -----------------------------------------
Magnitude (a.u.)       :      0.83324
Magnitude (Debye)      :      2.11793



--------------------
Rotational spectrum 
--------------------
 
Rotational constants in cm-1:     0.995292     0.475652     0.374729 
Rotational constants in MHz : 29838.105977 14259.689495 11234.104916 

 Dipole components along the rotational axes: 
x,y,z [a.u.] :    -0.332911    -0.762846    -0.039117 
x,y,z [Debye]:    -0.846192    -1.939000    -0.099427 

 

Timings for individual modules:

Sum of individual times         ...        7.707 sec (=   0.128 min)
GTO integral calculation        ...        0.261 sec (=   0.004 min)   3.4 %
SCF iterations                  ...        1.204 sec (=   0.020 min)  15.6 %
CIS module                      ...        0.788 sec (=   0.013 min)  10.2 %
SCF Gradient evaluation         ...        5.452 sec (=   0.091 min)  70.7 %
                             ****ORCA TERMINATED NORMALLY****
TOTAL RUN TIME: 0 days 0 hours 0 minutes 8 seconds 48 msec
