
                                 *****************
                                 * O   R   C   A *
                                 *****************

                                            #,                                       
                                            ###                                      
                                            ####                                     
                                            #####                                    
                                            ######                                   
                                           ########,                                 
                                     ,,################,,,,,                         
                               ,,#################################,,                 
                          ,,##########################################,,             
                       ,#########################################, ''#####,          
                    ,#############################################,,   '####,        
                  ,##################################################,,,,####,       
                ,###########''''           ''''###############################       
              ,#####''   ,,,,##########,,,,          '''####'''          '####       
            ,##' ,,,,###########################,,,                        '##       
           ' ,,###''''                  '''############,,,                           
         ,,##''                                '''############,,,,        ,,,,,,###''
      ,#''                                            '''#######################'''  
     '                                                          ''''####''''         
             ,#######,   #######,   ,#######,      ##                                
            ,#'     '#,  ##    ##  ,#'     '#,    #''#        ######   ,####,        
            ##       ##  ##   ,#'  ##            #'  '#       #        #'  '#        
            ##       ##  #######   ##           ,######,      #####,   #    #        
            '#,     ,#'  ##    ##  '#,     ,#' ,#      #,         ##   #,  ,#        
             '#######'   ##     ##  '#######'  #'      '#     #####' # '####'        



                  #######################################################
                  #                        -***-                        #
                  #          Department of theory and spectroscopy      #
                  #    Directorship and core code : Frank Neese         #
                  #        Max Planck Institute fuer Kohlenforschung    #
                  #                Kaiser Wilhelm Platz 1               #
                  #                 D-45470 Muelheim/Ruhr               #
                  #                      Germany                        #
                  #                                                     #
                  #                  All rights reserved                #
                  #                        -***-                        #
                  #######################################################


                         Program Version 5.0.2 -  RELEASE  -


 With contributions from (in alphabetic order):
   Daniel Aravena         : Magnetic Suceptibility
   Michael Atanasov       : Ab Initio Ligand Field Theory (pilot matlab implementation)
   Alexander A. Auer      : GIAO ZORA, VPT2 properties, NMR spectrum
   Ute Becker             : Parallelization
   Giovanni Bistoni       : ED, misc. LED, open-shell LED, HFLD
   Martin Brehm           : Molecular dynamics
   Dmytro Bykov           : SCF Hessian
   Vijay G. Chilkuri      : MRCI spin determinant printing, contributions to CSF-ICE
   Dipayan Datta          : RHF DLPNO-CCSD density
   Achintya Kumar Dutta   : EOM-CC, STEOM-CC
   Dmitry Ganyushin       : Spin-Orbit,Spin-Spin,Magnetic field MRCI
   Miquel Garcia          : C-PCM and meta-GGA Hessian, CC/C-PCM, Gaussian charge scheme
   Yang Guo               : DLPNO-NEVPT2, F12-NEVPT2, CIM, IAO-localization
   Andreas Hansen         : Spin unrestricted coupled pair/coupled cluster methods
   Benjamin Helmich-Paris : MC-RPA, TRAH-SCF, COSX integrals
   Lee Huntington         : MR-EOM, pCC
   Robert Izsak           : Overlap fitted RIJCOSX, COSX-SCS-MP3, EOM
   Marcus Kettner         : VPT2
   Christian Kollmar      : KDIIS, OOCD, Brueckner-CCSD(T), CCSD density, CASPT2, CASPT2-K
   Simone Kossmann        : Meta GGA functionals, TD-DFT gradient, OOMP2, MP2 Hessian
   Martin Krupicka        : Initial AUTO-CI
   Lucas Lang             : DCDCAS
   Marvin Lechner         : AUTO-CI (C++ implementation), FIC-MRCC
   Dagmar Lenk            : GEPOL surface, SMD
   Dimitrios Liakos       : Extrapolation schemes; Compound Job, initial MDCI parallelization
   Dimitrios Manganas     : Further ROCIS development; embedding schemes
   Dimitrios Pantazis     : SARC Basis sets
   Anastasios Papadopoulos: AUTO-CI, single reference methods and gradients
   Taras Petrenko         : DFT Hessian,TD-DFT gradient, ASA, ECA, R-Raman, ABS, FL, XAS/XES, NRVS
   Peter Pinski           : DLPNO-MP2, DLPNO-MP2 Gradient
   Christoph Reimann      : Effective Core Potentials
   Marius Retegan         : Local ZFS, SOC
   Christoph Riplinger    : Optimizer, TS searches, QM/MM, DLPNO-CCSD(T), (RO)-DLPNO pert. Triples
   Tobias Risthaus        : Range-separated hybrids, TD-DFT gradient, RPA, STAB
   Michael Roemelt        : Original ROCIS implementation
   Masaaki Saitow         : Open-shell DLPNO-CCSD energy and density
   Barbara Sandhoefer     : DKH picture change effects
   Avijit Sen             : IP-ROCIS
   Kantharuban Sivalingam : CASSCF convergence, NEVPT2, FIC-MRCI
   Bernardo de Souza      : ESD, SOC TD-DFT
   Georgi Stoychev        : AutoAux, RI-MP2 NMR, DLPNO-MP2 response
   Willem Van den Heuvel  : Paramagnetic NMR
   Boris Wezisla          : Elementary symmetry handling
   Frank Wennmohs         : Technical directorship


 We gratefully acknowledge several colleagues who have allowed us to
 interface, adapt or use parts of their codes:
   Stefan Grimme, W. Hujo, H. Kruse, P. Pracht,  : VdW corrections, initial TS optimization,
                  C. Bannwarth, S. Ehlert          DFT functionals, gCP, sTDA/sTD-DF
   Ed Valeev, F. Pavosevic, A. Kumar             : LibInt (2-el integral package), F12 methods
   Garnet Chan, S. Sharma, J. Yang, R. Olivares  : DMRG
   Ulf Ekstrom                                   : XCFun DFT Library
   Mihaly Kallay                                 : mrcc  (arbitrary order and MRCC methods)
   Jiri Pittner, Ondrej Demel                    : Mk-CCSD
   Frank Weinhold                                : gennbo (NPA and NBO analysis)
   Christopher J. Cramer and Donald G. Truhlar   : smd solvation model
   Lars Goerigk                                  : TD-DFT with DH, B97 family of functionals
   V. Asgeirsson, H. Jonsson                     : NEB implementation
   FAccTs GmbH                                   : IRC, NEB, NEB-TS, DLPNO-Multilevel, CI-OPT
                                                   MM, QMMM, 2- and 3-layer-ONIOM, Crystal-QMMM,
                                                   LR-CPCM, SF, NACMEs, symmetry and pop. for TD-DFT,
                                                   nearIR, NL-DFT gradient (VV10), updates on ESD,
                                                   ML-optimized integration grids
   S Lehtola, MJT Oliveira, MAL Marques          : LibXC Library
   Liviu Ungur et al                             : ANISO software


 Your calculation uses the libint2 library for the computation of 2-el integrals
 For citations please refer to: http://libint.valeyev.net

 Your ORCA version has been built with support for libXC version: 5.1.0
 For citations please refer to: https://tddft.org/programs/libxc/

 This ORCA versions uses:
   CBLAS   interface :  Fast vector & matrix operations
   LAPACKE interface :  Fast linear algebra routines
   SCALAPACK package :  Parallel linear algebra routines
   Shared memory     :  Shared parallel matrices
   BLAS/LAPACK       :  OpenBLAS 0.3.15  USE64BITINT DYNAMIC_ARCH NO_AFFINITY SkylakeX SINGLE_THREADED
        Core in use  :  SkylakeX
   Copyright (c) 2011-2014, The OpenBLAS Project


Your calculation utilizes the atom-pairwise dispersion correction
with the Becke-Johnson damping scheme (D3BJ)
Cite in your paper:
S.Grimme, S.Ehrlich, L.Goerigk, J Comput Chem, (2011), 32, 1456–1465 
S.Grimme, J.Antony, S.Ehrlich and H.Krieg, J.Chem.Phys., 132, (2010), 154104 
   

================================================================================

----- Orbital basis set information -----
Your calculation utilizes the basis: def2-TZVP
   F. Weigend and R. Ahlrichs, Phys. Chem. Chem. Phys. 7, 3297 (2005).

----- AuxJ basis set information -----
Your calculation utilizes the auxiliary basis: def2/J
   F. Weigend, Phys. Chem. Chem. Phys. 8, 1057 (2006).

================================================================================
                                        WARNINGS
                       Please study these warnings very carefully!
================================================================================

INFO   : Checking CIS options ...

WARNING: CIS/ROCIS methods need fully converged wavefunctions
  ===> : Setting SCFConvForced true
         You can overwrite this default with %scf ConvForced false 


INFO   : the flag for use of the SHARK integral package has been found!

================================================================================
                                       INPUT FILE
================================================================================
NAME = ox_es1_A_orca0020.inp
|  1> ! engrad PBE0 D3BJ def2-TZVP  
|  2> %pal nprocs 8 end
|  3> %maxcore 3000
|  4> 
|  5> %tddft
|  6>   nroots 1
|  7>   tda true
|  8>   Iroot 1
|  9>   end 
| 10> *xyz 0 1 
| 11> O   0.10303744624409936 0.8546913521221603 -0.012448097423953676
| 12> C   -0.6803110424522822 -0.4147516925207426 0.06843157787661744
| 13> C   0.6806433669709947 -0.41271791700007804 0.052921224342479395
| 14> H   -1.3517599043211557 -0.7274337356332887 0.818014611111995
| 15> H   -1.277293111722228 -0.632393797210202 -0.8448583673951986
| 16> H   1.2675275590209887 -0.5868400827214354 -0.9889812929107445
| 17> H   1.1786537480322423 -0.6710481949448309 0.9391794424469654
| 18> *
| 19> 
| 20>                          ****END OF INPUT****
================================================================================

                     *******************************
                     * Energy+Gradient Calculation *
                     *******************************

---------------------------------
CARTESIAN COORDINATES (ANGSTROEM)
---------------------------------
  O      0.103037    0.854691   -0.012448
  C     -0.680311   -0.414752    0.068432
  C      0.680643   -0.412718    0.052921
  H     -1.351760   -0.727434    0.818015
  H     -1.277293   -0.632394   -0.844858
  H      1.267528   -0.586840   -0.988981
  H      1.178654   -0.671048    0.939179

----------------------------
CARTESIAN COORDINATES (A.U.)
----------------------------
  NO LB      ZA    FRAG     MASS         X           Y           Z
   0 O     8.0000    0    15.999    0.194713    1.615133   -0.023523
   1 C     6.0000    0    12.011   -1.285602   -0.783767    0.129317
   2 C     6.0000    0    12.011    1.286230   -0.779924    0.100007
   3 H     1.0000    0     1.008   -2.554456   -1.374651    1.545824
   4 H     1.0000    0     1.008   -2.413734   -1.195051   -1.596551
   5 H     1.0000    0     1.008    2.395280   -1.108967   -1.868904
   6 H     1.0000    0     1.008    2.227333   -1.268097    1.774792

--------------------------------
INTERNAL COORDINATES (ANGSTROEM)
--------------------------------
 O      0   0   0     0.000000000000     0.00000000     0.00000000
 C      1   0   0     1.493874834185     0.00000000     0.00000000
 C      2   1   0     1.361044309285    58.24920594     0.00000000
 H      2   1   3     1.053797114204   128.66521415   118.50939782
 H      2   1   3     1.112588963139   113.77523664   246.09582842
 H      3   2   1     1.208433878593   119.68524374   263.65035785
 H      3   2   1     1.048905382437   117.69484349   109.44358869

---------------------------
INTERNAL COORDINATES (A.U.)
---------------------------
 O      0   0   0     0.000000000000     0.00000000     0.00000000
 C      1   0   0     2.823014314967     0.00000000     0.00000000
 C      2   1   0     2.572001000681    58.24920594     0.00000000
 H      2   1   3     1.991387946562   128.66521415   118.50939782
 H      2   1   3     2.102488439956   113.77523664   246.09582842
 H      3   2   1     2.283609081494   119.68524374   263.65035785
 H      3   2   1     1.982143913202   117.69484349   109.44358869

---------------------
BASIS SET INFORMATION
---------------------
There are 3 groups of distinct atoms

 Group   1 Type O   : 11s6p2d1f contracted to 5s3p2d1f pattern {62111/411/11/1}
 Group   2 Type C   : 11s6p2d1f contracted to 5s3p2d1f pattern {62111/411/11/1}
 Group   3 Type H   : 5s1p contracted to 3s1p pattern {311/1}

Atom   0O    basis set group =>   1
Atom   1C    basis set group =>   2
Atom   2C    basis set group =>   2
Atom   3H    basis set group =>   3
Atom   4H    basis set group =>   3
Atom   5H    basis set group =>   3
Atom   6H    basis set group =>   3
---------------------------------
AUXILIARY/J BASIS SET INFORMATION
---------------------------------
There are 3 groups of distinct atoms

 Group   1 Type O   : 12s5p4d2f1g contracted to 6s4p3d1f1g pattern {711111/2111/211/2/1}
 Group   2 Type C   : 12s5p4d2f1g contracted to 6s4p3d1f1g pattern {711111/2111/211/2/1}
 Group   3 Type H   : 5s2p1d contracted to 3s1p1d pattern {311/2/1}

Atom   0O    basis set group =>   1
Atom   1C    basis set group =>   2
Atom   2C    basis set group =>   2
Atom   3H    basis set group =>   3
Atom   4H    basis set group =>   3
Atom   5H    basis set group =>   3
Atom   6H    basis set group =>   3

Checking for AutoStart:
The File: ox_es1_A_orca0020.gbw exists
Trying to determine its content:
     ... Fine, the file contains calculation information
     ... Fine, the calculation information was read
     ... Fine, the file contains a basis set
     ... Fine, the basis set was read
     ... Fine, the file contains a geometry
     ... Fine, the geometry was read
     ... Fine, the file contains a set of orbitals
     ... Fine, the orbitals can be read
     => possible old guess file was deleted
     => GBW file was renamed to GES file
     => GES file is set as startup file
     => Guess is set to MORead
     ... now leaving AutoStart



           ************************************************************
           *        Program running with 8 parallel MPI-processes     *
           *              working on a common directory               *
           ************************************************************
------------------------------------------------------------------------------
                           ORCA GTO INTEGRAL CALCULATION
                           -- RI-GTO INTEGRALS CHOSEN --
------------------------------------------------------------------------------
------------------------------------------------------------------------------
                   ___                                                        
                  /   \      - P O W E R E D   B Y -                         
                 /     \                                                     
                 |  |  |   _    _      __       _____    __    __             
                 |  |  |  | |  | |    /  \     |  _  \  |  |  /  |          
                  \  \/   | |  | |   /    \    | | | |  |  | /  /          
                 / \  \   | |__| |  /  /\  \   | |_| |  |  |/  /          
                |  |  |   |  __  | /  /__\  \  |    /   |      \           
                |  |  |   | |  | | |   __   |  |    \   |  |\   \          
                \     /   | |  | | |  |  |  |  | |\  \  |  | \   \       
                 \___/    |_|  |_| |__|  |__|  |_| \__\ |__|  \__/        
                                                                              
                      - O R C A' S   B I G   F R I E N D -                    
                                      &                                       
                       - I N T E G R A L  F E E D E R -                       
                                                                              
 v1 FN, 2020, v2 2021                                                         
------------------------------------------------------------------------------


Reading SHARK input file ox_es1_A_orca0020.SHARKINP.tmp ... ok
----------------------
SHARK INTEGRAL PACKAGE
----------------------

Number of atoms                             ...      7
Number of basis functions                   ...    117
Number of shells                            ...     49
Maximum angular momentum                    ...      3
Integral batch strategy                     ... SHARK/LIBINT Hybrid
RI-J (if used) integral strategy            ... SPLIT-RIJ (Revised 2003 algorithm where possible)
Printlevel                                  ...      1
Contraction scheme used                     ... SEGMENTED contraction
Coulomb Range Separation                    ... NOT USED
Exchange Range Separation                   ... NOT USED
Finite Nucleus Model                        ... NOT USED
Auxiliary Coulomb fitting basis             ... AVAILABLE
   # of basis functions in Aux-J            ...    191
   # of shells in Aux-J                     ...     65
   Maximum angular momentum in Aux-J        ...      4
Auxiliary J/K fitting basis                 ... NOT available
Auxiliary Correlation fitting basis         ... NOT available
Auxiliary 'external' fitting basis          ... NOT available
Integral threshold                          ...     2.500000e-11
Primitive cut-off                           ...     2.500000e-12
Primitive pair pre-selection threshold      ...     2.500000e-12

Calculating pre-screening integrals         ... done (  0.0 sec) Dimension = 49
Organizing shell pair data                  ... done (  0.0 sec)
Shell pair information
Total number of shell pairs                 ...      1225
Shell pairs after pre-screening             ...      1220
Total number of primitive shell pairs       ...      3648
Primitive shell pairs kept                  ...      3152
          la=0 lb=0:    373 shell pairs
          la=1 lb=0:    351 shell pairs
          la=1 lb=1:     91 shell pairs
          la=2 lb=0:    162 shell pairs
          la=2 lb=1:     78 shell pairs
          la=2 lb=2:     21 shell pairs
          la=3 lb=0:     81 shell pairs
          la=3 lb=1:     39 shell pairs
          la=3 lb=2:     18 shell pairs
          la=3 lb=3:      6 shell pairs

Calculating one electron integrals          ... done (  0.0 sec)
Calculating RI/J V-Matrix + Cholesky decomp.... done (  0.0 sec)
Calculating Nuclear repulsion               ... done (  0.0 sec) ENN=     75.771494482836 Eh

SHARK setup successfully completed in   0.1 seconds

Maximum memory used throughout the entire GTOINT-calculation: 14.9 MB


           ************************************************************
           *        Program running with 8 parallel MPI-processes     *
           *              working on a common directory               *
           ************************************************************
-------------------------------------------------------------------------------
                                 ORCA SCF
-------------------------------------------------------------------------------

------------
SCF SETTINGS
------------
Hamiltonian:
 Density Functional     Method          .... DFT(GTOs)
 Exchange Functional    Exchange        .... PBE
   PBE kappa parameter   XKappa         ....  0.804000
   PBE mue parameter    XMuePBE         ....  0.219520
 Correlation Functional Correlation     .... PBE
   PBE beta parameter  CBetaPBE         ....  0.066725
 LDA part of GGA corr.  LDAOpt          .... PW91-LDA
 Gradients option       PostSCFGGA      .... off
 Hybrid DFT is turned on
   Fraction HF Exchange ScalHFX         ....  0.250000
   Scaling of DF-GGA-X  ScalDFX         ....  0.750000
   Scaling of DF-GGA-C  ScalDFC         ....  1.000000
   Scaling of DF-LDA-C  ScalLDAC        ....  1.000000
   Perturbative correction              ....  0.000000
   Density functional embedding theory  .... OFF
   NL short-range parameter             ....  6.900000
 RI-approximation to the Coulomb term is turned on
   Number of AuxJ basis functions       .... 191
   RIJ-COSX (HFX calculated with COS-X)).... on


General Settings:
 Integral files         IntName         .... ox_es1_A_orca0020
 Hartree-Fock type      HFTyp           .... RHF
 Total Charge           Charge          ....    0
 Multiplicity           Mult            ....    1
 Number of Electrons    NEL             ....   24
 Basis Dimension        Dim             ....  117
 Nuclear Repulsion      ENuc            ....     75.7714944828 Eh

Convergence Acceleration:
 DIIS                   CNVDIIS         .... on
   Start iteration      DIISMaxIt       ....    12
   Startup error        DIISStart       ....  0.200000
   # of expansion vecs  DIISMaxEq       ....     5
   Bias factor          DIISBfac        ....   1.050
   Max. coefficient     DIISMaxC        ....  10.000
 Trust-Rad. Augm. Hess. CNVTRAH         .... auto
   Auto Start mean grad. ratio tolernc. ....  1.125000
   Auto Start start iteration           ....     1
   Auto Start num. interpolation iter.  ....    10
   Max. Number of Micro iterations      ....    16
   Max. Number of Macro iterations      .... Maxiter - #DIIS iter
   Number of Davidson start vectors     ....     2
   Converg. threshold I  (grad. norm)   ....   1.000e-05
   Converg. threshold II (energy diff.) ....   1.000e-08
   Grad. Scal. Fac. for Micro threshold ....   0.100
   Minimum threshold for Micro iter.    ....   0.010
   NR start threshold (gradient norm)   ....   0.001
   Initial trust radius                 ....   0.400
   Minimum AH scaling param. (alpha)    ....   1.000
   Maximum AH scaling param. (alpha)    .... 1000.000
   Orbital update algorithm             .... Taylor
   White noise on init. David. guess    .... on
   Maximum white noise                  ....   0.010
   Quad. conv. algorithm                .... NR
 SOSCF                  CNVSOSCF        .... on
   Start iteration      SOSCFMaxIt      ....   150
   Startup grad/error   SOSCFStart      ....  0.003300
 Level Shifting         CNVShift        .... on
   Level shift para.    LevelShift      ....    0.2500
   Turn off err/grad.   ShiftErr        ....    0.0010
 Zerner damping         CNVZerner       .... off
 Static damping         CNVDamp         .... on
   Fraction old density DampFac         ....    0.7000
   Max. Damping (<1)    DampMax         ....    0.9800
   Min. Damping (>=0)   DampMin         ....    0.0000
   Turn off err/grad.   DampErr         ....    0.1000
 Fernandez-Rico         CNVRico         .... off

SCF Procedure:
 Maximum # iterations   MaxIter         ....   125
 SCF integral mode      SCFMode         .... Direct
   Integral package                     .... SHARK and LIBINT hybrid scheme
 Reset frequency        DirectResetFreq ....    20
 Integral Threshold     Thresh          ....  2.500e-11 Eh
 Primitive CutOff       TCut            ....  2.500e-12 Eh

Convergence Tolerance:
 Convergence Check Mode ConvCheckMode   .... Total+1el-Energy
 Convergence forced     ConvForced      .... 1
 Energy Change          TolE            ....  1.000e-08 Eh
 1-El. energy change                    ....  1.000e-05 Eh
 Orbital Gradient       TolG            ....  1.000e-05
 Orbital Rotation angle TolX            ....  1.000e-05
 DIIS Error             TolErr          ....  5.000e-07


Diagonalization of the overlap matrix:
Smallest eigenvalue                        ... 2.013e-04
Time for diagonalization                   ...    0.001 sec
Threshold for overlap eigenvalues          ... 1.000e-08
Number of eigenvalues below threshold      ... 0
Time for construction of square roots      ...    0.001 sec
Total time needed                          ...    0.003 sec

---------------------
INITIAL GUESS: MOREAD
---------------------
Guess MOs are being read from file: ox_es1_A_orca0020.ges
Input Geometry matches current geometry (good)
Input basis set matches current basis set (good)
MOs were renormalized
MOs were reorthogonalized (Cholesky)
                      ------------------
                      INITIAL GUESS DONE (   0.0 sec)
                      ------------------
-------------------
DFT GRID GENERATION
-------------------

General Integration Accuracy     IntAcc      ... 4.388
Radial Grid Type                 RadialGrid  ... OptM3 with GC (2021)
Angular Grid (max. ang.)         AngularGrid ... 4 (Lebedev-302)
Angular grid pruning method      GridPruning ... 4 (adaptive)
Weight generation scheme         WeightScheme... Becke
Basis function cutoff            BFCut       ... 1.0000e-11
Integration weight cutoff        WCut        ... 1.0000e-14
Angular grids for H and He will be reduced by one unit
Partially contracted basis set               ... off
Rotationally invariant grid construction     ... off

Total number of grid points                  ...    31290
Total number of batches                      ...      492
Average number of points per batch           ...       63
Average number of grid points per atom       ...     4470
Time for grid setup =    0.122 sec

--------------------
COSX GRID GENERATION
--------------------

GRIDX 1
-------
General Integration Accuracy     IntAcc      ... 3.816
Radial Grid Type                 RadialGrid  ... OptM3 with GC (2021)
Angular Grid (max. ang.)         AngularGrid ... 1 (Lebedev-50)
Angular grid pruning method      GridPruning ... 4 (adaptive)
Weight generation scheme         WeightScheme... Becke
Basis function cutoff            BFCut       ... 1.0000e-11
Integration weight cutoff        WCut        ... 1.0000e-14
Angular grids for H and He will be reduced by one unit
Partially contracted basis set               ... on
Rotationally invariant grid construction     ... off

Total number of grid points                  ...     4033
Total number of batches                      ...       68
Average number of points per batch           ...       59
Average number of grid points per atom       ...      576
UseSFitting                                  ... on

GRIDX 2
-------
General Integration Accuracy     IntAcc      ... 4.020
Radial Grid Type                 RadialGrid  ... OptM3 with GC (2021)
Angular Grid (max. ang.)         AngularGrid ... 2 (Lebedev-110)
Angular grid pruning method      GridPruning ... 4 (adaptive)
Weight generation scheme         WeightScheme... Becke
Basis function cutoff            BFCut       ... 1.0000e-11
Integration weight cutoff        WCut        ... 1.0000e-14
Angular grids for H and He will be reduced by one unit
Partially contracted basis set               ... on
Rotationally invariant grid construction     ... off

Total number of grid points                  ...     8709
Total number of batches                      ...      140
Average number of points per batch           ...       62
Average number of grid points per atom       ...     1244
UseSFitting                                  ... on

GRIDX 3
-------
General Integration Accuracy     IntAcc      ... 4.338
Radial Grid Type                 RadialGrid  ... OptM3 with GC (2021)
Angular Grid (max. ang.)         AngularGrid ... 3 (Lebedev-194)
Angular grid pruning method      GridPruning ... 4 (adaptive)
Weight generation scheme         WeightScheme... Becke
Basis function cutoff            BFCut       ... 1.0000e-11
Integration weight cutoff        WCut        ... 1.0000e-14
Angular grids for H and He will be reduced by one unit
Partially contracted basis set               ... on
Rotationally invariant grid construction     ... off

Total number of grid points                  ...    19225
Total number of batches                      ...      305
Average number of points per batch           ...       63
Average number of grid points per atom       ...     2746
UseSFitting                                  ... on

Time for X-Grid setup             =    0.074 sec

--------------
SCF ITERATIONS
--------------
ITER       Energy         Delta-E        Max-DP      RMS-DP      [F,P]     Damp
               ***  Starting incremental Fock matrix formation  ***
                      *** Initiating the SOSCF procedure ***
                      *** Re-Reading the Fockian *** 
                      *** Removing any level shift *** 
ITER      Energy       Delta-E        Grad      Rot      Max-DP    RMS-DP
  0   -153.64350759 -153.6435075941  0.000000  0.000000  0.000001  0.000000
               *** Restarting incremental Fock matrix formation ***
                 **** Energy Check signals convergence ****
              ***Rediagonalizing the Fockian in SOSCF/NRSCF***

               *****************************************************
               *                     SUCCESS                       *
               *           SCF CONVERGED AFTER   1 CYCLES          *
               *****************************************************

Old exchange energy                            =     -4.999472926 Eh
New exchange energy                            =     -4.999470216 Eh
Exchange energy change after final integration =      0.000002710 Eh
Total energy after final integration           =   -153.643504884 Eh
Final COS-X integration done in                =     0.268 sec

----------------
TOTAL SCF ENERGY
----------------

Total Energy       :         -153.64350488 Eh           -4180.85232 eV

Components:
Nuclear Repulsion  :           75.77149448 Eh            2061.84719 eV
Electronic Energy  :         -229.41499937 Eh           -6242.69951 eV
One Electron Energy:         -358.14504374 Eh           -9745.62210 eV
Two Electron Energy:          128.73004437 Eh            3502.92259 eV
Max COSX asymmetry :            0.00000168 Eh               0.00005 eV

Virial components:
Potential Energy   :         -306.72418574 Eh           -8346.38942 eV
Kinetic Energy     :          153.08068086 Eh            4165.53710 eV
Virial Ratio       :            2.00367665


DFT components:
N(Alpha)           :       11.999999796608 electrons
N(Beta)            :       11.999999796608 electrons
N(Total)           :       23.999999593215 electrons
E(X)               :      -14.970194223286 Eh       
E(C)               :       -0.791224902836 Eh       
E(XC)              :      -15.761419126122 Eh       
DFET-embed. en.    :        0.000000000000 Eh       

---------------
SCF CONVERGENCE
---------------

  Last Energy change         ...   -1.0260e-11  Tolerance :   1.0000e-08
  Last MAX-Density change    ...    1.9984e-15  Tolerance :   1.0000e-07
  Last RMS-Density change    ...    3.2400e-17  Tolerance :   5.0000e-09
  Last Orbital Gradient      ...    1.5995e-07  Tolerance :   1.0000e-05
  Last Orbital Rotation      ...    3.4395e-07  Tolerance :   1.0000e-05

             **** THE GBW FILE WAS UPDATED (ox_es1_A_orca0020.gbw) ****
             **** DENSITY ox_es1_A_orca0020.scfp WAS UPDATED ****
             **** ENERGY FILE WAS UPDATED (ox_es1_A_orca0020.en.tmp) ****
             **** THE GBW FILE WAS UPDATED (ox_es1_A_orca0020.gbw) ****
             **** DENSITY ox_es1_A_orca0020.scfp WAS UPDATED ****
----------------
ORBITAL ENERGIES
----------------

  NO   OCC          E(Eh)            E(eV) 
   0   2.0000     -19.224610      -523.1282 
   1   2.0000     -10.275326      -279.6058 
   2   2.0000     -10.272084      -279.5176 
   3   2.0000      -1.107507       -30.1368 
   4   2.0000      -0.725693       -19.7471 
   5   2.0000      -0.646287       -17.5864 
   6   2.0000      -0.532384       -14.4869 
   7   2.0000      -0.511380       -13.9154 
   8   2.0000      -0.412733       -11.2310 
   9   2.0000      -0.367737       -10.0066 
  10   2.0000      -0.352077        -9.5805 
  11   2.0000      -0.288727        -7.8567 
  12   0.0000       0.052119         1.4182 
  13   0.0000       0.057683         1.5696 
  14   0.0000       0.085419         2.3244 
  15   0.0000       0.096093         2.6148 
  16   0.0000       0.112956         3.0737 
  17   0.0000       0.155934         4.2432 
  18   0.0000       0.184848         5.0300 
  19   0.0000       0.226636         6.1671 
  20   0.0000       0.265426         7.2226 
  21   0.0000       0.271305         7.3826 
  22   0.0000       0.287602         7.8260 
  23   0.0000       0.320812         8.7297 
  24   0.0000       0.382283        10.4025 
  25   0.0000       0.394525        10.7356 
  26   0.0000       0.409632        11.1466 
  27   0.0000       0.443786        12.0760 
  28   0.0000       0.450153        12.2493 
  29   0.0000       0.474696        12.9171 
  30   0.0000       0.513644        13.9770 
  31   0.0000       0.521558        14.1923 
  32   0.0000       0.544354        14.8126 
  33   0.0000       0.683480        18.5984 
  34   0.0000       0.708370        19.2757 
  35   0.0000       0.753214        20.4960 
  36   0.0000       0.823218        22.4009 
  37   0.0000       0.853275        23.2188 
  38   0.0000       0.885308        24.0904 
  39   0.0000       0.954270        25.9670 
  40   0.0000       1.005241        27.3540 
  41   0.0000       1.050400        28.5828 
  42   0.0000       1.096460        29.8362 
  43   0.0000       1.113819        30.3085 
  44   0.0000       1.193225        32.4693 
  45   0.0000       1.362927        37.0871 
  46   0.0000       1.471623        40.0449 
  47   0.0000       1.490286        40.5527 
  48   0.0000       1.516940        41.2780 
  49   0.0000       1.526526        41.5389 
  50   0.0000       1.585209        43.1357 
  51   0.0000       1.607390        43.7393 
  52   0.0000       1.642052        44.6825 
  53   0.0000       1.725578        46.9554 
  54   0.0000       1.776174        48.3322 
  55   0.0000       1.798036        48.9271 
  56   0.0000       1.824113        49.6366 
  57   0.0000       1.875796        51.0430 
  58   0.0000       1.954699        53.1901 
  59   0.0000       1.985162        54.0190 
  60   0.0000       2.107693        57.3532 
  61   0.0000       2.166101        58.9426 
  62   0.0000       2.176913        59.2368 
  63   0.0000       2.270716        61.7893 
  64   0.0000       2.284320        62.1595 
  65   0.0000       2.370400        64.5019 
  66   0.0000       2.405322        65.4521 
  67   0.0000       2.522031        68.6280 
  68   0.0000       2.535078        68.9830 
  69   0.0000       2.562004        69.7157 
  70   0.0000       2.644076        71.9490 
  71   0.0000       2.682929        73.0062 
  72   0.0000       2.704744        73.5998 
  73   0.0000       2.717476        73.9463 
  74   0.0000       2.767606        75.3104 
  75   0.0000       2.808824        76.4320 
  76   0.0000       2.863681        77.9247 
  77   0.0000       2.951867        80.3244 
  78   0.0000       2.981102        81.1199 
  79   0.0000       3.003046        81.7170 
  80   0.0000       3.058411        83.2236 
  81   0.0000       3.093894        84.1891 
  82   0.0000       3.123975        85.0077 
  83   0.0000       3.247304        88.3636 
  84   0.0000       3.296034        89.6896 
  85   0.0000       3.372863        91.7803 
  86   0.0000       3.397473        92.4499 
  87   0.0000       3.449716        93.8716 
  88   0.0000       3.604549        98.0848 
  89   0.0000       3.634884        98.9102 
  90   0.0000       3.651444        99.3608 
  91   0.0000       3.719606       101.2156 
  92   0.0000       3.919738       106.6615 
  93   0.0000       4.064663       110.6051 
  94   0.0000       4.173132       113.5567 
  95   0.0000       4.254019       115.7577 
  96   0.0000       4.285922       116.6259 
  97   0.0000       4.402365       119.7945 
  98   0.0000       4.483032       121.9895 
  99   0.0000       4.544311       123.6570 
 100   0.0000       4.699402       127.8772 
 101   0.0000       4.841121       131.7336 
 102   0.0000       5.277548       143.6094 
 103   0.0000       5.412181       147.2729 
 104   0.0000       5.649009       153.7174 
 105   0.0000       5.736314       156.0930 
 106   0.0000       5.800573       157.8416 
 107   0.0000       5.859188       159.4366 
 108   0.0000       6.046773       164.5411 
 109   0.0000       6.555435       178.3824 
 110   0.0000       6.595384       179.4695 
 111   0.0000       6.802906       185.1165 
 112   0.0000       6.965661       189.5453 
 113   0.0000       7.164393       194.9531 
 114   0.0000      22.284328       606.3874 
 115   0.0000      22.603719       615.0785 
 116   0.0000      43.835922      1192.8361 

                    ********************************
                    * MULLIKEN POPULATION ANALYSIS *
                    ********************************

-----------------------
MULLIKEN ATOMIC CHARGES
-----------------------
   0 O :   -0.322121
   1 C :   -0.095948
   2 C :   -0.035262
   3 H :    0.130052
   4 H :    0.110464
   5 H :    0.104013
   6 H :    0.108802
Sum of atomic charges:   -0.0000000

--------------------------------
MULLIKEN REDUCED ORBITAL CHARGES
--------------------------------
  0 O s       :     3.870409  s :     3.870409
      pz      :     1.838242  p :     4.408261
      px      :     1.344340
      py      :     1.225679
      dz2     :     0.005686  d :     0.041259
      dxz     :     0.002298
      dyz     :     0.006983
      dx2y2   :     0.011887
      dxy     :     0.014405
      f0      :     0.000255  f :     0.002192
      f+1     :     0.000164
      f-1     :     0.000474
      f+2     :     0.000127
      f-2     :     0.000178
      f+3     :     0.000435
      f-3     :     0.000559
  1 C s       :     3.198838  s :     3.198838
      pz      :     1.065853  p :     2.777318
      px      :     0.936364
      py      :     0.775101
      dz2     :     0.004291  d :     0.108465
      dxz     :     0.028623
      dyz     :     0.026317
      dx2y2   :     0.027372
      dxy     :     0.021862
      f0      :     0.001323  f :     0.011327
      f+1     :     0.001031
      f-1     :     0.000618
      f+2     :     0.001661
      f-2     :     0.001593
      f+3     :     0.002092
      f-3     :     0.003009
  2 C s       :     3.192871  s :     3.192871
      pz      :     1.029276  p :     2.697656
      px      :     0.932326
      py      :     0.736053
      dz2     :     0.006551  d :     0.132239
      dxz     :     0.028614
      dyz     :     0.037159
      dx2y2   :     0.033747
      dxy     :     0.026168
      f0      :     0.001857  f :     0.012497
      f+1     :     0.001217
      f-1     :     0.000770
      f+2     :     0.001961
      f-2     :     0.001435
      f+3     :     0.001655
      f-3     :     0.003602
  3 H s       :     0.847313  s :     0.847313
      pz      :     0.009132  p :     0.022635
      px      :     0.008975
      py      :     0.004529
  4 H s       :     0.868929  s :     0.868929
      pz      :     0.010253  p :     0.020607
      px      :     0.006736
      py      :     0.003618
  5 H s       :     0.879261  s :     0.879261
      pz      :     0.009498  p :     0.016726
      px      :     0.004670
      py      :     0.002559
  6 H s       :     0.868871  s :     0.868871
      pz      :     0.011209  p :     0.022327
      px      :     0.006761
      py      :     0.004357


                     *******************************
                     * LOEWDIN POPULATION ANALYSIS *
                     *******************************

----------------------
LOEWDIN ATOMIC CHARGES
----------------------
   0 O :    0.121171
   1 C :   -0.263574
   2 C :   -0.354238
   3 H :    0.114476
   4 H :    0.128212
   5 H :    0.141022
   6 H :    0.112931

-------------------------------
LOEWDIN REDUCED ORBITAL CHARGES
-------------------------------
  0 O s       :     3.405272  s :     3.405272
      pz      :     1.727215  p :     4.380670
      px      :     1.318700
      py      :     1.334755
      dz2     :     0.011631  d :     0.086554
      dxz     :     0.006439
      dyz     :     0.015202
      dx2y2   :     0.030413
      dxy     :     0.022870
      f0      :     0.000603  f :     0.006333
      f+1     :     0.000205
      f-1     :     0.000984
      f+2     :     0.000289
      f-2     :     0.000731
      f+3     :     0.001176
      f-3     :     0.002345
  1 C s       :     2.794946  s :     2.794946
      pz      :     1.056918  p :     2.919959
      px      :     1.073347
      py      :     0.789694
      dz2     :     0.041507  d :     0.479407
      dxz     :     0.159131
      dyz     :     0.072325
      dx2y2   :     0.102655
      dxy     :     0.103788
      f0      :     0.007645  f :     0.069263
      f+1     :     0.005776
      f-1     :     0.005283
      f+2     :     0.009470
      f-2     :     0.006103
      f+3     :     0.014155
      f-3     :     0.020831
  2 C s       :     2.805647  s :     2.805647
      pz      :     1.017296  p :     2.894102
      px      :     1.071647
      py      :     0.805159
      dz2     :     0.058588  d :     0.564792
      dxz     :     0.151808
      dyz     :     0.103187
      dx2y2   :     0.129207
      dxy     :     0.122002
      f0      :     0.012932  f :     0.089696
      f+1     :     0.006216
      f-1     :     0.007012
      f+2     :     0.013285
      f-2     :     0.006146
      f+3     :     0.015636
      f-3     :     0.028470
  3 H s       :     0.817477  s :     0.817477
      pz      :     0.029755  p :     0.068047
      px      :     0.024164
      py      :     0.014128
  4 H s       :     0.814768  s :     0.814768
      pz      :     0.029958  p :     0.057020
      px      :     0.016493
      py      :     0.010570
  5 H s       :     0.816066  s :     0.816066
      pz      :     0.025405  p :     0.042912
      px      :     0.010967
      py      :     0.006540
  6 H s       :     0.821281  s :     0.821281
      pz      :     0.034085  p :     0.065789
      px      :     0.018693
      py      :     0.013011


                      *****************************
                      * MAYER POPULATION ANALYSIS *
                      *****************************

  NA   - Mulliken gross atomic population
  ZA   - Total nuclear charge
  QA   - Mulliken gross atomic charge
  VA   - Mayer's total valence
  BVA  - Mayer's bonded valence
  FA   - Mayer's free valence

  ATOM       NA         ZA         QA         VA         BVA        FA
  0 O      8.3221     8.0000    -0.3221     1.9984     1.9984    -0.0000
  1 C      6.0959     6.0000    -0.0959     3.9942     3.9942    -0.0000
  2 C      6.0353     6.0000    -0.0353     4.0168     4.0168     0.0000
  3 H      0.8699     1.0000     0.1301     0.9520     0.9520    -0.0000
  4 H      0.8895     1.0000     0.1105     0.9586     0.9586    -0.0000
  5 H      0.8960     1.0000     0.1040     0.9643     0.9643    -0.0000
  6 H      0.8912     1.0000     0.1088     0.9538     0.9538    -0.0000

  Mayer bond orders larger than 0.100000
B(  0-O ,  1-C ) :   0.9728 B(  0-O ,  2-C ) :   0.9956 B(  1-C ,  2-C ) :   1.1097 
B(  1-C ,  3-H ) :   0.9473 B(  1-C ,  4-H ) :   0.9470 B(  2-C ,  5-H ) :   0.9417 
B(  2-C ,  6-H ) :   0.9489 

-------
TIMINGS
-------

Total SCF time: 0 days 0 hours 0 min 1 sec 

Total time                  ....       1.020 sec
Sum of individual times     ....       0.933 sec  ( 91.5%)

Fock matrix formation       ....       0.722 sec  ( 70.8%)
  Split-RI-J                ....       0.114 sec  ( 15.8% of F)
  Chain of spheres X        ....       0.541 sec  ( 75.0% of F)
  XC integration            ....       0.065 sec  (  8.9% of F)
    Basis function eval.    ....       0.018 sec  ( 28.2% of XC)
    Density eval.           ....       0.014 sec  ( 22.2% of XC)
    XC-Functional eval.     ....       0.004 sec  (  5.9% of XC)
    XC-Potential eval.      ....       0.021 sec  ( 32.4% of XC)
Diagonalization             ....       0.002 sec  (  0.2%)
Density matrix formation    ....       0.000 sec  (  0.0%)
Population analysis         ....       0.003 sec  (  0.2%)
Initial guess               ....       0.006 sec  (  0.6%)
Orbital Transformation      ....       0.000 sec  (  0.0%)
Orbital Orthonormalization  ....       0.001 sec  (  0.1%)
DIIS solution               ....       0.001 sec  (  0.1%)
SOSCF solution              ....       0.002 sec  (  0.2%)
Grid generation             ....       0.196 sec  ( 19.2%)

Maximum memory used throughout the entire SCF-calculation: 61.1 MB


           ************************************************************
           *        Program running with 8 parallel MPI-processes     *
           *              working on a common directory               *
           ************************************************************
------------------------------------------------------------------------------
                        ORCA TD-DFT/TDA CALCULATION
------------------------------------------------------------------------------

Input orbitals are from        ... ox_es1_A_orca0020.gbw
CI-vector output               ... ox_es1_A_orca0020.cis
Tamm-Dancoff approximation     ... operative
CIS-Integral strategy          ... AO-integrals
Integral handling              ... AO integral Direct
Max. core memory used          ... 3000 MB
Reference state                ... RHF
Generation of triplets         ... off
Follow IRoot                   ... off
Number of operators            ... 1
Orbital ranges used for CIS calculation:
 Operator 0:  Orbitals   3... 11  to  12...116
XAS localization array:
 Operator 0:  Orbitals  -1... -1

-------------------
XC-INTEGRATION GRID
-------------------

General Integration Accuracy     IntAcc      ... 3.467
Radial Grid Type                 RadialGrid  ... OptM3 with GC (2021)
Angular Grid (max. ang.)         AngularGrid ... 1 (Lebedev-50)
Angular grid pruning method      GridPruning ... 4 (adaptive)
Weight generation scheme         WeightScheme... Becke
Basis function cutoff            BFCut       ... 1.0000e-11
Integration weight cutoff        WCut        ... 1.0000e-14
Angular grids for H and He will be reduced by one unit
Partially contracted basis set               ... off
Rotationally invariant grid construction     ... off

Total number of grid points                  ...     4539
Total number of batches                      ...       74
Average number of points per batch           ...       61
Average number of grid points per atom       ...      648

---------------------
COSX-INTEGRATION GRID
---------------------

General Integration Accuracy     IntAcc      ... 3.067
Radial Grid Type                 RadialGrid  ... OptM3 with GC (2021)
Angular Grid (max. ang.)         AngularGrid ... 1 (Lebedev-50)
Angular grid pruning method      GridPruning ... 4 (adaptive)
Weight generation scheme         WeightScheme... Becke
Basis function cutoff            BFCut       ... 1.0000e-11
Integration weight cutoff        WCut        ... 1.0000e-14
Angular grids for H and He will be reduced by one unit
Partially contracted basis set               ... on
Rotationally invariant grid construction     ... off

Total number of grid points                  ...     2084
Total number of batches                      ...       37
Average number of points per batch           ...       56
Average number of grid points per atom       ...      298

---------------
TD-DFT XC SETUP
---------------

DFT calculation                         ... on
Name of the grid file                   ... ox_es1_A_orca0020.grid_cis.tmp
Exchange functional (TD-DFT)            ... PBE
   PBE kappa parameter  XKappa (TD-DFT) ...  0.804000
   PBE mue parameter   XMuePBE (TD-DFT) ...  0.219520
Correlation functional (TD-DFT)         ... PBE
   PBE beta parameter CBetaPBE (TD-DFT) ...  0.066725
 LDA part of GGA corr.  LDAOpt (TD-DFT) ... PW91-LDA
Hybrid DFT                              ... on
   Exchange mixing (TD-DFT)             ...  0.250
   GGA exch. scaling (TD-DFT)           ...  0.750
   GGA corr. scaling (TD-DFT)           ...  1.000

Building densities             ... done
Calculating rho(r) on the grid ... done
Building xc-kernel on the grid ... done
                    *** TD-DFT CALCULATION INITIALIZED ***

------------------------
DAVIDSON-DIAGONALIZATION
------------------------

Dimension of the eigenvalue problem            ...    945
Number of roots to be determined               ...      1
Maximum size of the expansion space            ...     10
Maximum number of iterations                   ...    100
Convergence tolerance for the residual         ...    2.500e-07
Convergence tolerance for the energies         ...    2.500e-07
Orthogonality tolerance                        ...    1.000e-14
Level Shift                                    ...    0.000e+00
Constructing the preconditioner                ... o.k.
Building the initial guess                     ... o.k.
Number of trial vectors determined             ...     10


                       ****Iteration    0****

   Memory handling for direct AO based CIS:
   Memory per vector needed      ...     1 MB
   Memory needed                 ...     1 MB
   Memory available              ...  3000 MB
   Number of vectors per batch   ...  3000
   Number of batches             ...     1
   Time for densities:            0.000
   Time for RI-J (Direct):        0.016
   Time for K (COSX):             0.058
   Time for XC-Integration:       0.017
   Time for Sigma-Completion:     0.000
   Size of expansion space: 3
   Lowest Energy          :     0.272831116153
   Maximum Energy change  :     0.272831116153 (vector 0)
   Maximum residual norm  :     0.005019370537

                       ****Iteration    1****
   Time for densities:            0.000
   Time for RI-J (Direct):        0.012
   Time for K (COSX):             0.052
   Time for XC-Integration:       0.007
   Time for Sigma-Completion:     0.000
   Size of expansion space: 4
   Lowest Energy          :     0.268538233779
   Maximum Energy change  :     0.004292882375 (vector 0)
   Maximum residual norm  :     0.000946546716

                       ****Iteration    2****
   Time for densities:            0.000
   Time for RI-J (Direct):        0.012
   Time for K (COSX):             0.052
   Time for XC-Integration:       0.007
   Time for Sigma-Completion:     0.000
   Size of expansion space: 5
   Lowest Energy          :     0.267433730292
   Maximum Energy change  :     0.001104503487 (vector 0)
   Maximum residual norm  :     0.000168579804

                       ****Iteration    3****
   Time for densities:            0.000
   Time for RI-J (Direct):        0.013
   Time for K (COSX):             0.052
   Time for XC-Integration:       0.007
   Time for Sigma-Completion:     0.000
   Size of expansion space: 6
   Lowest Energy          :     0.267251196507
   Maximum Energy change  :     0.000182533785 (vector 0)
   Maximum residual norm  :     0.000023551570

                       ****Iteration    4****
   Time for densities:            0.000
   Time for RI-J (Direct):        0.013
   Time for K (COSX):             0.052
   Time for XC-Integration:       0.007
   Time for Sigma-Completion:     0.000
   Size of expansion space: 7
   Lowest Energy          :     0.267217501818
   Maximum Energy change  :     0.000033694688 (vector 0)
   Maximum residual norm  :     0.000004414501

                       ****Iteration    5****
   Time for densities:            0.000
   Time for RI-J (Direct):        0.012
   Time for K (COSX):             0.051
   Time for XC-Integration:       0.007
   Time for Sigma-Completion:     0.000
   Size of expansion space: 8
   Lowest Energy          :     0.267211710935
   Maximum Energy change  :     0.000005790884 (vector 0)
   Maximum residual norm  :     0.000000324168

                       ****Iteration    6****
   Time for densities:            0.000
   Time for RI-J (Direct):        0.013
   Time for K (COSX):             0.052
   Time for XC-Integration:       0.007
   Time for Sigma-Completion:     0.000
   Size of expansion space: 9
   Lowest Energy          :     0.267211231205
   Maximum Energy change  :     0.000000479729 (vector 0)
   Maximum residual norm  :     0.000000036801

      *** CONVERGENCE OF RESIDUAL NORM REACHED ***

Storing the converged CI vectors               ... ox_es1_A_orca0020.cis1

                 *** DAVIDSON DONE ***

Total time for solving the CIS problem:     0.526sec

------------------------------------
TD-DFT/TDA EXCITED STATES (SINGLETS)
------------------------------------

the weight of the individual excitations are printed if larger than 1.0e-02

STATE  1:  E=   0.267211 au      7.271 eV    58646.1 cm**-1 <S**2> =   0.000000
    11a ->  12a  :     0.942142 (c=  0.97064019)
    11a ->  14a  :     0.022406 (c=  0.14968793)
    11a ->  15a  :     0.012889 (c=  0.11353184)


-----------------------------
TD-DFT/TDA-EXCITATION SPECTRA
-----------------------------

Center of mass = (  0.0630,  0.0470,  0.0507)
Calculating the Dipole integrals                  ... done
Transforming integrals                            ... done
Calculating the Linear Momentum integrals         ... done
Transforming integrals                            ... done
Calculating angular momentum integrals            ... done
Transforming integrals                            ... done

-----------------------------------------------------------------------------
         ABSORPTION SPECTRUM VIA TRANSITION ELECTRIC DIPOLE MOMENTS
-----------------------------------------------------------------------------
State   Energy    Wavelength  fosc         T2        TX        TY        TZ  
        (cm-1)      (nm)                 (au**2)    (au)      (au)      (au) 
-----------------------------------------------------------------------------
   1   58646.1    170.5   0.002954874   0.01659  -0.03650   0.02078  -0.12175

-----------------------------------------------------------------------------
         ABSORPTION SPECTRUM VIA TRANSITION VELOCITY DIPOLE MOMENTS
-----------------------------------------------------------------------------
State   Energy    Wavelength   fosc        P2         PX        PY        PZ  
        (cm-1)      (nm)                 (au**2)     (au)      (au)      (au) 
-----------------------------------------------------------------------------
   1   58646.1    170.5   0.018849645   0.00756   0.00685   0.00652   0.08641

-------------------------------------------------------------------
                             CD SPECTRUM
-------------------------------------------------------------------
State  Energy     Wavelength     R         MX        MY        MZ   
       (cm-1)       (nm)     (1e40*cgs)   (au)      (au)      (au)  
-------------------------------------------------------------------
   1   58646.1    170.5      4.22222  -0.26317  -0.15635  -0.02135

-------------------------------------------------------------------
         CD SPECTRUM VIA TRANSITION VELOCITY DIPOLE MOMENTS        
-------------------------------------------------------------------
State  Energy     Wavelength     R         MX        MY        MZ   
       (cm-1)       (nm)     (1e40*cgs)   (au)      (au)      (au)  
-------------------------------------------------------------------
   1   58646.1    170.5     -8.23308  -0.26317  -0.15635  -0.02135

Total run time:        0.820 sec

           *** ORCA-CIS/TD-DFT FINISHED WITHOUT ERROR ***

Maximum memory used throughout the entire CIS-calculation: 49.4 MB

-----------------------
CIS/TD-DFT TOTAL ENERGY
-----------------------

    E(SCF)  =   -153.643504884 Eh
    DE(CIS) =      0.267211231 Eh (Root  1)
    ----------------------------- ---------
    E(tot)  =   -153.376293653 Eh



-------------------------------------------------------------------------------
                          DFT DISPERSION CORRECTION                            
                                                                               
                              DFTD3 V3.1  Rev 1                                
                          USING Becke-Johnson damping                          
-------------------------------------------------------------------------------
The PBE0 functional is recognized
Active option DFTDOPT                   ...         4   

molecular C6(AA) [au] = 351.279919 


            DFT-D V3
 parameters
 s6 scaling factor         :     1.0000 
 a1 scaling factor         :     0.4145 
 s8 scaling factor         :     1.2177 
 a2 scaling factor         :     4.8593 
 ad hoc parameters k1-k3   :    16.0000     1.3333    -4.0000 

 Edisp/kcal,au: -1.512645624163  -0.002410553984 
 E6   /kcal   :  -0.991865143 
 E8   /kcal   :  -0.520780481 
 % E8         :  34.428452573 

-------------------------   ----------------
Dispersion correction           -0.002410554
-------------------------   ----------------


-------------------------   --------------------
FINAL SINGLE POINT ENERGY      -153.378704206557
-------------------------   --------------------



           ************************************************************
           *        Program running with 8 parallel MPI-processes     *
           *              working on a common directory               *
           ************************************************************
------------------------------------------------------------------------------
                         ORCA SCF GRADIENT CALCULATION
------------------------------------------------------------------------------


------------------------
TD-DFT GRADIENT XC SETUP
------------------------

Building densities                     ... done
Calculating rho(r) on the grid         ... done
Building xc-kernel on the grid         ... done
Building xc 3rd derivative on the grid      ... done
                *** TD-DFT GRADIENT CALCULATION INITIALIZED ***

-------------------
TD-DFT/TDA GRADIENT
-------------------

Reference wavefunction             ... RHF
State of interest                  ... 1
Basis dimension                    ... 117
DFT-XC contribution needed         ... YES
RI-approximation                   ... ON
CIS-vectors being read from        ... ox_es1_A_orca0020.cis

 => Number of Vectors found: 1
 => Orbital Window: 3...11 -> 12...116

Reading the CIS file                     ... done
Norm of the CI vector                    ... 1.000000000
Making the CIS (pseudo)densities         ... done
Making operators G(D) and Q(T)           ... done
Transforming the Fock operators          ... done
Making the frozen-core relaxed density   ... done
Constructing the G(H) operator           ... done
Transforming the G(H) operator           ... done
Calculating the CIS Lagrangian           ... done
Solving the Z-vector equations           ... done
Finalizing the relaxed density           ... done
Storing the relaxed density              ... done
Constructing the G(Z) operator           ... done
Transforming the G(Z) operator           ... done
Making the W-matrix                      ... done
Finalizing the W-matrix                  ... done
Transforming the W-matrix                ... done
Nuclear repulsion gradient               ... done
One-Electron gradient                    ... done
Dispersion correction                    ... done
Prescreening matrices                    ... done
COSX-gradient                            ... done
Coulomb gradient (RI)                    ... done
Exchange-Correlation gradient            ... done

                 ---------------------------
                 EXCITED STATE GRADIENT DONE
                 ---------------------------

------------------
CARTESIAN GRADIENT
------------------

   1   O   :   -0.087580102   -0.145361495    0.015276757
   2   C   :    0.149974240    0.141481208    0.032483547
   3   C   :   -0.047556352    0.015497983    0.055996773
   4   H   :    0.006141144    0.012068721   -0.033178233
   5   H   :   -0.013385432   -0.015936679   -0.003224798
   6   H   :    0.018177710   -0.008105396   -0.045299140
   7   H   :   -0.025845422    0.000325482   -0.022063519

Difference to translation invariance:
           :   -0.0000742139   -0.0000301751   -0.0000086124

Difference to rotation invariance:
           :    0.0001265201   -0.0004081425    0.0004275909

Norm of the cartesian gradient     ...    0.2890781468
RMS gradient                       ...    0.0630820233
MAX gradient                       ...    0.1499742398

------------------------------------------------------------------------------
                  RELAXED CIS/TDA DENSITY POPULATION ANALYSIS
                                   IROOT 1
------------------------------------------------------------------------------
------------------------------------------------------------------------------
                           ORCA POPULATION ANALYSIS
------------------------------------------------------------------------------
Input electron density              ... ox_es1_A_orca0020.cisp
BaseName (.gbw .S,...)              ... ox_es1_A_orca0020

                    ********************************
                    * MULLIKEN POPULATION ANALYSIS *
                    ********************************

-----------------------
MULLIKEN ATOMIC CHARGES
-----------------------
   0 O :    0.170287
   1 C :   -0.669459
   2 C :   -0.145772
   3 H :    0.159842
   4 H :    0.170945
   5 H :    0.147815
   6 H :    0.166341
Sum of atomic charges:   -0.0000000

--------------------------------
MULLIKEN REDUCED ORBITAL CHARGES
--------------------------------
  0 O s       :     3.704604  s :     3.704604
      pz      :     1.119082  p :     4.086819
      px      :     1.551008
      py      :     1.416728
      dz2     :     0.003489  d :     0.036770
      dxz     :     0.002670
      dyz     :     0.006988
      dx2y2   :     0.010880
      dxy     :     0.012742
      f0      :     0.000097  f :     0.001520
      f+1     :    -0.000024
      f-1     :     0.000174
      f+2     :     0.000125
      f-2     :     0.000176
      f+3     :     0.000418
      f-3     :     0.000554
  1 C s       :     3.292454  s :     3.292454
      pz      :     1.098115  p :     3.273259
      px      :     0.902882
      py      :     1.272263
      dz2     :     0.001852  d :     0.093049
      dxz     :     0.022110
      dyz     :     0.006484
      dx2y2   :     0.035467
      dxy     :     0.027135
      f0      :     0.000944  f :     0.010697
      f+1     :     0.000956
      f-1     :     0.000872
      f+2     :     0.001243
      f-2     :     0.001124
      f+3     :     0.002915
      f-3     :     0.002642
  2 C s       :     3.207080  s :     3.207080
      pz      :     1.027624  p :     2.818766
      px      :     0.981462
      py      :     0.809680
      dz2     :     0.012727  d :     0.108921
      dxz     :     0.029376
      dyz     :     0.014286
      dx2y2   :     0.029150
      dxy     :     0.023382
      f0      :     0.001199  f :     0.011004
      f+1     :     0.001327
      f-1     :     0.000682
      f+2     :     0.001205
      f-2     :     0.001003
      f+3     :     0.002235
      f-3     :     0.003354
  3 H s       :     0.810626  s :     0.810626
      pz      :     0.008485  p :     0.029532
      px      :     0.008876
      py      :     0.012171
  4 H s       :     0.804676  s :     0.804676
      pz      :     0.009696  p :     0.024379
      px      :     0.006922
      py      :     0.007761
  5 H s       :     0.833992  s :     0.833992
      pz      :     0.010679  p :     0.018193
      px      :     0.004989
      py      :     0.002525
  6 H s       :     0.810162  s :     0.810162
      pz      :     0.011655  p :     0.023498
      px      :     0.007240
      py      :     0.004602


                     *******************************
                     * LOEWDIN POPULATION ANALYSIS *
                     *******************************

----------------------
LOEWDIN ATOMIC CHARGES
----------------------
   0 O :    0.394921
   1 C :   -0.584923
   2 C :   -0.389526
   3 H :    0.114981
   4 H :    0.148627
   5 H :    0.170670
   6 H :    0.145249

-------------------------------
LOEWDIN REDUCED ORBITAL CHARGES
-------------------------------
  0 O s       :     3.467947  s :     3.467947
      pz      :     1.061275  p :     4.029241
      px      :     1.498768
      py      :     1.469199
      dz2     :     0.013293  d :     0.101551
      dxz     :     0.007490
      dyz     :     0.015930
      dx2y2   :     0.032645
      dxy     :     0.032193
      f0      :     0.000622  f :     0.006340
      f+1     :     0.000136
      f-1     :     0.000851
      f+2     :     0.000285
      f-2     :     0.000769
      f+3     :     0.001310
      f-3     :     0.002367
  1 C s       :     2.815531  s :     2.815531
      pz      :     1.056589  p :     3.154018
      px      :     1.055630
      py      :     1.041799
      dz2     :     0.069112  d :     0.537031
      dxz     :     0.142340
      dyz     :     0.029820
      dx2y2   :     0.136793
      dxy     :     0.158965
      f0      :     0.006613  f :     0.078344
      f+1     :     0.006572
      f-1     :     0.009033
      f+2     :     0.006779
      f-2     :     0.004563
      f+3     :     0.024524
      f-3     :     0.020259
  2 C s       :     2.809534  s :     2.809534
      pz      :     0.994482  p :     2.968211
      px      :     1.117501
      py      :     0.856228
      dz2     :     0.070996  d :     0.521708
      dxz     :     0.147655
      dyz     :     0.047182
      dx2y2   :     0.139853
      dxy     :     0.116022
      f0      :     0.009689  f :     0.090073
      f+1     :     0.006191
      f-1     :     0.007601
      f+2     :     0.009314
      f-2     :     0.004300
      f+3     :     0.025155
      f-3     :     0.027823
  3 H s       :     0.800515  s :     0.800515
      pz      :     0.028374  p :     0.084503
      px      :     0.024917
      py      :     0.031212
  4 H s       :     0.785319  s :     0.785319
      pz      :     0.028932  p :     0.066054
      px      :     0.016858
      py      :     0.020264
  5 H s       :     0.782595  s :     0.782595
      pz      :     0.028776  p :     0.046736
      px      :     0.011714
      py      :     0.006245
  6 H s       :     0.785438  s :     0.785438
      pz      :     0.035632  p :     0.069313
      px      :     0.020581
      py      :     0.013099


                      *****************************
                      * MAYER POPULATION ANALYSIS *
                      *****************************

  NA   - Mulliken gross atomic population
  ZA   - Total nuclear charge
  QA   - Mulliken gross atomic charge
  VA   - Mayer's total valence
  BVA  - Mayer's bonded valence
  FA   - Mayer's free valence

  ATOM       NA         ZA         QA         VA         BVA        FA
  0 O      7.8297     8.0000     0.1703     1.6755     1.0038     0.6717
  1 C      6.6695     6.0000    -0.6695     4.1100     3.2533     0.8568
  2 C      6.1458     6.0000    -0.1458     4.0828     3.8723     0.2105
  3 H      0.8402     1.0000     0.1598     0.9997     0.9486     0.0511
  4 H      0.8291     1.0000     0.1709     0.9576     0.9380     0.0196
  5 H      0.8522     1.0000     0.1478     0.9765     0.9097     0.0668
  6 H      0.8337     1.0000     0.1663     0.9640     0.9324     0.0315

  Mayer bond orders larger than 0.100000
B(  0-O ,  1-C ) :   0.1173 B(  0-O ,  2-C ) :   0.8763 B(  1-C ,  2-C ) :   1.2206 
B(  1-C ,  3-H ) :   0.9362 B(  1-C ,  4-H ) :   0.9350 B(  2-C ,  5-H ) :   0.8632 
B(  2-C ,  6-H ) :   0.9146 


-------
TIMINGS
-------

Total TD-DFT gradient time         ...        5.251 sec

Fock matrix formation       ....       0.876 sec  ( 16.7%)
  Coulomb formation         ....       0.708 sec  ( 80.9% of F)
  RI-J                      ....       0.299 sec  ( 34.1% of F)
  Chain of spheres X        ....       0.409 sec  ( 46.7% of F)
  XC integration            ....       0.167 sec  ( 19.1% of F)
Z-vector equation           ....       1.415 sec  ( 26.9%)
One electron gradient       ....       0.034 sec  (  0.6%)
Prescreening matrices       ....       0.162 sec  (  3.1%)
RI-J Coulomb gradient       ....       0.273 sec  (  5.2%)
COSX gradient               ....       0.366 sec  (  7.0%)
XC gradient                 ....       1.802 sec  ( 34.3%)

Maximum memory used throughout the entire SCFGRAD-calculation: 130.3 MB

                            ***************************************
                            *     ORCA property calculations      *
                            ***************************************

                                    ---------------------
                                    Active property flags
                                    ---------------------
   (+) Dipole Moment


------------------------------------------------------------------------------
                       ORCA ELECTRIC PROPERTIES CALCULATION
------------------------------------------------------------------------------

Dipole Moment Calculation                       ... on
Quadrupole Moment Calculation                   ... off
Polarizability Calculation                      ... off
GBWName                                         ... ox_es1_A_orca0020.gbw
Electron density                                ... ox_es1_A_orca0020.scfp
The origin for moment calculation is the CENTER OF MASS  = ( 0.062979,  0.047050  0.050667)

-------------
DIPOLE MOMENT
-------------
                                X             Y             Z
Electronic contribution:      0.17679       1.72189       0.25592
Nuclear contribution   :     -0.29560      -2.53704      -0.17311
                        -----------------------------------------
Total Dipole Moment    :     -0.11881      -0.81515       0.08281
                        -----------------------------------------
Magnitude (a.u.)       :      0.82791
Magnitude (Debye)      :      2.10439



--------------------
Rotational spectrum 
--------------------
 
Rotational constants in cm-1:     0.875255     0.746048     0.477239 
Rotational constants in MHz : 26239.488060 22365.958991 14307.261992 

 Dipole components along the rotational axes: 
x,y,z [a.u.] :    -0.649196     0.512921     0.029978 
x,y,z [Debye]:    -1.650125     1.303742     0.076199 

 

                        *** CIS RELAXED DENSITY ***

------------------------------------------------------------------------------
                       ORCA ELECTRIC PROPERTIES CALCULATION
------------------------------------------------------------------------------

Dipole Moment Calculation                       ... on
Quadrupole Moment Calculation                   ... off
Polarizability Calculation                      ... off
GBWName                                         ... ox_es1_A_orca0020.gbw
Electron density                                ... ox_es1_A_orca0020.cisp
The origin for moment calculation is the CENTER OF MASS  = ( 0.062979,  0.047050  0.050667)

-------------
DIPOLE MOMENT
-------------
                                X             Y             Z
Electronic contribution:      0.85388       2.39330       0.17197
Nuclear contribution   :     -0.29560      -2.53704      -0.17311
                        -----------------------------------------
Total Dipole Moment    :      0.55828      -0.14374      -0.00113
                        -----------------------------------------
Magnitude (a.u.)       :      0.57649
Magnitude (Debye)      :      1.46531



--------------------
Rotational spectrum 
--------------------
 
Rotational constants in cm-1:     0.875255     0.746048     0.477239 
Rotational constants in MHz : 26239.488060 22365.958991 14307.261992 

 Dipole components along the rotational axes: 
x,y,z [a.u.] :     0.307232     0.487798    -0.000092 
x,y,z [Debye]:     0.780921     1.239883    -0.000233 

 

Timings for individual modules:

Sum of individual times         ...        8.014 sec (=   0.134 min)
GTO integral calculation        ...        0.310 sec (=   0.005 min)   3.9 %
SCF iterations                  ...        1.222 sec (=   0.020 min)  15.3 %
CIS module                      ...        1.034 sec (=   0.017 min)  12.9 %
SCF Gradient evaluation         ...        5.448 sec (=   0.091 min)  68.0 %
                             ****ORCA TERMINATED NORMALLY****
TOTAL RUN TIME: 0 days 0 hours 0 minutes 8 seconds 379 msec
