
                                 *****************
                                 * O   R   C   A *
                                 *****************

                                            #,                                       
                                            ###                                      
                                            ####                                     
                                            #####                                    
                                            ######                                   
                                           ########,                                 
                                     ,,################,,,,,                         
                               ,,#################################,,                 
                          ,,##########################################,,             
                       ,#########################################, ''#####,          
                    ,#############################################,,   '####,        
                  ,##################################################,,,,####,       
                ,###########''''           ''''###############################       
              ,#####''   ,,,,##########,,,,          '''####'''          '####       
            ,##' ,,,,###########################,,,                        '##       
           ' ,,###''''                  '''############,,,                           
         ,,##''                                '''############,,,,        ,,,,,,###''
      ,#''                                            '''#######################'''  
     '                                                          ''''####''''         
             ,#######,   #######,   ,#######,      ##                                
            ,#'     '#,  ##    ##  ,#'     '#,    #''#        ######   ,####,        
            ##       ##  ##   ,#'  ##            #'  '#       #        #'  '#        
            ##       ##  #######   ##           ,######,      #####,   #    #        
            '#,     ,#'  ##    ##  '#,     ,#' ,#      #,         ##   #,  ,#        
             '#######'   ##     ##  '#######'  #'      '#     #####' # '####'        



                  #######################################################
                  #                        -***-                        #
                  #          Department of theory and spectroscopy      #
                  #    Directorship and core code : Frank Neese         #
                  #        Max Planck Institute fuer Kohlenforschung    #
                  #                Kaiser Wilhelm Platz 1               #
                  #                 D-45470 Muelheim/Ruhr               #
                  #                      Germany                        #
                  #                                                     #
                  #                  All rights reserved                #
                  #                        -***-                        #
                  #######################################################


                         Program Version 5.0.2 -  RELEASE  -


 With contributions from (in alphabetic order):
   Daniel Aravena         : Magnetic Suceptibility
   Michael Atanasov       : Ab Initio Ligand Field Theory (pilot matlab implementation)
   Alexander A. Auer      : GIAO ZORA, VPT2 properties, NMR spectrum
   Ute Becker             : Parallelization
   Giovanni Bistoni       : ED, misc. LED, open-shell LED, HFLD
   Martin Brehm           : Molecular dynamics
   Dmytro Bykov           : SCF Hessian
   Vijay G. Chilkuri      : MRCI spin determinant printing, contributions to CSF-ICE
   Dipayan Datta          : RHF DLPNO-CCSD density
   Achintya Kumar Dutta   : EOM-CC, STEOM-CC
   Dmitry Ganyushin       : Spin-Orbit,Spin-Spin,Magnetic field MRCI
   Miquel Garcia          : C-PCM and meta-GGA Hessian, CC/C-PCM, Gaussian charge scheme
   Yang Guo               : DLPNO-NEVPT2, F12-NEVPT2, CIM, IAO-localization
   Andreas Hansen         : Spin unrestricted coupled pair/coupled cluster methods
   Benjamin Helmich-Paris : MC-RPA, TRAH-SCF, COSX integrals
   Lee Huntington         : MR-EOM, pCC
   Robert Izsak           : Overlap fitted RIJCOSX, COSX-SCS-MP3, EOM
   Marcus Kettner         : VPT2
   Christian Kollmar      : KDIIS, OOCD, Brueckner-CCSD(T), CCSD density, CASPT2, CASPT2-K
   Simone Kossmann        : Meta GGA functionals, TD-DFT gradient, OOMP2, MP2 Hessian
   Martin Krupicka        : Initial AUTO-CI
   Lucas Lang             : DCDCAS
   Marvin Lechner         : AUTO-CI (C++ implementation), FIC-MRCC
   Dagmar Lenk            : GEPOL surface, SMD
   Dimitrios Liakos       : Extrapolation schemes; Compound Job, initial MDCI parallelization
   Dimitrios Manganas     : Further ROCIS development; embedding schemes
   Dimitrios Pantazis     : SARC Basis sets
   Anastasios Papadopoulos: AUTO-CI, single reference methods and gradients
   Taras Petrenko         : DFT Hessian,TD-DFT gradient, ASA, ECA, R-Raman, ABS, FL, XAS/XES, NRVS
   Peter Pinski           : DLPNO-MP2, DLPNO-MP2 Gradient
   Christoph Reimann      : Effective Core Potentials
   Marius Retegan         : Local ZFS, SOC
   Christoph Riplinger    : Optimizer, TS searches, QM/MM, DLPNO-CCSD(T), (RO)-DLPNO pert. Triples
   Tobias Risthaus        : Range-separated hybrids, TD-DFT gradient, RPA, STAB
   Michael Roemelt        : Original ROCIS implementation
   Masaaki Saitow         : Open-shell DLPNO-CCSD energy and density
   Barbara Sandhoefer     : DKH picture change effects
   Avijit Sen             : IP-ROCIS
   Kantharuban Sivalingam : CASSCF convergence, NEVPT2, FIC-MRCI
   Bernardo de Souza      : ESD, SOC TD-DFT
   Georgi Stoychev        : AutoAux, RI-MP2 NMR, DLPNO-MP2 response
   Willem Van den Heuvel  : Paramagnetic NMR
   Boris Wezisla          : Elementary symmetry handling
   Frank Wennmohs         : Technical directorship


 We gratefully acknowledge several colleagues who have allowed us to
 interface, adapt or use parts of their codes:
   Stefan Grimme, W. Hujo, H. Kruse, P. Pracht,  : VdW corrections, initial TS optimization,
                  C. Bannwarth, S. Ehlert          DFT functionals, gCP, sTDA/sTD-DF
   Ed Valeev, F. Pavosevic, A. Kumar             : LibInt (2-el integral package), F12 methods
   Garnet Chan, S. Sharma, J. Yang, R. Olivares  : DMRG
   Ulf Ekstrom                                   : XCFun DFT Library
   Mihaly Kallay                                 : mrcc  (arbitrary order and MRCC methods)
   Jiri Pittner, Ondrej Demel                    : Mk-CCSD
   Frank Weinhold                                : gennbo (NPA and NBO analysis)
   Christopher J. Cramer and Donald G. Truhlar   : smd solvation model
   Lars Goerigk                                  : TD-DFT with DH, B97 family of functionals
   V. Asgeirsson, H. Jonsson                     : NEB implementation
   FAccTs GmbH                                   : IRC, NEB, NEB-TS, DLPNO-Multilevel, CI-OPT
                                                   MM, QMMM, 2- and 3-layer-ONIOM, Crystal-QMMM,
                                                   LR-CPCM, SF, NACMEs, symmetry and pop. for TD-DFT,
                                                   nearIR, NL-DFT gradient (VV10), updates on ESD,
                                                   ML-optimized integration grids
   S Lehtola, MJT Oliveira, MAL Marques          : LibXC Library
   Liviu Ungur et al                             : ANISO software


 Your calculation uses the libint2 library for the computation of 2-el integrals
 For citations please refer to: http://libint.valeyev.net

 Your ORCA version has been built with support for libXC version: 5.1.0
 For citations please refer to: https://tddft.org/programs/libxc/

 This ORCA versions uses:
   CBLAS   interface :  Fast vector & matrix operations
   LAPACKE interface :  Fast linear algebra routines
   SCALAPACK package :  Parallel linear algebra routines
   Shared memory     :  Shared parallel matrices
   BLAS/LAPACK       :  OpenBLAS 0.3.15  USE64BITINT DYNAMIC_ARCH NO_AFFINITY SkylakeX SINGLE_THREADED
        Core in use  :  SkylakeX
   Copyright (c) 2011-2014, The OpenBLAS Project


Your calculation utilizes the atom-pairwise dispersion correction
with the Becke-Johnson damping scheme (D3BJ)
Cite in your paper:
S.Grimme, S.Ehrlich, L.Goerigk, J Comput Chem, (2011), 32, 1456–1465 
S.Grimme, J.Antony, S.Ehrlich and H.Krieg, J.Chem.Phys., 132, (2010), 154104 
   

================================================================================

----- Orbital basis set information -----
Your calculation utilizes the basis: def2-TZVP
   F. Weigend and R. Ahlrichs, Phys. Chem. Chem. Phys. 7, 3297 (2005).

----- AuxJ basis set information -----
Your calculation utilizes the auxiliary basis: def2/J
   F. Weigend, Phys. Chem. Chem. Phys. 8, 1057 (2006).

================================================================================
                                        WARNINGS
                       Please study these warnings very carefully!
================================================================================

INFO   : Checking CIS options ...

WARNING: CIS/ROCIS methods need fully converged wavefunctions
  ===> : Setting SCFConvForced true
         You can overwrite this default with %scf ConvForced false 


INFO   : the flag for use of the SHARK integral package has been found!

================================================================================
                                       INPUT FILE
================================================================================
NAME = ox_es1_A_orca0027.inp
|  1> ! engrad PBE0 D3BJ def2-TZVP  
|  2> %pal nprocs 8 end
|  3> %maxcore 3000
|  4> 
|  5> %tddft
|  6>   nroots 1
|  7>   tda true
|  8>   Iroot 1
|  9>   end 
| 10> *xyz 0 1 
| 11> O   -0.05040426554587021 0.6733847139487072 -0.017575564202065432
| 12> C   -0.7279686710405224 -0.36319862438623585 0.016346368688208133
| 13> C   0.7179345135595567 -0.40555021094082555 -0.11055676545039426
| 14> H   -1.2520422020945716 -0.6297275503056516 0.846046907711008
| 15> H   -1.2066350678396536 -0.6513460896252794 -0.9407406156950401
| 16> H   1.2954619133053142 -0.5547362171097803 -0.9108829072470752
| 17> H   1.2762338993150169 -0.6912388549770122 0.8774839515267604
| 18> *
| 19> 
| 20>                          ****END OF INPUT****
================================================================================

                     *******************************
                     * Energy+Gradient Calculation *
                     *******************************

---------------------------------
CARTESIAN COORDINATES (ANGSTROEM)
---------------------------------
  O     -0.050404    0.673385   -0.017576
  C     -0.727969   -0.363199    0.016346
  C      0.717935   -0.405550   -0.110557
  H     -1.252042   -0.629728    0.846047
  H     -1.206635   -0.651346   -0.940741
  H      1.295462   -0.554736   -0.910883
  H      1.276234   -0.691239    0.877484

----------------------------
CARTESIAN COORDINATES (A.U.)
----------------------------
  NO LB      ZA    FRAG     MASS         X           Y           Z
   0 O     8.0000    0    15.999   -0.095250    1.272513   -0.033213
   1 C     6.0000    0    12.011   -1.375661   -0.686346    0.030890
   2 C     6.0000    0    12.011    1.356700   -0.766379   -0.208922
   3 H     1.0000    0     1.008   -2.366017   -1.190013    1.598797
   4 H     1.0000    0     1.008   -2.280210   -1.230866   -1.777742
   5 H     1.0000    0     1.008    2.448068   -1.048300   -1.721319
   6 H     1.0000    0     1.008    2.411733   -1.306252    1.658204

--------------------------------
INTERNAL COORDINATES (ANGSTROEM)
--------------------------------
 O      0   0   0     0.000000000000     0.00000000     0.00000000
 C      1   0   0     1.238849966073     0.00000000     0.00000000
 C      1   2   0     1.327814202142    68.80769693     0.00000000
 H      2   1   3     1.016903986991   121.56823828   114.67410747
 H      2   1   3     1.108226500687   115.47641692   260.86181454
 H      3   1   2     0.998156448227   120.82363788   119.85475116
 H      3   1   2     1.170273755952   114.53805235   257.49349324

---------------------------
INTERNAL COORDINATES (A.U.)
---------------------------
 O      0   0   0     0.000000000000     0.00000000     0.00000000
 C      1   0   0     2.341087156895     0.00000000     0.00000000
 C      1   2   0     2.509205198779    68.80769693     0.00000000
 H      2   1   3     1.921670039905   121.56823828   114.67410747
 H      2   1   3     2.094244580652   115.47641692   260.86181454
 H      3   1   2     1.886242325956   120.82363788   119.85475116
 H      3   1   2     2.211496900465   114.53805235   257.49349324

---------------------
BASIS SET INFORMATION
---------------------
There are 3 groups of distinct atoms

 Group   1 Type O   : 11s6p2d1f contracted to 5s3p2d1f pattern {62111/411/11/1}
 Group   2 Type C   : 11s6p2d1f contracted to 5s3p2d1f pattern {62111/411/11/1}
 Group   3 Type H   : 5s1p contracted to 3s1p pattern {311/1}

Atom   0O    basis set group =>   1
Atom   1C    basis set group =>   2
Atom   2C    basis set group =>   2
Atom   3H    basis set group =>   3
Atom   4H    basis set group =>   3
Atom   5H    basis set group =>   3
Atom   6H    basis set group =>   3
---------------------------------
AUXILIARY/J BASIS SET INFORMATION
---------------------------------
There are 3 groups of distinct atoms

 Group   1 Type O   : 12s5p4d2f1g contracted to 6s4p3d1f1g pattern {711111/2111/211/2/1}
 Group   2 Type C   : 12s5p4d2f1g contracted to 6s4p3d1f1g pattern {711111/2111/211/2/1}
 Group   3 Type H   : 5s2p1d contracted to 3s1p1d pattern {311/2/1}

Atom   0O    basis set group =>   1
Atom   1C    basis set group =>   2
Atom   2C    basis set group =>   2
Atom   3H    basis set group =>   3
Atom   4H    basis set group =>   3
Atom   5H    basis set group =>   3
Atom   6H    basis set group =>   3

Checking for AutoStart:
The File: ox_es1_A_orca0027.gbw exists
Trying to determine its content:
     ... Fine, the file contains calculation information
     ... Fine, the calculation information was read
     ... Fine, the file contains a basis set
     ... Fine, the basis set was read
     ... Fine, the file contains a geometry
     ... Fine, the geometry was read
     ... Fine, the file contains a set of orbitals
     ... Fine, the orbitals can be read
     => possible old guess file was deleted
     => GBW file was renamed to GES file
     => GES file is set as startup file
     => Guess is set to MORead
     ... now leaving AutoStart



           ************************************************************
           *        Program running with 8 parallel MPI-processes     *
           *              working on a common directory               *
           ************************************************************
------------------------------------------------------------------------------
                           ORCA GTO INTEGRAL CALCULATION
                           -- RI-GTO INTEGRALS CHOSEN --
------------------------------------------------------------------------------
------------------------------------------------------------------------------
                   ___                                                        
                  /   \      - P O W E R E D   B Y -                         
                 /     \                                                     
                 |  |  |   _    _      __       _____    __    __             
                 |  |  |  | |  | |    /  \     |  _  \  |  |  /  |          
                  \  \/   | |  | |   /    \    | | | |  |  | /  /          
                 / \  \   | |__| |  /  /\  \   | |_| |  |  |/  /          
                |  |  |   |  __  | /  /__\  \  |    /   |      \           
                |  |  |   | |  | | |   __   |  |    \   |  |\   \          
                \     /   | |  | | |  |  |  |  | |\  \  |  | \   \       
                 \___/    |_|  |_| |__|  |__|  |_| \__\ |__|  \__/        
                                                                              
                      - O R C A' S   B I G   F R I E N D -                    
                                      &                                       
                       - I N T E G R A L  F E E D E R -                       
                                                                              
 v1 FN, 2020, v2 2021                                                         
------------------------------------------------------------------------------


Reading SHARK input file ox_es1_A_orca0027.SHARKINP.tmp ... ok
----------------------
SHARK INTEGRAL PACKAGE
----------------------

Number of atoms                             ...      7
Number of basis functions                   ...    117
Number of shells                            ...     49
Maximum angular momentum                    ...      3
Integral batch strategy                     ... SHARK/LIBINT Hybrid
RI-J (if used) integral strategy            ... SPLIT-RIJ (Revised 2003 algorithm where possible)
Printlevel                                  ...      1
Contraction scheme used                     ... SEGMENTED contraction
Coulomb Range Separation                    ... NOT USED
Exchange Range Separation                   ... NOT USED
Finite Nucleus Model                        ... NOT USED
Auxiliary Coulomb fitting basis             ... AVAILABLE
   # of basis functions in Aux-J            ...    191
   # of shells in Aux-J                     ...     65
   Maximum angular momentum in Aux-J        ...      4
Auxiliary J/K fitting basis                 ... NOT available
Auxiliary Correlation fitting basis         ... NOT available
Auxiliary 'external' fitting basis          ... NOT available
Integral threshold                          ...     2.500000e-11
Primitive cut-off                           ...     2.500000e-12
Primitive pair pre-selection threshold      ...     2.500000e-12

Calculating pre-screening integrals         ... done (  0.0 sec) Dimension = 49
Organizing shell pair data                  ... done (  0.0 sec)
Shell pair information
Total number of shell pairs                 ...      1225
Shell pairs after pre-screening             ...      1222
Total number of primitive shell pairs       ...      3648
Primitive shell pairs kept                  ...      3175
          la=0 lb=0:    375 shell pairs
          la=1 lb=0:    351 shell pairs
          la=1 lb=1:     91 shell pairs
          la=2 lb=0:    162 shell pairs
          la=2 lb=1:     78 shell pairs
          la=2 lb=2:     21 shell pairs
          la=3 lb=0:     81 shell pairs
          la=3 lb=1:     39 shell pairs
          la=3 lb=2:     18 shell pairs
          la=3 lb=3:      6 shell pairs

Calculating one electron integrals          ... done (  0.0 sec)
Calculating RI/J V-Matrix + Cholesky decomp.... done (  0.0 sec)
Calculating Nuclear repulsion               ... done (  0.0 sec) ENN=     80.173285190595 Eh

SHARK setup successfully completed in   0.1 seconds

Maximum memory used throughout the entire GTOINT-calculation: 14.9 MB


           ************************************************************
           *        Program running with 8 parallel MPI-processes     *
           *              working on a common directory               *
           ************************************************************
-------------------------------------------------------------------------------
                                 ORCA SCF
-------------------------------------------------------------------------------

------------
SCF SETTINGS
------------
Hamiltonian:
 Density Functional     Method          .... DFT(GTOs)
 Exchange Functional    Exchange        .... PBE
   PBE kappa parameter   XKappa         ....  0.804000
   PBE mue parameter    XMuePBE         ....  0.219520
 Correlation Functional Correlation     .... PBE
   PBE beta parameter  CBetaPBE         ....  0.066725
 LDA part of GGA corr.  LDAOpt          .... PW91-LDA
 Gradients option       PostSCFGGA      .... off
 Hybrid DFT is turned on
   Fraction HF Exchange ScalHFX         ....  0.250000
   Scaling of DF-GGA-X  ScalDFX         ....  0.750000
   Scaling of DF-GGA-C  ScalDFC         ....  1.000000
   Scaling of DF-LDA-C  ScalLDAC        ....  1.000000
   Perturbative correction              ....  0.000000
   Density functional embedding theory  .... OFF
   NL short-range parameter             ....  6.900000
 RI-approximation to the Coulomb term is turned on
   Number of AuxJ basis functions       .... 191
   RIJ-COSX (HFX calculated with COS-X)).... on


General Settings:
 Integral files         IntName         .... ox_es1_A_orca0027
 Hartree-Fock type      HFTyp           .... RHF
 Total Charge           Charge          ....    0
 Multiplicity           Mult            ....    1
 Number of Electrons    NEL             ....   24
 Basis Dimension        Dim             ....  117
 Nuclear Repulsion      ENuc            ....     80.1732851906 Eh

Convergence Acceleration:
 DIIS                   CNVDIIS         .... on
   Start iteration      DIISMaxIt       ....    12
   Startup error        DIISStart       ....  0.200000
   # of expansion vecs  DIISMaxEq       ....     5
   Bias factor          DIISBfac        ....   1.050
   Max. coefficient     DIISMaxC        ....  10.000
 Trust-Rad. Augm. Hess. CNVTRAH         .... auto
   Auto Start mean grad. ratio tolernc. ....  1.125000
   Auto Start start iteration           ....     1
   Auto Start num. interpolation iter.  ....    10
   Max. Number of Micro iterations      ....    16
   Max. Number of Macro iterations      .... Maxiter - #DIIS iter
   Number of Davidson start vectors     ....     2
   Converg. threshold I  (grad. norm)   ....   1.000e-05
   Converg. threshold II (energy diff.) ....   1.000e-08
   Grad. Scal. Fac. for Micro threshold ....   0.100
   Minimum threshold for Micro iter.    ....   0.010
   NR start threshold (gradient norm)   ....   0.001
   Initial trust radius                 ....   0.400
   Minimum AH scaling param. (alpha)    ....   1.000
   Maximum AH scaling param. (alpha)    .... 1000.000
   Orbital update algorithm             .... Taylor
   White noise on init. David. guess    .... on
   Maximum white noise                  ....   0.010
   Quad. conv. algorithm                .... NR
 SOSCF                  CNVSOSCF        .... on
   Start iteration      SOSCFMaxIt      ....   150
   Startup grad/error   SOSCFStart      ....  0.003300
 Level Shifting         CNVShift        .... on
   Level shift para.    LevelShift      ....    0.2500
   Turn off err/grad.   ShiftErr        ....    0.0010
 Zerner damping         CNVZerner       .... off
 Static damping         CNVDamp         .... on
   Fraction old density DampFac         ....    0.7000
   Max. Damping (<1)    DampMax         ....    0.9800
   Min. Damping (>=0)   DampMin         ....    0.0000
   Turn off err/grad.   DampErr         ....    0.1000
 Fernandez-Rico         CNVRico         .... off

SCF Procedure:
 Maximum # iterations   MaxIter         ....   125
 SCF integral mode      SCFMode         .... Direct
   Integral package                     .... SHARK and LIBINT hybrid scheme
 Reset frequency        DirectResetFreq ....    20
 Integral Threshold     Thresh          ....  2.500e-11 Eh
 Primitive CutOff       TCut            ....  2.500e-12 Eh

Convergence Tolerance:
 Convergence Check Mode ConvCheckMode   .... Total+1el-Energy
 Convergence forced     ConvForced      .... 1
 Energy Change          TolE            ....  1.000e-08 Eh
 1-El. energy change                    ....  1.000e-05 Eh
 Orbital Gradient       TolG            ....  1.000e-05
 Orbital Rotation angle TolX            ....  1.000e-05
 DIIS Error             TolErr          ....  5.000e-07


Diagonalization of the overlap matrix:
Smallest eigenvalue                        ... 3.134e-04
Time for diagonalization                   ...    0.001 sec
Threshold for overlap eigenvalues          ... 1.000e-08
Number of eigenvalues below threshold      ... 0
Time for construction of square roots      ...    0.001 sec
Total time needed                          ...    0.003 sec

---------------------
INITIAL GUESS: MOREAD
---------------------
Guess MOs are being read from file: ox_es1_A_orca0027.ges
Input Geometry matches current geometry (good)
Input basis set matches current basis set (good)
MOs were renormalized
MOs were reorthogonalized (Cholesky)
                      ------------------
                      INITIAL GUESS DONE (   0.0 sec)
                      ------------------
-------------------
DFT GRID GENERATION
-------------------

General Integration Accuracy     IntAcc      ... 4.388
Radial Grid Type                 RadialGrid  ... OptM3 with GC (2021)
Angular Grid (max. ang.)         AngularGrid ... 4 (Lebedev-302)
Angular grid pruning method      GridPruning ... 4 (adaptive)
Weight generation scheme         WeightScheme... Becke
Basis function cutoff            BFCut       ... 1.0000e-11
Integration weight cutoff        WCut        ... 1.0000e-14
Angular grids for H and He will be reduced by one unit
Partially contracted basis set               ... off
Rotationally invariant grid construction     ... off

Total number of grid points                  ...    31275
Total number of batches                      ...      493
Average number of points per batch           ...       63
Average number of grid points per atom       ...     4468
Time for grid setup =    0.118 sec

--------------------
COSX GRID GENERATION
--------------------

GRIDX 1
-------
General Integration Accuracy     IntAcc      ... 3.816
Radial Grid Type                 RadialGrid  ... OptM3 with GC (2021)
Angular Grid (max. ang.)         AngularGrid ... 1 (Lebedev-50)
Angular grid pruning method      GridPruning ... 4 (adaptive)
Weight generation scheme         WeightScheme... Becke
Basis function cutoff            BFCut       ... 1.0000e-11
Integration weight cutoff        WCut        ... 1.0000e-14
Angular grids for H and He will be reduced by one unit
Partially contracted basis set               ... on
Rotationally invariant grid construction     ... off

Total number of grid points                  ...     4030
Total number of batches                      ...       67
Average number of points per batch           ...       60
Average number of grid points per atom       ...      576
UseSFitting                                  ... on

GRIDX 2
-------
General Integration Accuracy     IntAcc      ... 4.020
Radial Grid Type                 RadialGrid  ... OptM3 with GC (2021)
Angular Grid (max. ang.)         AngularGrid ... 2 (Lebedev-110)
Angular grid pruning method      GridPruning ... 4 (adaptive)
Weight generation scheme         WeightScheme... Becke
Basis function cutoff            BFCut       ... 1.0000e-11
Integration weight cutoff        WCut        ... 1.0000e-14
Angular grids for H and He will be reduced by one unit
Partially contracted basis set               ... on
Rotationally invariant grid construction     ... off

Total number of grid points                  ...     8699
Total number of batches                      ...      139
Average number of points per batch           ...       62
Average number of grid points per atom       ...     1243
UseSFitting                                  ... on

GRIDX 3
-------
General Integration Accuracy     IntAcc      ... 4.338
Radial Grid Type                 RadialGrid  ... OptM3 with GC (2021)
Angular Grid (max. ang.)         AngularGrid ... 3 (Lebedev-194)
Angular grid pruning method      GridPruning ... 4 (adaptive)
Weight generation scheme         WeightScheme... Becke
Basis function cutoff            BFCut       ... 1.0000e-11
Integration weight cutoff        WCut        ... 1.0000e-14
Angular grids for H and He will be reduced by one unit
Partially contracted basis set               ... on
Rotationally invariant grid construction     ... off

Total number of grid points                  ...    19231
Total number of batches                      ...      303
Average number of points per batch           ...       63
Average number of grid points per atom       ...     2747
UseSFitting                                  ... on

Time for X-Grid setup             =    0.072 sec

--------------
SCF ITERATIONS
--------------
ITER       Energy         Delta-E        Max-DP      RMS-DP      [F,P]     Damp
               ***  Starting incremental Fock matrix formation  ***
                      *** Initiating the SOSCF procedure ***
                      *** Re-Reading the Fockian *** 
                      *** Removing any level shift *** 
ITER      Energy       Delta-E        Grad      Rot      Max-DP    RMS-DP
  0   -153.62669793 -153.6266979345  0.000000  0.000000  0.000000  0.000000
               *** Restarting incremental Fock matrix formation ***
                 **** Energy Check signals convergence ****
              ***Rediagonalizing the Fockian in SOSCF/NRSCF***

               *****************************************************
               *                     SUCCESS                       *
               *           SCF CONVERGED AFTER   1 CYCLES          *
               *****************************************************

Old exchange energy                            =     -5.042045252 Eh
New exchange energy                            =     -5.042035002 Eh
Exchange energy change after final integration =      0.000010249 Eh
Total energy after final integration           =   -153.626687685 Eh
Final COS-X integration done in                =     0.259 sec

----------------
TOTAL SCF ENERGY
----------------

Total Energy       :         -153.62668769 Eh           -4180.39470 eV

Components:
Nuclear Repulsion  :           80.17328519 Eh            2181.62600 eV
Electronic Energy  :         -233.79997288 Eh           -6362.02070 eV
One Electron Energy:         -366.45452126 Eh           -9971.73448 eV
Two Electron Energy:          132.65454839 Eh            3609.71378 eV
Max COSX asymmetry :            0.00000145 Eh               0.00004 eV

Virial components:
Potential Energy   :         -307.31224475 Eh           -8362.39132 eV
Kinetic Energy     :          153.68555707 Eh            4181.99662 eV
Virial Ratio       :            1.99961695


DFT components:
N(Alpha)           :       12.000001944545 electrons
N(Beta)            :       12.000001944545 electrons
N(Total)           :       24.000003889090 electrons
E(X)               :      -15.078498782719 Eh       
E(C)               :       -0.801284514157 Eh       
E(XC)              :      -15.879783296876 Eh       
DFET-embed. en.    :        0.000000000000 Eh       

---------------
SCF CONVERGENCE
---------------

  Last Energy change         ...   -7.2191e-12  Tolerance :   1.0000e-08
  Last MAX-Density change    ...    8.8818e-16  Tolerance :   1.0000e-07
  Last RMS-Density change    ...    2.3727e-17  Tolerance :   5.0000e-09
  Last Orbital Gradient      ...    5.8467e-08  Tolerance :   1.0000e-05
  Last Orbital Rotation      ...    6.7511e-08  Tolerance :   1.0000e-05

             **** THE GBW FILE WAS UPDATED (ox_es1_A_orca0027.gbw) ****
             **** DENSITY ox_es1_A_orca0027.scfp WAS UPDATED ****
             **** ENERGY FILE WAS UPDATED (ox_es1_A_orca0027.en.tmp) ****
             **** THE GBW FILE WAS UPDATED (ox_es1_A_orca0027.gbw) ****
             **** DENSITY ox_es1_A_orca0027.scfp WAS UPDATED ****
----------------
ORBITAL ENERGIES
----------------

  NO   OCC          E(Eh)            E(eV) 
   0   2.0000     -19.227775      -523.2144 
   1   2.0000     -10.266132      -279.3556 
   2   2.0000     -10.262441      -279.2552 
   3   2.0000      -1.212851       -33.0034 
   4   2.0000      -0.694204       -18.8902 
   5   2.0000      -0.679437       -18.4884 
   6   2.0000      -0.563625       -15.3370 
   7   2.0000      -0.538830       -14.6623 
   8   2.0000      -0.470895       -12.8137 
   9   2.0000      -0.392203       -10.6724 
  10   2.0000      -0.307953        -8.3798 
  11   2.0000      -0.290545        -7.9061 
  12   0.0000       0.066771         1.8169 
  13   0.0000       0.084335         2.2949 
  14   0.0000       0.104151         2.8341 
  15   0.0000       0.106820         2.9067 
  16   0.0000       0.129565         3.5256 
  17   0.0000       0.154515         4.2046 
  18   0.0000       0.197643         5.3781 
  19   0.0000       0.225082         6.1248 
  20   0.0000       0.270135         7.3507 
  21   0.0000       0.276975         7.5369 
  22   0.0000       0.301602         8.2070 
  23   0.0000       0.366338         9.9686 
  24   0.0000       0.398628        10.8472 
  25   0.0000       0.400520        10.8987 
  26   0.0000       0.408709        11.1215 
  27   0.0000       0.438089        11.9210 
  28   0.0000       0.470279        12.7969 
  29   0.0000       0.501576        13.6486 
  30   0.0000       0.518385        14.1060 
  31   0.0000       0.536647        14.6029 
  32   0.0000       0.554508        15.0889 
  33   0.0000       0.705965        19.2103 
  34   0.0000       0.721455        19.6318 
  35   0.0000       0.731435        19.9034 
  36   0.0000       0.847395        23.0588 
  37   0.0000       0.864749        23.5310 
  38   0.0000       0.921834        25.0844 
  39   0.0000       0.948348        25.8059 
  40   0.0000       1.040337        28.3090 
  41   0.0000       1.067988        29.0614 
  42   0.0000       1.085616        29.5411 
  43   0.0000       1.096109        29.8266 
  44   0.0000       1.177545        32.0426 
  45   0.0000       1.367475        37.2109 
  46   0.0000       1.400695        38.1149 
  47   0.0000       1.493848        40.6497 
  48   0.0000       1.522262        41.4229 
  49   0.0000       1.542812        41.9821 
  50   0.0000       1.593588        43.3637 
  51   0.0000       1.626042        44.2469 
  52   0.0000       1.656053        45.0635 
  53   0.0000       1.690024        45.9879 
  54   0.0000       1.750091        47.6224 
  55   0.0000       1.789399        48.6920 
  56   0.0000       1.863620        50.7117 
  57   0.0000       1.951016        53.0898 
  58   0.0000       1.988799        54.1180 
  59   0.0000       2.009302        54.6759 
  60   0.0000       2.095852        57.0310 
  61   0.0000       2.188946        59.5642 
  62   0.0000       2.208386        60.0932 
  63   0.0000       2.301076        62.6155 
  64   0.0000       2.317515        63.0628 
  65   0.0000       2.439540        66.3833 
  66   0.0000       2.457914        66.8832 
  67   0.0000       2.542164        69.1758 
  68   0.0000       2.552893        69.4677 
  69   0.0000       2.594245        70.5930 
  70   0.0000       2.703698        73.5714 
  71   0.0000       2.722548        74.0843 
  72   0.0000       2.750864        74.8548 
  73   0.0000       2.767164        75.2984 
  74   0.0000       2.818369        76.6917 
  75   0.0000       2.880341        78.3781 
  76   0.0000       2.940105        80.0043 
  77   0.0000       2.977454        81.0206 
  78   0.0000       3.021456        82.2180 
  79   0.0000       3.059075        83.2417 
  80   0.0000       3.079010        83.7841 
  81   0.0000       3.106692        84.5374 
  82   0.0000       3.173636        86.3590 
  83   0.0000       3.305957        89.9597 
  84   0.0000       3.356297        91.3295 
  85   0.0000       3.406121        92.6853 
  86   0.0000       3.440335        93.6163 
  87   0.0000       3.488912        94.9381 
  88   0.0000       3.613814        98.3369 
  89   0.0000       3.653123        99.4065 
  90   0.0000       3.790446       103.1433 
  91   0.0000       3.795623       103.2841 
  92   0.0000       3.895882       106.0123 
  93   0.0000       3.982907       108.3804 
  94   0.0000       4.075274       110.8938 
  95   0.0000       4.128272       112.3360 
  96   0.0000       4.241809       115.4255 
  97   0.0000       4.365554       118.7928 
  98   0.0000       4.458580       121.3241 
  99   0.0000       4.631792       126.0375 
 100   0.0000       4.814716       131.0151 
 101   0.0000       4.919836       133.8755 
 102   0.0000       5.477314       149.0453 
 103   0.0000       5.634985       153.3357 
 104   0.0000       5.909391       160.8027 
 105   0.0000       5.999531       163.2555 
 106   0.0000       6.128913       166.7762 
 107   0.0000       6.148658       167.3135 
 108   0.0000       6.348779       172.7591 
 109   0.0000       6.702292       182.3786 
 110   0.0000       6.752859       183.7546 
 111   0.0000       6.849696       186.3897 
 112   0.0000       7.054672       191.9674 
 113   0.0000       7.245357       197.1562 
 114   0.0000      22.551418       613.6553 
 115   0.0000      22.869514       622.3111 
 116   0.0000      43.970947      1196.5103 

                    ********************************
                    * MULLIKEN POPULATION ANALYSIS *
                    ********************************

-----------------------
MULLIKEN ATOMIC CHARGES
-----------------------
   0 O :   -0.245117
   1 C :   -0.039880
   2 C :   -0.099678
   3 H :    0.101302
   4 H :    0.068739
   5 H :    0.125928
   6 H :    0.088706
Sum of atomic charges:   -0.0000000

--------------------------------
MULLIKEN REDUCED ORBITAL CHARGES
--------------------------------
  0 O s       :     3.794440  s :     3.794440
      pz      :     1.764428  p :     4.389616
      px      :     1.281006
      py      :     1.344183
      dz2     :     0.005866  d :     0.057935
      dxz     :     0.005023
      dyz     :     0.010146
      dx2y2   :     0.017846
      dxy     :     0.019054
      f0      :     0.000453  f :     0.003125
      f+1     :     0.000282
      f-1     :     0.000502
      f+2     :     0.000111
      f-2     :     0.000424
      f+3     :     0.000308
      f-3     :     0.001046
  1 C s       :     3.170191  s :     3.170191
      pz      :     1.027427  p :     2.715548
      px      :     0.895439
      py      :     0.792681
      dz2     :     0.006114  d :     0.138442
      dxz     :     0.031317
      dyz     :     0.039998
      dx2y2   :     0.037374
      dxy     :     0.023639
      f0      :     0.002266  f :     0.015700
      f+1     :     0.001530
      f-1     :     0.000880
      f+2     :     0.001293
      f-2     :     0.002769
      f+3     :     0.002890
      f-3     :     0.004072
  2 C s       :     3.199567  s :     3.199567
      pz      :     1.051146  p :     2.769093
      px      :     0.890785
      py      :     0.827163
      dz2     :     0.005525  d :     0.116798
      dxz     :     0.029725
      dyz     :     0.030694
      dx2y2   :     0.032124
      dxy     :     0.018730
      f0      :     0.001823  f :     0.014219
      f+1     :     0.001612
      f-1     :     0.000701
      f+2     :     0.001378
      f-2     :     0.002446
      f+3     :     0.002796
      f-3     :     0.003462
  3 H s       :     0.875738  s :     0.875738
      pz      :     0.010575  p :     0.022959
      px      :     0.007503
      py      :     0.004881
  4 H s       :     0.910468  s :     0.910468
      pz      :     0.010732  p :     0.020793
      px      :     0.005771
      py      :     0.004291
  5 H s       :     0.850313  s :     0.850313
      pz      :     0.010396  p :     0.023759
      px      :     0.008333
      py      :     0.005031
  6 H s       :     0.892794  s :     0.892794
      pz      :     0.009503  p :     0.018499
      px      :     0.005277
      py      :     0.003719


                     *******************************
                     * LOEWDIN POPULATION ANALYSIS *
                     *******************************

----------------------
LOEWDIN ATOMIC CHARGES
----------------------
   0 O :    0.314246
   1 C :   -0.417902
   2 C :   -0.327625
   3 H :    0.096423
   4 H :    0.116425
   5 H :    0.090563
   6 H :    0.127870

-------------------------------
LOEWDIN REDUCED ORBITAL CHARGES
-------------------------------
  0 O s       :     3.223061  s :     3.223061
      pz      :     1.589780  p :     4.295969
      px      :     1.256483
      py      :     1.449706
      dz2     :     0.012954  d :     0.153349
      dxz     :     0.017014
      dyz     :     0.026374
      dx2y2   :     0.060783
      dxy     :     0.036224
      f0      :     0.001404  f :     0.013375
      f+1     :     0.000517
      f-1     :     0.001150
      f+2     :     0.000207
      f-2     :     0.002247
      f+3     :     0.001937
      f-3     :     0.005912
  1 C s       :     2.768907  s :     2.768907
      pz      :     1.028543  p :     2.922295
      px      :     1.004637
      py      :     0.889114
      dz2     :     0.059395  d :     0.611856
      dxz     :     0.159097
      dyz     :     0.135621
      dx2y2   :     0.134370
      dxy     :     0.123374
      f0      :     0.018086  f :     0.114844
      f+1     :     0.008138
      f-1     :     0.007211
      f+2     :     0.009547
      f-2     :     0.016082
      f+3     :     0.019488
      f-3     :     0.036292
  2 C s       :     2.789635  s :     2.789635
      pz      :     1.042346  p :     2.941301
      px      :     1.006615
      py      :     0.892340
      dz2     :     0.051386  d :     0.506043
      dxz     :     0.152571
      dyz     :     0.093024
      dx2y2   :     0.110204
      dxy     :     0.098859
      f0      :     0.012395  f :     0.090645
      f+1     :     0.007638
      f-1     :     0.006373
      f+2     :     0.008357
      f-2     :     0.011722
      f+3     :     0.017348
      f-3     :     0.026812
  3 H s       :     0.832223  s :     0.832223
      pz      :     0.034428  p :     0.071354
      px      :     0.021450
      py      :     0.015476
  4 H s       :     0.827114  s :     0.827114
      pz      :     0.030133  p :     0.056461
      px      :     0.014701
      py      :     0.011627
  5 H s       :     0.831772  s :     0.831772
      pz      :     0.035787  p :     0.077665
      px      :     0.024970
      py      :     0.016908
  6 H s       :     0.823439  s :     0.823439
      pz      :     0.026182  p :     0.048691
      px      :     0.012738
      py      :     0.009772


                      *****************************
                      * MAYER POPULATION ANALYSIS *
                      *****************************

  NA   - Mulliken gross atomic population
  ZA   - Total nuclear charge
  QA   - Mulliken gross atomic charge
  VA   - Mayer's total valence
  BVA  - Mayer's bonded valence
  FA   - Mayer's free valence

  ATOM       NA         ZA         QA         VA         BVA        FA
  0 O      8.2451     8.0000    -0.2451     2.0540     2.0540    -0.0000
  1 C      6.0399     6.0000    -0.0399     4.0281     4.0281    -0.0000
  2 C      6.0997     6.0000    -0.0997     3.9560     3.9560    -0.0000
  3 H      0.8987     1.0000     0.1013     0.9578     0.9578    -0.0000
  4 H      0.9313     1.0000     0.0687     0.9610     0.9610    -0.0000
  5 H      0.8741     1.0000     0.1259     0.9623     0.9623    -0.0000
  6 H      0.9113     1.0000     0.0887     0.9675     0.9675    -0.0000

  Mayer bond orders larger than 0.100000
B(  0-O ,  1-C ) :   1.0529 B(  0-O ,  2-C ) :   0.9684 B(  1-C ,  2-C ) :   1.0547 
B(  1-C ,  3-H ) :   0.9573 B(  1-C ,  4-H ) :   0.9515 B(  2-C ,  5-H ) :   0.9644 
B(  2-C ,  6-H ) :   0.9541 

-------
TIMINGS
-------

Total SCF time: 0 days 0 hours 0 min 0 sec 

Total time                  ....       0.993 sec
Sum of individual times     ....       0.903 sec  ( 90.9%)

Fock matrix formation       ....       0.696 sec  ( 70.0%)
  Split-RI-J                ....       0.114 sec  ( 16.4% of F)
  Chain of spheres X        ....       0.518 sec  ( 74.5% of F)
  XC integration            ....       0.061 sec  (  8.8% of F)
    Basis function eval.    ....       0.017 sec  ( 28.5% of XC)
    Density eval.           ....       0.014 sec  ( 22.5% of XC)
    XC-Functional eval.     ....       0.004 sec  (  6.1% of XC)
    XC-Potential eval.      ....       0.019 sec  ( 31.6% of XC)
Diagonalization             ....       0.002 sec  (  0.2%)
Density matrix formation    ....       0.000 sec  (  0.0%)
Population analysis         ....       0.003 sec  (  0.3%)
Initial guess               ....       0.008 sec  (  0.8%)
Orbital Transformation      ....       0.000 sec  (  0.0%)
Orbital Orthonormalization  ....       0.002 sec  (  0.2%)
DIIS solution               ....       0.001 sec  (  0.1%)
SOSCF solution              ....       0.002 sec  (  0.2%)
Grid generation             ....       0.190 sec  ( 19.1%)

Maximum memory used throughout the entire SCF-calculation: 61.1 MB


           ************************************************************
           *        Program running with 8 parallel MPI-processes     *
           *              working on a common directory               *
           ************************************************************
------------------------------------------------------------------------------
                        ORCA TD-DFT/TDA CALCULATION
------------------------------------------------------------------------------

Input orbitals are from        ... ox_es1_A_orca0027.gbw
CI-vector output               ... ox_es1_A_orca0027.cis
Tamm-Dancoff approximation     ... operative
CIS-Integral strategy          ... AO-integrals
Integral handling              ... AO integral Direct
Max. core memory used          ... 3000 MB
Reference state                ... RHF
Generation of triplets         ... off
Follow IRoot                   ... off
Number of operators            ... 1
Orbital ranges used for CIS calculation:
 Operator 0:  Orbitals   3... 11  to  12...116
XAS localization array:
 Operator 0:  Orbitals  -1... -1

-------------------
XC-INTEGRATION GRID
-------------------

General Integration Accuracy     IntAcc      ... 3.467
Radial Grid Type                 RadialGrid  ... OptM3 with GC (2021)
Angular Grid (max. ang.)         AngularGrid ... 1 (Lebedev-50)
Angular grid pruning method      GridPruning ... 4 (adaptive)
Weight generation scheme         WeightScheme... Becke
Basis function cutoff            BFCut       ... 1.0000e-11
Integration weight cutoff        WCut        ... 1.0000e-14
Angular grids for H and He will be reduced by one unit
Partially contracted basis set               ... off
Rotationally invariant grid construction     ... off

Total number of grid points                  ...     4530
Total number of batches                      ...       75
Average number of points per batch           ...       60
Average number of grid points per atom       ...      647

---------------------
COSX-INTEGRATION GRID
---------------------

General Integration Accuracy     IntAcc      ... 3.067
Radial Grid Type                 RadialGrid  ... OptM3 with GC (2021)
Angular Grid (max. ang.)         AngularGrid ... 1 (Lebedev-50)
Angular grid pruning method      GridPruning ... 4 (adaptive)
Weight generation scheme         WeightScheme... Becke
Basis function cutoff            BFCut       ... 1.0000e-11
Integration weight cutoff        WCut        ... 1.0000e-14
Angular grids for H and He will be reduced by one unit
Partially contracted basis set               ... on
Rotationally invariant grid construction     ... off

Total number of grid points                  ...     2085
Total number of batches                      ...       38
Average number of points per batch           ...       54
Average number of grid points per atom       ...      298

---------------
TD-DFT XC SETUP
---------------

DFT calculation                         ... on
Name of the grid file                   ... ox_es1_A_orca0027.grid_cis.tmp
Exchange functional (TD-DFT)            ... PBE
   PBE kappa parameter  XKappa (TD-DFT) ...  0.804000
   PBE mue parameter   XMuePBE (TD-DFT) ...  0.219520
Correlation functional (TD-DFT)         ... PBE
   PBE beta parameter CBetaPBE (TD-DFT) ...  0.066725
 LDA part of GGA corr.  LDAOpt (TD-DFT) ... PW91-LDA
Hybrid DFT                              ... on
   Exchange mixing (TD-DFT)             ...  0.250
   GGA exch. scaling (TD-DFT)           ...  0.750
   GGA corr. scaling (TD-DFT)           ...  1.000

Building densities             ... done
Calculating rho(r) on the grid ... done
Building xc-kernel on the grid ... done
                    *** TD-DFT CALCULATION INITIALIZED ***

------------------------
DAVIDSON-DIAGONALIZATION
------------------------

Dimension of the eigenvalue problem            ...    945
Number of roots to be determined               ...      1
Maximum size of the expansion space            ...     10
Maximum number of iterations                   ...    100
Convergence tolerance for the residual         ...    2.500e-07
Convergence tolerance for the energies         ...    2.500e-07
Orthogonality tolerance                        ...    1.000e-14
Level Shift                                    ...    0.000e+00
Constructing the preconditioner                ... o.k.
Building the initial guess                     ... o.k.
Number of trial vectors determined             ...     10


                       ****Iteration    0****

   Memory handling for direct AO based CIS:
   Memory per vector needed      ...     1 MB
   Memory needed                 ...     1 MB
   Memory available              ...  3000 MB
   Number of vectors per batch   ...  3000
   Number of batches             ...     1
   Time for densities:            0.000
   Time for RI-J (Direct):        0.016
   Time for K (COSX):             0.054
   Time for XC-Integration:       0.016
   Time for Sigma-Completion:     0.000
   Size of expansion space: 3
   Lowest Energy          :     0.309069709253
   Maximum Energy change  :     0.309069709253 (vector 0)
   Maximum residual norm  :     0.001531745303

                       ****Iteration    1****
   Time for densities:            0.000
   Time for RI-J (Direct):        0.013
   Time for K (COSX):             0.048
   Time for XC-Integration:       0.007
   Time for Sigma-Completion:     0.000
   Size of expansion space: 4
   Lowest Energy          :     0.307006867046
   Maximum Energy change  :     0.002062842206 (vector 0)
   Maximum residual norm  :     0.000268134754

                       ****Iteration    2****
   Time for densities:            0.000
   Time for RI-J (Direct):        0.013
   Time for K (COSX):             0.048
   Time for XC-Integration:       0.007
   Time for Sigma-Completion:     0.000
   Size of expansion space: 5
   Lowest Energy          :     0.306583053730
   Maximum Energy change  :     0.000423813316 (vector 0)
   Maximum residual norm  :     0.000062173211

                       ****Iteration    3****
   Time for densities:            0.000
   Time for RI-J (Direct):        0.013
   Time for K (COSX):             0.049
   Time for XC-Integration:       0.007
   Time for Sigma-Completion:     0.000
   Size of expansion space: 6
   Lowest Energy          :     0.306395903126
   Maximum Energy change  :     0.000187150604 (vector 0)
   Maximum residual norm  :     0.000039916410

                       ****Iteration    4****
   Time for densities:            0.000
   Time for RI-J (Direct):        0.013
   Time for K (COSX):             0.048
   Time for XC-Integration:       0.007
   Time for Sigma-Completion:     0.000
   Size of expansion space: 7
   Lowest Energy          :     0.306341942806
   Maximum Energy change  :     0.000053960320 (vector 0)
   Maximum residual norm  :     0.000008440312

                       ****Iteration    5****
   Time for densities:            0.000
   Time for RI-J (Direct):        0.013
   Time for K (COSX):             0.048
   Time for XC-Integration:       0.007
   Time for Sigma-Completion:     0.000
   Size of expansion space: 8
   Lowest Energy          :     0.306329689522
   Maximum Energy change  :     0.000012253283 (vector 0)
   Maximum residual norm  :     0.000001515461

                       ****Iteration    6****
   Time for densities:            0.000
   Time for RI-J (Direct):        0.013
   Time for K (COSX):             0.048
   Time for XC-Integration:       0.007
   Time for Sigma-Completion:     0.000
   Size of expansion space: 9
   Lowest Energy          :     0.306327394555
   Maximum Energy change  :     0.000002294967 (vector 0)
   Maximum residual norm  :     0.000000259007

                       ****Iteration    7****
   Time for densities:            0.000
   Time for RI-J (Direct):        0.013
   Time for K (COSX):             0.048
   Time for XC-Integration:       0.007
   Time for Sigma-Completion:     0.000
   Size of expansion space: 10
   Lowest Energy          :     0.306326860733
   Maximum Energy change  :     0.000000533822 (vector 0)
   Maximum residual norm  :     0.000000088735

      *** CONVERGENCE OF RESIDUAL NORM REACHED ***

Storing the converged CI vectors               ... ox_es1_A_orca0027.cis1

                 *** DAVIDSON DONE ***

Total time for solving the CIS problem:     0.568sec

------------------------------------
TD-DFT/TDA EXCITED STATES (SINGLETS)
------------------------------------

the weight of the individual excitations are printed if larger than 1.0e-02

STATE  1:  E=   0.306327 au      8.336 eV    67231.0 cm**-1 <S**2> =   0.000000
    11a ->  12a  :     0.963517 (c=  0.98158921)
    11a ->  14a  :     0.028620 (c=  0.16917462)


-----------------------------
TD-DFT/TDA-EXCITATION SPECTRA
-----------------------------

Center of mass = ( -0.0349, -0.0432, -0.0661)
Calculating the Dipole integrals                  ... done
Transforming integrals                            ... done
Calculating the Linear Momentum integrals         ... done
Transforming integrals                            ... done
Calculating angular momentum integrals            ... done
Transforming integrals                            ... done

-----------------------------------------------------------------------------
         ABSORPTION SPECTRUM VIA TRANSITION ELECTRIC DIPOLE MOMENTS
-----------------------------------------------------------------------------
State   Energy    Wavelength  fosc         T2        TX        TY        TZ  
        (cm-1)      (nm)                 (au**2)    (au)      (au)      (au) 
-----------------------------------------------------------------------------
   1   67231.0    148.7   0.124825202   0.61124   0.16418  -0.05035   0.76272

-----------------------------------------------------------------------------
         ABSORPTION SPECTRUM VIA TRANSITION VELOCITY DIPOLE MOMENTS
-----------------------------------------------------------------------------
State   Energy    Wavelength   fosc        P2         PX        PY        PZ  
        (cm-1)      (nm)                 (au**2)     (au)      (au)      (au) 
-----------------------------------------------------------------------------
   1   67231.0    148.7   0.067329628   0.03094  -0.03768   0.01113  -0.17145

-------------------------------------------------------------------
                             CD SPECTRUM
-------------------------------------------------------------------
State  Energy     Wavelength     R         MX        MY        MZ   
       (cm-1)       (nm)     (1e40*cgs)   (au)      (au)      (au)  
-------------------------------------------------------------------
   1   67231.0    148.7    -46.23194  -0.36050   0.07367  -0.04611

-------------------------------------------------------------------
         CD SPECTRUM VIA TRANSITION VELOCITY DIPOLE MOMENTS        
-------------------------------------------------------------------
State  Energy     Wavelength     R         MX        MY        MZ   
       (cm-1)       (nm)     (1e40*cgs)   (au)      (au)      (au)  
-------------------------------------------------------------------
   1   67231.0    148.7     34.33262  -0.36050   0.07367  -0.04611

Total run time:        0.817 sec

           *** ORCA-CIS/TD-DFT FINISHED WITHOUT ERROR ***

Maximum memory used throughout the entire CIS-calculation: 49.4 MB

-----------------------
CIS/TD-DFT TOTAL ENERGY
-----------------------

    E(SCF)  =   -153.626687685 Eh
    DE(CIS) =      0.306326861 Eh (Root  1)
    ----------------------------- ---------
    E(tot)  =   -153.320360825 Eh



-------------------------------------------------------------------------------
                          DFT DISPERSION CORRECTION                            
                                                                               
                              DFTD3 V3.1  Rev 1                                
                          USING Becke-Johnson damping                          
-------------------------------------------------------------------------------
The PBE0 functional is recognized
Active option DFTDOPT                   ...         4   

molecular C6(AA) [au] = 350.779432 


            DFT-D V3
 parameters
 s6 scaling factor         :     1.0000 
 a1 scaling factor         :     0.4145 
 s8 scaling factor         :     1.2177 
 a2 scaling factor         :     4.8593 
 ad hoc parameters k1-k3   :    16.0000     1.3333    -4.0000 

 Edisp/kcal,au: -1.516436807098  -0.002416595618 
 E6   /kcal   :  -0.995102364 
 E8   /kcal   :  -0.521334443 
 % E8         :  34.378909860 

-------------------------   ----------------
Dispersion correction           -0.002416596
-------------------------   ----------------


-------------------------   --------------------
FINAL SINGLE POINT ENERGY      -153.322777420223
-------------------------   --------------------



           ************************************************************
           *        Program running with 8 parallel MPI-processes     *
           *              working on a common directory               *
           ************************************************************
------------------------------------------------------------------------------
                         ORCA SCF GRADIENT CALCULATION
------------------------------------------------------------------------------


------------------------
TD-DFT GRADIENT XC SETUP
------------------------

Building densities                     ... done
Calculating rho(r) on the grid         ... done
Building xc-kernel on the grid         ... done
Building xc 3rd derivative on the grid      ... done
                *** TD-DFT GRADIENT CALCULATION INITIALIZED ***

-------------------
TD-DFT/TDA GRADIENT
-------------------

Reference wavefunction             ... RHF
State of interest                  ... 1
Basis dimension                    ... 117
DFT-XC contribution needed         ... YES
RI-approximation                   ... ON
CIS-vectors being read from        ... ox_es1_A_orca0027.cis

 => Number of Vectors found: 1
 => Orbital Window: 3...11 -> 12...116

Reading the CIS file                     ... done
Norm of the CI vector                    ... 1.000000000
Making the CIS (pseudo)densities         ... done
Making operators G(D) and Q(T)           ... done
Transforming the Fock operators          ... done
Making the frozen-core relaxed density   ... done
Constructing the G(H) operator           ... done
Transforming the G(H) operator           ... done
Calculating the CIS Lagrangian           ... done
Solving the Z-vector equations           ... done
Finalizing the relaxed density           ... done
Storing the relaxed density              ... done
Constructing the G(Z) operator           ... done
Transforming the G(Z) operator           ... done
Making the W-matrix                      ... done
Finalizing the W-matrix                  ... done
Transforming the W-matrix                ... done
Nuclear repulsion gradient               ... done
One-Electron gradient                    ... done
Dispersion correction                    ... done
Prescreening matrices                    ... done
COSX-gradient                            ... done
Coulomb gradient (RI)                    ... done
Exchange-Correlation gradient            ... done

                 ---------------------------
                 EXCITED STATE GRADIENT DONE
                 ---------------------------

------------------
CARTESIAN GRADIENT
------------------

   1   O   :   -0.043705637   -0.188655897   -0.013519122
   2   C   :    0.039698317    0.128937379    0.064305346
   3   C   :   -0.015950884    0.066415849   -0.088993549
   4   H   :    0.033452626    0.009839637   -0.062096319
   5   H   :    0.008398073   -0.006786857    0.014927936
   6   H   :   -0.031215562    0.010707903    0.082195267
   7   H   :    0.009260826   -0.020452737    0.003219532

Difference to translation invariance:
           :   -0.0000622413    0.0000052759    0.0000390917

Difference to rotation invariance:
           :    0.0001908231   -0.0003011718   -0.0000584443

Norm of the cartesian gradient     ...    0.2938982525
RMS gradient                       ...    0.0641338566
MAX gradient                       ...    0.1886558971

------------------------------------------------------------------------------
                  RELAXED CIS/TDA DENSITY POPULATION ANALYSIS
                                   IROOT 1
------------------------------------------------------------------------------
------------------------------------------------------------------------------
                           ORCA POPULATION ANALYSIS
------------------------------------------------------------------------------
Input electron density              ... ox_es1_A_orca0027.cisp
BaseName (.gbw .S,...)              ... ox_es1_A_orca0027

                    ********************************
                    * MULLIKEN POPULATION ANALYSIS *
                    ********************************

-----------------------
MULLIKEN ATOMIC CHARGES
-----------------------
   0 O :    0.112980
   1 C :    0.347740
   2 C :    0.388659
   3 H :   -0.165115
   4 H :   -0.170715
   5 H :   -0.173682
   6 H :   -0.339867
Sum of atomic charges:   -0.0000000

--------------------------------
MULLIKEN REDUCED ORBITAL CHARGES
--------------------------------
  0 O s       :     3.800609  s :     3.800609
      pz      :     1.227455  p :     4.017896
      px      :     1.392558
      py      :     1.397883
      dz2     :     0.007852  d :     0.065483
      dxz     :     0.006287
      dyz     :     0.012102
      dx2y2   :     0.020541
      dxy     :     0.018702
      f0      :     0.000384  f :     0.003032
      f+1     :     0.000144
      f-1     :     0.000371
      f+2     :     0.000126
      f-2     :     0.000500
      f+3     :     0.000318
      f-3     :     0.001189
  1 C s       :     2.791529  s :     2.791529
      pz      :     1.051838  p :     2.723484
      px      :     0.947695
      py      :     0.723950
      dz2     :     0.022302  d :     0.122694
      dxz     :     0.023965
      dyz     :     0.016531
      dx2y2   :     0.035571
      dxy     :     0.024325
      f0      :     0.001643  f :     0.014553
      f+1     :     0.001506
      f-1     :     0.000900
      f+2     :     0.001057
      f-2     :     0.002260
      f+3     :     0.003156
      f-3     :     0.004030
  2 C s       :     2.816477  s :     2.816477
      pz      :     1.114356  p :     2.680322
      px      :     0.871947
      py      :     0.694018
      dz2     :     0.021221  d :     0.101545
      dxz     :     0.021641
      dyz     :     0.009607
      dx2y2   :     0.030648
      dxy     :     0.018428
      f0      :     0.001405  f :     0.012998
      f+1     :     0.001604
      f-1     :     0.000736
      f+2     :     0.001026
      f-2     :     0.001748
      f+3     :     0.003129
      f-3     :     0.003349
  3 H s       :     1.134745  s :     1.134745
      pz      :     0.018212  p :     0.030370
      px      :     0.007597
      py      :     0.004560
  4 H s       :     1.141435  s :     1.141435
      pz      :     0.018991  p :     0.029280
      px      :     0.006025
      py      :     0.004265
  5 H s       :     1.143643  s :     1.143643
      pz      :     0.017671  p :     0.030039
      px      :     0.008571
      py      :     0.003796
  6 H s       :     1.311819  s :     1.311819
      pz      :     0.018953  p :     0.028047
      px      :     0.006003
      py      :     0.003092


                     *******************************
                     * LOEWDIN POPULATION ANALYSIS *
                     *******************************

----------------------
LOEWDIN ATOMIC CHARGES
----------------------
   0 O :    0.610778
   1 C :   -0.357606
   2 C :   -0.294365
   3 H :    0.028730
   4 H :    0.049387
   5 H :    0.009298
   6 H :   -0.046221

-------------------------------
LOEWDIN REDUCED ORBITAL CHARGES
-------------------------------
  0 O s       :     3.256186  s :     3.256186
      pz      :     1.124302  p :     3.957905
      px      :     1.332798
      py      :     1.500804
      dz2     :     0.016317  d :     0.161629
      dxz     :     0.019728
      dyz     :     0.025707
      dx2y2   :     0.066469
      dxy     :     0.033408
      f0      :     0.001364  f :     0.013503
      f+1     :     0.000353
      f-1     :     0.000986
      f+2     :     0.000212
      f-2     :     0.002505
      f+3     :     0.001727
      f-3     :     0.006357
  1 C s       :     2.814657  s :     2.814657
      pz      :     0.993035  p :     2.876867
      px      :     1.034194
      py      :     0.849638
      dz2     :     0.112203  d :     0.556830
      dxz     :     0.123613
      dyz     :     0.062947
      dx2y2   :     0.134975
      dxy     :     0.123092
      f0      :     0.012915  f :     0.109252
      f+1     :     0.008370
      f-1     :     0.007830
      f+2     :     0.007276
      f-2     :     0.013218
      f+3     :     0.021491
      f-3     :     0.038151
  2 C s       :     2.857756  s :     2.857756
      pz      :     1.056145  p :     2.869202
      px      :     1.013867
      py      :     0.799190
      dz2     :     0.102051  d :     0.480067
      dxz     :     0.127778
      dyz     :     0.041852
      dx2y2   :     0.108709
      dxy     :     0.099677
      f0      :     0.010126  f :     0.087340
      f+1     :     0.007780
      f-1     :     0.006937
      f+2     :     0.005699
      f-2     :     0.009101
      f+3     :     0.019972
      f-3     :     0.027726
  3 H s       :     0.880018  s :     0.880018
      pz      :     0.054435  p :     0.091253
      px      :     0.022363
      py      :     0.014455
  4 H s       :     0.868828  s :     0.868828
      pz      :     0.054527  p :     0.081785
      px      :     0.015674
      py      :     0.011584
  5 H s       :     0.893905  s :     0.893905
      pz      :     0.056652  p :     0.096797
      px      :     0.026530
      py      :     0.013615
  6 H s       :     0.962071  s :     0.962071
      pz      :     0.059677  p :     0.084149
      px      :     0.015703
      py      :     0.008770


                      *****************************
                      * MAYER POPULATION ANALYSIS *
                      *****************************

  NA   - Mulliken gross atomic population
  ZA   - Total nuclear charge
  QA   - Mulliken gross atomic charge
  VA   - Mayer's total valence
  BVA  - Mayer's bonded valence
  FA   - Mayer's free valence

  ATOM       NA         ZA         QA         VA         BVA        FA
  0 O      7.8870     8.0000     0.1130     2.3991     1.8100     0.5891
  1 C      5.6523     6.0000     0.3477     2.7114     2.9367    -0.2254
  2 C      5.6113     6.0000     0.3887     2.3952     2.7276    -0.3324
  3 H      1.1651     1.0000    -0.1651     1.4660     1.0573     0.4087
  4 H      1.1707     1.0000    -0.1707     1.4286     0.9593     0.4694
  5 H      1.1737     1.0000    -0.1737     1.4701     1.0845     0.3856
  6 H      1.3399     1.0000    -0.3399     1.4581     0.8772     0.5809

  Mayer bond orders larger than 0.100000
B(  0-O ,  1-C ) :   1.0099 B(  0-O ,  2-C ) :   0.8792 B(  1-C ,  2-C ) :   1.1467 
B(  1-C ,  3-H ) :   0.6274 B(  1-C ,  4-H ) :   0.4877 B(  1-C ,  5-H ) :  -0.1276 
B(  1-C ,  6-H ) :  -0.2075 B(  2-C ,  3-H ) :  -0.1381 B(  2-C ,  4-H ) :  -0.1696 
B(  2-C ,  5-H ) :   0.6658 B(  2-C ,  6-H ) :   0.3436 B(  3-H ,  4-H ) :   0.2030 
B(  3-H ,  5-H ) :   0.1512 B(  3-H ,  6-H ) :   0.2272 B(  4-H ,  5-H ) :   0.1676 
B(  4-H ,  6-H ) :   0.2887 B(  5-H ,  6-H ) :   0.2500 


-------
TIMINGS
-------

Total TD-DFT gradient time         ...        5.164 sec

Fock matrix formation       ....       0.849 sec  ( 16.4%)
  Coulomb formation         ....       0.686 sec  ( 80.7% of F)
  RI-J                      ....       0.290 sec  ( 34.2% of F)
  Chain of spheres X        ....       0.395 sec  ( 46.5% of F)
  XC integration            ....       0.164 sec  ( 19.3% of F)
Z-vector equation           ....       1.381 sec  ( 26.8%)
One electron gradient       ....       0.032 sec  (  0.6%)
Prescreening matrices       ....       0.160 sec  (  3.1%)
RI-J Coulomb gradient       ....       0.261 sec  (  5.0%)
COSX gradient               ....       0.349 sec  (  6.8%)
XC gradient                 ....       1.814 sec  ( 35.1%)

Maximum memory used throughout the entire SCFGRAD-calculation: 130.3 MB

                            ***************************************
                            *     ORCA property calculations      *
                            ***************************************

                                    ---------------------
                                    Active property flags
                                    ---------------------
   (+) Dipole Moment


------------------------------------------------------------------------------
                       ORCA ELECTRIC PROPERTIES CALCULATION
------------------------------------------------------------------------------

Dipole Moment Calculation                       ... on
Quadrupole Moment Calculation                   ... off
Polarizability Calculation                      ... off
GBWName                                         ... ox_es1_A_orca0027.gbw
Electron density                                ... ox_es1_A_orca0027.scfp
The origin for moment calculation is the CENTER OF MASS  = (-0.034876, -0.043207 -0.066141)

-------------
DIPOLE MOMENT
-------------
                                X             Y             Z
Electronic contribution:     -0.14698       1.81659      -0.03143
Nuclear contribution   :      0.17482      -2.27472       0.01143
                        -----------------------------------------
Total Dipole Moment    :      0.02784      -0.45813      -0.02000
                        -----------------------------------------
Magnitude (a.u.)       :      0.45941
Magnitude (Debye)      :      1.16773



--------------------
Rotational spectrum 
--------------------
 
Rotational constants in cm-1:     1.085111     0.752128     0.535971 
Rotational constants in MHz : 32530.795587 22548.243379 16068.014858 

 Dipole components along the rotational axes: 
x,y,z [a.u.] :    -0.090952    -0.450206    -0.010125 
x,y,z [Debye]:    -0.231181    -1.144332    -0.025735 

 

                        *** CIS RELAXED DENSITY ***

------------------------------------------------------------------------------
                       ORCA ELECTRIC PROPERTIES CALCULATION
------------------------------------------------------------------------------

Dipole Moment Calculation                       ... on
Quadrupole Moment Calculation                   ... off
Polarizability Calculation                      ... off
GBWName                                         ... ox_es1_A_orca0027.gbw
Electron density                                ... ox_es1_A_orca0027.cisp
The origin for moment calculation is the CENTER OF MASS  = (-0.034876, -0.043207 -0.066141)

-------------
DIPOLE MOMENT
-------------
                                X             Y             Z
Electronic contribution:     -0.56786       2.58519      -0.30184
Nuclear contribution   :      0.17482      -2.27472       0.01143
                        -----------------------------------------
Total Dipole Moment    :     -0.39305       0.31047      -0.29041
                        -----------------------------------------
Magnitude (a.u.)       :      0.57898
Magnitude (Debye)      :      1.47165



--------------------
Rotational spectrum 
--------------------
 
Rotational constants in cm-1:     1.085111     0.752128     0.535971 
Rotational constants in MHz : 32530.795587 22548.243379 16068.014858 

 Dipole components along the rotational axes: 
x,y,z [a.u.] :     0.410099     0.251739    -0.321971 
x,y,z [Debye]:     1.042390     0.639869    -0.818384 

 

Timings for individual modules:

Sum of individual times         ...        8.497 sec (=   0.142 min)
GTO integral calculation        ...        0.382 sec (=   0.006 min)   4.5 %
SCF iterations                  ...        1.321 sec (=   0.022 min)  15.6 %
CIS module                      ...        1.407 sec (=   0.023 min)  16.6 %
SCF Gradient evaluation         ...        5.386 sec (=   0.090 min)  63.4 %
                             ****ORCA TERMINATED NORMALLY****
TOTAL RUN TIME: 0 days 0 hours 0 minutes 8 seconds 882 msec
