
                                 *****************
                                 * O   R   C   A *
                                 *****************

                                            #,                                       
                                            ###                                      
                                            ####                                     
                                            #####                                    
                                            ######                                   
                                           ########,                                 
                                     ,,################,,,,,                         
                               ,,#################################,,                 
                          ,,##########################################,,             
                       ,#########################################, ''#####,          
                    ,#############################################,,   '####,        
                  ,##################################################,,,,####,       
                ,###########''''           ''''###############################       
              ,#####''   ,,,,##########,,,,          '''####'''          '####       
            ,##' ,,,,###########################,,,                        '##       
           ' ,,###''''                  '''############,,,                           
         ,,##''                                '''############,,,,        ,,,,,,###''
      ,#''                                            '''#######################'''  
     '                                                          ''''####''''         
             ,#######,   #######,   ,#######,      ##                                
            ,#'     '#,  ##    ##  ,#'     '#,    #''#        ######   ,####,        
            ##       ##  ##   ,#'  ##            #'  '#       #        #'  '#        
            ##       ##  #######   ##           ,######,      #####,   #    #        
            '#,     ,#'  ##    ##  '#,     ,#' ,#      #,         ##   #,  ,#        
             '#######'   ##     ##  '#######'  #'      '#     #####' # '####'        



                  #######################################################
                  #                        -***-                        #
                  #          Department of theory and spectroscopy      #
                  #    Directorship and core code : Frank Neese         #
                  #        Max Planck Institute fuer Kohlenforschung    #
                  #                Kaiser Wilhelm Platz 1               #
                  #                 D-45470 Muelheim/Ruhr               #
                  #                      Germany                        #
                  #                                                     #
                  #                  All rights reserved                #
                  #                        -***-                        #
                  #######################################################


                         Program Version 5.0.2 -  RELEASE  -


 With contributions from (in alphabetic order):
   Daniel Aravena         : Magnetic Suceptibility
   Michael Atanasov       : Ab Initio Ligand Field Theory (pilot matlab implementation)
   Alexander A. Auer      : GIAO ZORA, VPT2 properties, NMR spectrum
   Ute Becker             : Parallelization
   Giovanni Bistoni       : ED, misc. LED, open-shell LED, HFLD
   Martin Brehm           : Molecular dynamics
   Dmytro Bykov           : SCF Hessian
   Vijay G. Chilkuri      : MRCI spin determinant printing, contributions to CSF-ICE
   Dipayan Datta          : RHF DLPNO-CCSD density
   Achintya Kumar Dutta   : EOM-CC, STEOM-CC
   Dmitry Ganyushin       : Spin-Orbit,Spin-Spin,Magnetic field MRCI
   Miquel Garcia          : C-PCM and meta-GGA Hessian, CC/C-PCM, Gaussian charge scheme
   Yang Guo               : DLPNO-NEVPT2, F12-NEVPT2, CIM, IAO-localization
   Andreas Hansen         : Spin unrestricted coupled pair/coupled cluster methods
   Benjamin Helmich-Paris : MC-RPA, TRAH-SCF, COSX integrals
   Lee Huntington         : MR-EOM, pCC
   Robert Izsak           : Overlap fitted RIJCOSX, COSX-SCS-MP3, EOM
   Marcus Kettner         : VPT2
   Christian Kollmar      : KDIIS, OOCD, Brueckner-CCSD(T), CCSD density, CASPT2, CASPT2-K
   Simone Kossmann        : Meta GGA functionals, TD-DFT gradient, OOMP2, MP2 Hessian
   Martin Krupicka        : Initial AUTO-CI
   Lucas Lang             : DCDCAS
   Marvin Lechner         : AUTO-CI (C++ implementation), FIC-MRCC
   Dagmar Lenk            : GEPOL surface, SMD
   Dimitrios Liakos       : Extrapolation schemes; Compound Job, initial MDCI parallelization
   Dimitrios Manganas     : Further ROCIS development; embedding schemes
   Dimitrios Pantazis     : SARC Basis sets
   Anastasios Papadopoulos: AUTO-CI, single reference methods and gradients
   Taras Petrenko         : DFT Hessian,TD-DFT gradient, ASA, ECA, R-Raman, ABS, FL, XAS/XES, NRVS
   Peter Pinski           : DLPNO-MP2, DLPNO-MP2 Gradient
   Christoph Reimann      : Effective Core Potentials
   Marius Retegan         : Local ZFS, SOC
   Christoph Riplinger    : Optimizer, TS searches, QM/MM, DLPNO-CCSD(T), (RO)-DLPNO pert. Triples
   Tobias Risthaus        : Range-separated hybrids, TD-DFT gradient, RPA, STAB
   Michael Roemelt        : Original ROCIS implementation
   Masaaki Saitow         : Open-shell DLPNO-CCSD energy and density
   Barbara Sandhoefer     : DKH picture change effects
   Avijit Sen             : IP-ROCIS
   Kantharuban Sivalingam : CASSCF convergence, NEVPT2, FIC-MRCI
   Bernardo de Souza      : ESD, SOC TD-DFT
   Georgi Stoychev        : AutoAux, RI-MP2 NMR, DLPNO-MP2 response
   Willem Van den Heuvel  : Paramagnetic NMR
   Boris Wezisla          : Elementary symmetry handling
   Frank Wennmohs         : Technical directorship


 We gratefully acknowledge several colleagues who have allowed us to
 interface, adapt or use parts of their codes:
   Stefan Grimme, W. Hujo, H. Kruse, P. Pracht,  : VdW corrections, initial TS optimization,
                  C. Bannwarth, S. Ehlert          DFT functionals, gCP, sTDA/sTD-DF
   Ed Valeev, F. Pavosevic, A. Kumar             : LibInt (2-el integral package), F12 methods
   Garnet Chan, S. Sharma, J. Yang, R. Olivares  : DMRG
   Ulf Ekstrom                                   : XCFun DFT Library
   Mihaly Kallay                                 : mrcc  (arbitrary order and MRCC methods)
   Jiri Pittner, Ondrej Demel                    : Mk-CCSD
   Frank Weinhold                                : gennbo (NPA and NBO analysis)
   Christopher J. Cramer and Donald G. Truhlar   : smd solvation model
   Lars Goerigk                                  : TD-DFT with DH, B97 family of functionals
   V. Asgeirsson, H. Jonsson                     : NEB implementation
   FAccTs GmbH                                   : IRC, NEB, NEB-TS, DLPNO-Multilevel, CI-OPT
                                                   MM, QMMM, 2- and 3-layer-ONIOM, Crystal-QMMM,
                                                   LR-CPCM, SF, NACMEs, symmetry and pop. for TD-DFT,
                                                   nearIR, NL-DFT gradient (VV10), updates on ESD,
                                                   ML-optimized integration grids
   S Lehtola, MJT Oliveira, MAL Marques          : LibXC Library
   Liviu Ungur et al                             : ANISO software


 Your calculation uses the libint2 library for the computation of 2-el integrals
 For citations please refer to: http://libint.valeyev.net

 Your ORCA version has been built with support for libXC version: 5.1.0
 For citations please refer to: https://tddft.org/programs/libxc/

 This ORCA versions uses:
   CBLAS   interface :  Fast vector & matrix operations
   LAPACKE interface :  Fast linear algebra routines
   SCALAPACK package :  Parallel linear algebra routines
   Shared memory     :  Shared parallel matrices
   BLAS/LAPACK       :  OpenBLAS 0.3.15  USE64BITINT DYNAMIC_ARCH NO_AFFINITY SkylakeX SINGLE_THREADED
        Core in use  :  SkylakeX
   Copyright (c) 2011-2014, The OpenBLAS Project


Your calculation utilizes the atom-pairwise dispersion correction
with the Becke-Johnson damping scheme (D3BJ)
Cite in your paper:
S.Grimme, S.Ehrlich, L.Goerigk, J Comput Chem, (2011), 32, 1456–1465 
S.Grimme, J.Antony, S.Ehrlich and H.Krieg, J.Chem.Phys., 132, (2010), 154104 
   

================================================================================

----- Orbital basis set information -----
Your calculation utilizes the basis: def2-TZVP
   F. Weigend and R. Ahlrichs, Phys. Chem. Chem. Phys. 7, 3297 (2005).

----- AuxJ basis set information -----
Your calculation utilizes the auxiliary basis: def2/J
   F. Weigend, Phys. Chem. Chem. Phys. 8, 1057 (2006).

================================================================================
                                        WARNINGS
                       Please study these warnings very carefully!
================================================================================

INFO   : Checking CIS options ...

WARNING: CIS/ROCIS methods need fully converged wavefunctions
  ===> : Setting SCFConvForced true
         You can overwrite this default with %scf ConvForced false 


INFO   : the flag for use of the SHARK integral package has been found!

================================================================================
                                       INPUT FILE
================================================================================
NAME = ox_es1_A_orca0048.inp
|  1> ! engrad PBE0 D3BJ def2-TZVP  
|  2> %pal nprocs 8 end
|  3> %maxcore 3000
|  4> 
|  5> %tddft
|  6>   nroots 1
|  7>   tda true
|  8>   Iroot 1
|  9>   end 
| 10> *xyz 0 1 
| 11> O   0.05247768576596676 0.7401625494219717 0.06586981328171629
| 12> C   -0.71900960976538 -0.34325744636873673 -0.034459390904478394
| 13> C   0.8156877301582625 -0.4371249508268676 -0.032570900180722416
| 14> H   -1.288017221702716 -0.684288175409716 0.9411845173200958
| 15> H   -1.237680995598225 -0.696955910196929 -0.9211939496130491
| 16> H   1.370936337930593 -0.5818937014949644 -0.8981600365162984
| 17> H   1.26572304390841 -0.6622692436640869 0.9506520686365209
| 18> *
| 19> 
| 20>                          ****END OF INPUT****
================================================================================

                     *******************************
                     * Energy+Gradient Calculation *
                     *******************************

---------------------------------
CARTESIAN COORDINATES (ANGSTROEM)
---------------------------------
  O      0.052478    0.740163    0.065870
  C     -0.719010   -0.343257   -0.034459
  C      0.815688   -0.437125   -0.032571
  H     -1.288017   -0.684288    0.941185
  H     -1.237681   -0.696956   -0.921194
  H      1.370936   -0.581894   -0.898160
  H      1.265723   -0.662269    0.950652

----------------------------
CARTESIAN COORDINATES (A.U.)
----------------------------
  NO LB      ZA    FRAG     MASS         X           Y           Z
   0 O     8.0000    0    15.999    0.099168    1.398705    0.124476
   1 C     6.0000    0    12.011   -1.358731   -0.648663   -0.065119
   2 C     6.0000    0    12.011    1.541426   -0.826046   -0.061550
   3 H     1.0000    0     1.008   -2.434000   -1.293117    1.778581
   4 H     1.0000    0     1.008   -2.338878   -1.317056   -1.740804
   5 H     1.0000    0     1.008    2.590694   -1.099620   -1.697276
   6 H     1.0000    0     1.008    2.391870   -1.251507    1.796472

--------------------------------
INTERNAL COORDINATES (ANGSTROEM)
--------------------------------
 O      0   0   0     0.000000000000     0.00000000     0.00000000
 C      1   0   0     1.333813136709     0.00000000     0.00000000
 C      1   2   0     1.406480004895    68.20370870     0.00000000
 H      2   1   3     1.179810432336   116.84300788   107.22277912
 H      2   1   3     1.086471714958   127.00977103   258.09617355
 H      3   1   2     1.038510260202   117.71977291   111.85949390
 H      3   1   2     1.104513079429   109.23341719   252.79102613

---------------------------
INTERNAL COORDINATES (A.U.)
---------------------------
 O      0   0   0     0.000000000000     0.00000000     0.00000000
 C      1   0   0     2.520541542207     0.00000000     0.00000000
 C      1   2   0     2.657862022088    68.20370870     0.00000000
 H      2   1   3     2.229518607058   116.84300788   107.22277912
 H      2   1   3     2.053133993523   127.00977103   258.09617355
 H      3   1   2     1.962499979049   117.71977291   111.85949390
 H      3   1   2     2.087227231454   109.23341719   252.79102613

---------------------
BASIS SET INFORMATION
---------------------
There are 3 groups of distinct atoms

 Group   1 Type O   : 11s6p2d1f contracted to 5s3p2d1f pattern {62111/411/11/1}
 Group   2 Type C   : 11s6p2d1f contracted to 5s3p2d1f pattern {62111/411/11/1}
 Group   3 Type H   : 5s1p contracted to 3s1p pattern {311/1}

Atom   0O    basis set group =>   1
Atom   1C    basis set group =>   2
Atom   2C    basis set group =>   2
Atom   3H    basis set group =>   3
Atom   4H    basis set group =>   3
Atom   5H    basis set group =>   3
Atom   6H    basis set group =>   3
---------------------------------
AUXILIARY/J BASIS SET INFORMATION
---------------------------------
There are 3 groups of distinct atoms

 Group   1 Type O   : 12s5p4d2f1g contracted to 6s4p3d1f1g pattern {711111/2111/211/2/1}
 Group   2 Type C   : 12s5p4d2f1g contracted to 6s4p3d1f1g pattern {711111/2111/211/2/1}
 Group   3 Type H   : 5s2p1d contracted to 3s1p1d pattern {311/2/1}

Atom   0O    basis set group =>   1
Atom   1C    basis set group =>   2
Atom   2C    basis set group =>   2
Atom   3H    basis set group =>   3
Atom   4H    basis set group =>   3
Atom   5H    basis set group =>   3
Atom   6H    basis set group =>   3

Checking for AutoStart:
The File: ox_es1_A_orca0048.gbw exists
Trying to determine its content:
     ... Fine, the file contains calculation information
     ... Fine, the calculation information was read
     ... Fine, the file contains a basis set
     ... Fine, the basis set was read
     ... Fine, the file contains a geometry
     ... Fine, the geometry was read
     ... Fine, the file contains a set of orbitals
     ... Fine, the orbitals can be read
     => possible old guess file was deleted
     => GBW file was renamed to GES file
     => GES file is set as startup file
     => Guess is set to MORead
     ... now leaving AutoStart



           ************************************************************
           *        Program running with 8 parallel MPI-processes     *
           *              working on a common directory               *
           ************************************************************
------------------------------------------------------------------------------
                           ORCA GTO INTEGRAL CALCULATION
                           -- RI-GTO INTEGRALS CHOSEN --
------------------------------------------------------------------------------
------------------------------------------------------------------------------
                   ___                                                        
                  /   \      - P O W E R E D   B Y -                         
                 /     \                                                     
                 |  |  |   _    _      __       _____    __    __             
                 |  |  |  | |  | |    /  \     |  _  \  |  |  /  |          
                  \  \/   | |  | |   /    \    | | | |  |  | /  /          
                 / \  \   | |__| |  /  /\  \   | |_| |  |  |/  /          
                |  |  |   |  __  | /  /__\  \  |    /   |      \           
                |  |  |   | |  | | |   __   |  |    \   |  |\   \          
                \     /   | |  | | |  |  |  |  | |\  \  |  | \   \       
                 \___/    |_|  |_| |__|  |__|  |_| \__\ |__|  \__/        
                                                                              
                      - O R C A' S   B I G   F R I E N D -                    
                                      &                                       
                       - I N T E G R A L  F E E D E R -                       
                                                                              
 v1 FN, 2020, v2 2021                                                         
------------------------------------------------------------------------------


Reading SHARK input file ox_es1_A_orca0048.SHARKINP.tmp ... ok
----------------------
SHARK INTEGRAL PACKAGE
----------------------

Number of atoms                             ...      7
Number of basis functions                   ...    117
Number of shells                            ...     49
Maximum angular momentum                    ...      3
Integral batch strategy                     ... SHARK/LIBINT Hybrid
RI-J (if used) integral strategy            ... SPLIT-RIJ (Revised 2003 algorithm where possible)
Printlevel                                  ...      1
Contraction scheme used                     ... SEGMENTED contraction
Coulomb Range Separation                    ... NOT USED
Exchange Range Separation                   ... NOT USED
Finite Nucleus Model                        ... NOT USED
Auxiliary Coulomb fitting basis             ... AVAILABLE
   # of basis functions in Aux-J            ...    191
   # of shells in Aux-J                     ...     65
   Maximum angular momentum in Aux-J        ...      4
Auxiliary J/K fitting basis                 ... NOT available
Auxiliary Correlation fitting basis         ... NOT available
Auxiliary 'external' fitting basis          ... NOT available
Integral threshold                          ...     2.500000e-11
Primitive cut-off                           ...     2.500000e-12
Primitive pair pre-selection threshold      ...     2.500000e-12

Calculating pre-screening integrals         ... done (  0.0 sec) Dimension = 49
Organizing shell pair data                  ... done (  0.0 sec)
Shell pair information
Total number of shell pairs                 ...      1225
Shell pairs after pre-screening             ...      1221
Total number of primitive shell pairs       ...      3648
Primitive shell pairs kept                  ...      3155
          la=0 lb=0:    374 shell pairs
          la=1 lb=0:    351 shell pairs
          la=1 lb=1:     91 shell pairs
          la=2 lb=0:    162 shell pairs
          la=2 lb=1:     78 shell pairs
          la=2 lb=2:     21 shell pairs
          la=3 lb=0:     81 shell pairs
          la=3 lb=1:     39 shell pairs
          la=3 lb=2:     18 shell pairs
          la=3 lb=3:      6 shell pairs

Calculating one electron integrals          ... done (  0.0 sec)
Calculating RI/J V-Matrix + Cholesky decomp.... done (  0.0 sec)
Calculating Nuclear repulsion               ... done (  0.0 sec) ENN=     75.939450395516 Eh

SHARK setup successfully completed in   0.1 seconds

Maximum memory used throughout the entire GTOINT-calculation: 14.9 MB


           ************************************************************
           *        Program running with 8 parallel MPI-processes     *
           *              working on a common directory               *
           ************************************************************
-------------------------------------------------------------------------------
                                 ORCA SCF
-------------------------------------------------------------------------------

------------
SCF SETTINGS
------------
Hamiltonian:
 Density Functional     Method          .... DFT(GTOs)
 Exchange Functional    Exchange        .... PBE
   PBE kappa parameter   XKappa         ....  0.804000
   PBE mue parameter    XMuePBE         ....  0.219520
 Correlation Functional Correlation     .... PBE
   PBE beta parameter  CBetaPBE         ....  0.066725
 LDA part of GGA corr.  LDAOpt          .... PW91-LDA
 Gradients option       PostSCFGGA      .... off
 Hybrid DFT is turned on
   Fraction HF Exchange ScalHFX         ....  0.250000
   Scaling of DF-GGA-X  ScalDFX         ....  0.750000
   Scaling of DF-GGA-C  ScalDFC         ....  1.000000
   Scaling of DF-LDA-C  ScalLDAC        ....  1.000000
   Perturbative correction              ....  0.000000
   Density functional embedding theory  .... OFF
   NL short-range parameter             ....  6.900000
 RI-approximation to the Coulomb term is turned on
   Number of AuxJ basis functions       .... 191
   RIJ-COSX (HFX calculated with COS-X)).... on


General Settings:
 Integral files         IntName         .... ox_es1_A_orca0048
 Hartree-Fock type      HFTyp           .... RHF
 Total Charge           Charge          ....    0
 Multiplicity           Mult            ....    1
 Number of Electrons    NEL             ....   24
 Basis Dimension        Dim             ....  117
 Nuclear Repulsion      ENuc            ....     75.9394503955 Eh

Convergence Acceleration:
 DIIS                   CNVDIIS         .... on
   Start iteration      DIISMaxIt       ....    12
   Startup error        DIISStart       ....  0.200000
   # of expansion vecs  DIISMaxEq       ....     5
   Bias factor          DIISBfac        ....   1.050
   Max. coefficient     DIISMaxC        ....  10.000
 Trust-Rad. Augm. Hess. CNVTRAH         .... auto
   Auto Start mean grad. ratio tolernc. ....  1.125000
   Auto Start start iteration           ....     1
   Auto Start num. interpolation iter.  ....    10
   Max. Number of Micro iterations      ....    16
   Max. Number of Macro iterations      .... Maxiter - #DIIS iter
   Number of Davidson start vectors     ....     2
   Converg. threshold I  (grad. norm)   ....   1.000e-05
   Converg. threshold II (energy diff.) ....   1.000e-08
   Grad. Scal. Fac. for Micro threshold ....   0.100
   Minimum threshold for Micro iter.    ....   0.010
   NR start threshold (gradient norm)   ....   0.001
   Initial trust radius                 ....   0.400
   Minimum AH scaling param. (alpha)    ....   1.000
   Maximum AH scaling param. (alpha)    .... 1000.000
   Orbital update algorithm             .... Taylor
   White noise on init. David. guess    .... on
   Maximum white noise                  ....   0.010
   Quad. conv. algorithm                .... NR
 SOSCF                  CNVSOSCF        .... on
   Start iteration      SOSCFMaxIt      ....   150
   Startup grad/error   SOSCFStart      ....  0.003300
 Level Shifting         CNVShift        .... on
   Level shift para.    LevelShift      ....    0.2500
   Turn off err/grad.   ShiftErr        ....    0.0010
 Zerner damping         CNVZerner       .... off
 Static damping         CNVDamp         .... on
   Fraction old density DampFac         ....    0.7000
   Max. Damping (<1)    DampMax         ....    0.9800
   Min. Damping (>=0)   DampMin         ....    0.0000
   Turn off err/grad.   DampErr         ....    0.1000
 Fernandez-Rico         CNVRico         .... off

SCF Procedure:
 Maximum # iterations   MaxIter         ....   125
 SCF integral mode      SCFMode         .... Direct
   Integral package                     .... SHARK and LIBINT hybrid scheme
 Reset frequency        DirectResetFreq ....    20
 Integral Threshold     Thresh          ....  2.500e-11 Eh
 Primitive CutOff       TCut            ....  2.500e-12 Eh

Convergence Tolerance:
 Convergence Check Mode ConvCheckMode   .... Total+1el-Energy
 Convergence forced     ConvForced      .... 1
 Energy Change          TolE            ....  1.000e-08 Eh
 1-El. energy change                    ....  1.000e-05 Eh
 Orbital Gradient       TolG            ....  1.000e-05
 Orbital Rotation angle TolX            ....  1.000e-05
 DIIS Error             TolErr          ....  5.000e-07


Diagonalization of the overlap matrix:
Smallest eigenvalue                        ... 5.580e-04
Time for diagonalization                   ...    0.001 sec
Threshold for overlap eigenvalues          ... 1.000e-08
Number of eigenvalues below threshold      ... 0
Time for construction of square roots      ...    0.002 sec
Total time needed                          ...    0.003 sec

---------------------
INITIAL GUESS: MOREAD
---------------------
Guess MOs are being read from file: ox_es1_A_orca0048.ges
Input Geometry matches current geometry (good)
Input basis set matches current basis set (good)
MOs were renormalized
MOs were reorthogonalized (Cholesky)
                      ------------------
                      INITIAL GUESS DONE (   0.0 sec)
                      ------------------
-------------------
DFT GRID GENERATION
-------------------

General Integration Accuracy     IntAcc      ... 4.388
Radial Grid Type                 RadialGrid  ... OptM3 with GC (2021)
Angular Grid (max. ang.)         AngularGrid ... 4 (Lebedev-302)
Angular grid pruning method      GridPruning ... 4 (adaptive)
Weight generation scheme         WeightScheme... Becke
Basis function cutoff            BFCut       ... 1.0000e-11
Integration weight cutoff        WCut        ... 1.0000e-14
Angular grids for H and He will be reduced by one unit
Partially contracted basis set               ... off
Rotationally invariant grid construction     ... off

Total number of grid points                  ...    31335
Total number of batches                      ...      494
Average number of points per batch           ...       63
Average number of grid points per atom       ...     4476
Time for grid setup =    0.122 sec

--------------------
COSX GRID GENERATION
--------------------

GRIDX 1
-------
General Integration Accuracy     IntAcc      ... 3.816
Radial Grid Type                 RadialGrid  ... OptM3 with GC (2021)
Angular Grid (max. ang.)         AngularGrid ... 1 (Lebedev-50)
Angular grid pruning method      GridPruning ... 4 (adaptive)
Weight generation scheme         WeightScheme... Becke
Basis function cutoff            BFCut       ... 1.0000e-11
Integration weight cutoff        WCut        ... 1.0000e-14
Angular grids for H and He will be reduced by one unit
Partially contracted basis set               ... on
Rotationally invariant grid construction     ... off

Total number of grid points                  ...     4035
Total number of batches                      ...       67
Average number of points per batch           ...       60
Average number of grid points per atom       ...      576
UseSFitting                                  ... on

GRIDX 2
-------
General Integration Accuracy     IntAcc      ... 4.020
Radial Grid Type                 RadialGrid  ... OptM3 with GC (2021)
Angular Grid (max. ang.)         AngularGrid ... 2 (Lebedev-110)
Angular grid pruning method      GridPruning ... 4 (adaptive)
Weight generation scheme         WeightScheme... Becke
Basis function cutoff            BFCut       ... 1.0000e-11
Integration weight cutoff        WCut        ... 1.0000e-14
Angular grids for H and He will be reduced by one unit
Partially contracted basis set               ... on
Rotationally invariant grid construction     ... off

Total number of grid points                  ...     8716
Total number of batches                      ...      140
Average number of points per batch           ...       62
Average number of grid points per atom       ...     1245
UseSFitting                                  ... on

GRIDX 3
-------
General Integration Accuracy     IntAcc      ... 4.338
Radial Grid Type                 RadialGrid  ... OptM3 with GC (2021)
Angular Grid (max. ang.)         AngularGrid ... 3 (Lebedev-194)
Angular grid pruning method      GridPruning ... 4 (adaptive)
Weight generation scheme         WeightScheme... Becke
Basis function cutoff            BFCut       ... 1.0000e-11
Integration weight cutoff        WCut        ... 1.0000e-14
Angular grids for H and He will be reduced by one unit
Partially contracted basis set               ... on
Rotationally invariant grid construction     ... off

Total number of grid points                  ...    19253
Total number of batches                      ...      305
Average number of points per batch           ...       63
Average number of grid points per atom       ...     2750
UseSFitting                                  ... on

Time for X-Grid setup             =    0.073 sec

--------------
SCF ITERATIONS
--------------
ITER       Energy         Delta-E        Max-DP      RMS-DP      [F,P]     Damp
               ***  Starting incremental Fock matrix formation  ***
                      *** Initiating the SOSCF procedure ***
                      *** Re-Reading the Fockian *** 
                      *** Removing any level shift *** 
ITER      Energy       Delta-E        Grad      Rot      Max-DP    RMS-DP
  0   -153.65624599 -153.6562459872  0.000001  0.000001  0.000003  0.000000
               *** Restarting incremental Fock matrix formation ***
                  ***Gradient check signals convergence***
              ***Rediagonalizing the Fockian in SOSCF/NRSCF***

               *****************************************************
               *                     SUCCESS                       *
               *           SCF CONVERGED AFTER   1 CYCLES          *
               *****************************************************

Old exchange energy                            =     -4.996881237 Eh
New exchange energy                            =     -4.996882635 Eh
Exchange energy change after final integration =     -0.000001398 Eh
Total energy after final integration           =   -153.656247385 Eh
Final COS-X integration done in                =     0.307 sec

----------------
TOTAL SCF ENERGY
----------------

Total Energy       :         -153.65624739 Eh           -4181.19906 eV

Components:
Nuclear Repulsion  :           75.93945040 Eh            2066.41750 eV
Electronic Energy  :         -229.59569778 Eh           -6247.61656 eV
One Electron Energy:         -358.40480687 Eh           -9752.69061 eV
Two Electron Energy:          128.80910909 Eh            3505.07405 eV
Max COSX asymmetry :            0.00000166 Eh               0.00005 eV

Virial components:
Potential Energy   :         -306.62983312 Eh           -8343.82195 eV
Kinetic Energy     :          152.97358574 Eh            4162.62289 eV
Virial Ratio       :            2.00446261


DFT components:
N(Alpha)           :       12.000003399323 electrons
N(Beta)            :       12.000003399323 electrons
N(Total)           :       24.000006798645 electrons
E(X)               :      -14.959638085338 Eh       
E(C)               :       -0.791549019457 Eh       
E(XC)              :      -15.751187104795 Eh       
DFET-embed. en.    :        0.000000000000 Eh       

---------------
SCF CONVERGENCE
---------------

  Last Energy change         ...   -1.2525e-10  Tolerance :   1.0000e-08
  Last MAX-Density change    ...    1.2212e-15  Tolerance :   1.0000e-07
  Last RMS-Density change    ...    3.1156e-17  Tolerance :   5.0000e-09
  Last Orbital Gradient      ...    9.9876e-07  Tolerance :   1.0000e-05
  Last Orbital Rotation      ...    2.6503e-06  Tolerance :   1.0000e-05

             **** THE GBW FILE WAS UPDATED (ox_es1_A_orca0048.gbw) ****
             **** DENSITY ox_es1_A_orca0048.scfp WAS UPDATED ****
             **** ENERGY FILE WAS UPDATED (ox_es1_A_orca0048.en.tmp) ****
             **** THE GBW FILE WAS UPDATED (ox_es1_A_orca0048.gbw) ****
             **** DENSITY ox_es1_A_orca0048.scfp WAS UPDATED ****
----------------
ORBITAL ENERGIES
----------------

  NO   OCC          E(Eh)            E(eV) 
   0   2.0000     -19.231486      -523.3153 
   1   2.0000     -10.286804      -279.9182 
   2   2.0000     -10.273412      -279.5537 
   3   2.0000      -1.142981       -31.1021 
   4   2.0000      -0.686916       -18.6919 
   5   2.0000      -0.662494       -18.0274 
   6   2.0000      -0.535416       -14.5694 
   7   2.0000      -0.504965       -13.7408 
   8   2.0000      -0.452693       -12.3184 
   9   2.0000      -0.394360       -10.7311 
  10   2.0000      -0.306944        -8.3524 
  11   2.0000      -0.292668        -7.9639 
  12   0.0000       0.059754         1.6260 
  13   0.0000       0.069904         1.9022 
  14   0.0000       0.088043         2.3958 
  15   0.0000       0.108335         2.9479 
  16   0.0000       0.108928         2.9641 
  17   0.0000       0.150907         4.1064 
  18   0.0000       0.195548         5.3211 
  19   0.0000       0.211904         5.7662 
  20   0.0000       0.267087         7.2678 
  21   0.0000       0.275091         7.4856 
  22   0.0000       0.294764         8.0209 
  23   0.0000       0.349894         9.5211 
  24   0.0000       0.364195         9.9103 
  25   0.0000       0.382661        10.4127 
  26   0.0000       0.399866        10.8809 
  27   0.0000       0.433476        11.7955 
  28   0.0000       0.446908        12.1610 
  29   0.0000       0.463728        12.6187 
  30   0.0000       0.483118        13.1463 
  31   0.0000       0.513834        13.9821 
  32   0.0000       0.536814        14.6074 
  33   0.0000       0.703961        19.1557 
  34   0.0000       0.713495        19.4152 
  35   0.0000       0.717631        19.5277 
  36   0.0000       0.831874        22.6364 
  37   0.0000       0.865302        23.5461 
  38   0.0000       0.915112        24.9015 
  39   0.0000       0.939714        25.5709 
  40   0.0000       1.020665        27.7737 
  41   0.0000       1.025280        27.8993 
  42   0.0000       1.055729        28.7278 
  43   0.0000       1.074946        29.2508 
  44   0.0000       1.138151        30.9707 
  45   0.0000       1.365366        37.1535 
  46   0.0000       1.436846        39.0986 
  47   0.0000       1.489025        40.5184 
  48   0.0000       1.516821        41.2748 
  49   0.0000       1.533555        41.7301 
  50   0.0000       1.561638        42.4943 
  51   0.0000       1.634462        44.4760 
  52   0.0000       1.660703        45.1900 
  53   0.0000       1.706319        46.4313 
  54   0.0000       1.766604        48.0717 
  55   0.0000       1.799834        48.9760 
  56   0.0000       1.824642        49.6510 
  57   0.0000       1.924235        52.3611 
  58   0.0000       1.939244        52.7695 
  59   0.0000       1.975293        53.7505 
  60   0.0000       2.081728        56.6467 
  61   0.0000       2.153743        58.6063 
  62   0.0000       2.171204        59.0815 
  63   0.0000       2.245384        61.1000 
  64   0.0000       2.284743        62.1710 
  65   0.0000       2.425577        66.0033 
  66   0.0000       2.442271        66.4576 
  67   0.0000       2.469973        67.2114 
  68   0.0000       2.503966        68.1364 
  69   0.0000       2.552736        69.4635 
  70   0.0000       2.606643        70.9304 
  71   0.0000       2.642125        71.8959 
  72   0.0000       2.707545        73.6760 
  73   0.0000       2.726575        74.1939 
  74   0.0000       2.767469        75.3067 
  75   0.0000       2.828729        76.9736 
  76   0.0000       2.896997        78.8313 
  77   0.0000       2.955344        80.4190 
  78   0.0000       3.009771        81.9000 
  79   0.0000       3.029300        82.4314 
  80   0.0000       3.046574        82.9015 
  81   0.0000       3.063238        83.3550 
  82   0.0000       3.148437        85.6733 
  83   0.0000       3.233806        87.9963 
  84   0.0000       3.281127        89.2840 
  85   0.0000       3.301101        89.8275 
  86   0.0000       3.386323        92.1465 
  87   0.0000       3.435197        93.4765 
  88   0.0000       3.549870        96.5969 
  89   0.0000       3.603447        98.0548 
  90   0.0000       3.631620        98.8214 
  91   0.0000       3.731222       101.5317 
  92   0.0000       3.829233       104.1987 
  93   0.0000       3.976349       108.2020 
  94   0.0000       3.989856       108.5695 
  95   0.0000       4.058600       110.4401 
  96   0.0000       4.217244       114.7570 
  97   0.0000       4.273924       116.2994 
  98   0.0000       4.331689       117.8713 
  99   0.0000       4.532957       123.3480 
 100   0.0000       4.692982       127.7025 
 101   0.0000       4.870855       132.5427 
 102   0.0000       5.366144       146.0202 
 103   0.0000       5.528504       150.4382 
 104   0.0000       5.761292       156.7727 
 105   0.0000       5.868141       159.6802 
 106   0.0000       5.929232       161.3426 
 107   0.0000       5.959440       162.1646 
 108   0.0000       6.148315       167.3042 
 109   0.0000       6.668658       181.4634 
 110   0.0000       6.690976       182.0707 
 111   0.0000       6.807404       185.2389 
 112   0.0000       6.987674       190.1443 
 113   0.0000       7.190859       195.6732 
 114   0.0000      22.345408       608.0495 
 115   0.0000      22.403813       609.6388 
 116   0.0000      43.904577      1194.7043 

                    ********************************
                    * MULLIKEN POPULATION ANALYSIS *
                    ********************************

-----------------------
MULLIKEN ATOMIC CHARGES
-----------------------
   0 O :   -0.283553
   1 C :   -0.058150
   2 C :   -0.109743
   3 H :    0.094896
   4 H :    0.111771
   5 H :    0.128195
   6 H :    0.116583
Sum of atomic charges:   -0.0000000

--------------------------------
MULLIKEN REDUCED ORBITAL CHARGES
--------------------------------
  0 O s       :     3.831341  s :     3.831341
      pz      :     1.798481  p :     4.399845
      px      :     1.277713
      py      :     1.323651
      dz2     :     0.005993  d :     0.049885
      dxz     :     0.003734
      dyz     :     0.007913
      dx2y2   :     0.014454
      dxy     :     0.017791
      f0      :     0.000326  f :     0.002481
      f+1     :     0.000249
      f-1     :     0.000470
      f+2     :     0.000088
      f-2     :     0.000294
      f+3     :     0.000317
      f-3     :     0.000738
  1 C s       :     3.219249  s :     3.219249
      pz      :     1.026535  p :     2.705421
      px      :     0.884650
      py      :     0.794235
      dz2     :     0.005908  d :     0.120542
      dxz     :     0.029199
      dyz     :     0.034268
      dx2y2   :     0.030185
      dxy     :     0.020983
      f0      :     0.001630  f :     0.012938
      f+1     :     0.001473
      f-1     :     0.000880
      f+2     :     0.000878
      f-2     :     0.002348
      f+3     :     0.002626
      f-3     :     0.003103
  2 C s       :     3.236105  s :     3.236105
      pz      :     1.049523  p :     2.756261
      px      :     0.897131
      py      :     0.809607
      dz2     :     0.007529  d :     0.105608
      dxz     :     0.024801
      dyz     :     0.028321
      dx2y2   :     0.028149
      dxy     :     0.016808
      f0      :     0.001657  f :     0.011769
      f+1     :     0.001473
      f-1     :     0.000600
      f+2     :     0.001038
      f-2     :     0.001835
      f+3     :     0.002403
      f-3     :     0.002762
  3 H s       :     0.887068  s :     0.887068
      pz      :     0.009235  p :     0.018036
      px      :     0.005362
      py      :     0.003438
  4 H s       :     0.866568  s :     0.866568
      pz      :     0.010161  p :     0.021661
      px      :     0.006800
      py      :     0.004700
  5 H s       :     0.848881  s :     0.848881
      pz      :     0.010957  p :     0.022925
      px      :     0.007430
      py      :     0.004538
  6 H s       :     0.862199  s :     0.862199
      pz      :     0.011505  p :     0.021217
      px      :     0.005308
      py      :     0.004405


                     *******************************
                     * LOEWDIN POPULATION ANALYSIS *
                     *******************************

----------------------
LOEWDIN ATOMIC CHARGES
----------------------
   0 O :    0.194913
   1 C :   -0.364552
   2 C :   -0.284280
   3 H :    0.123337
   4 H :    0.109627
   5 H :    0.100586
   6 H :    0.120370

-------------------------------
LOEWDIN REDUCED ORBITAL CHARGES
-------------------------------
  0 O s       :     3.316977  s :     3.316977
      pz      :     1.663503  p :     4.361121
      px      :     1.269575
      py      :     1.428043
      dz2     :     0.012293  d :     0.118146
      dxz     :     0.011867
      dyz     :     0.018359
      dx2y2   :     0.043502
      dxy     :     0.032126
      f0      :     0.000854  f :     0.008844
      f+1     :     0.000405
      f-1     :     0.000928
      f+2     :     0.000179
      f-2     :     0.001405
      f+3     :     0.001447
      f-3     :     0.003627
  1 C s       :     2.831798  s :     2.831798
      pz      :     1.047539  p :     2.929584
      px      :     0.998835
      py      :     0.883210
      dz2     :     0.052125  d :     0.519764
      dxz     :     0.134181
      dyz     :     0.114314
      dx2y2   :     0.111368
      dxy     :     0.107776
      f0      :     0.011327  f :     0.083406
      f+1     :     0.006338
      f-1     :     0.006193
      f+2     :     0.005915
      f-2     :     0.012116
      f+3     :     0.018309
      f-3     :     0.023208
  2 C s       :     2.834406  s :     2.834406
      pz      :     1.062179  p :     2.939783
      px      :     1.003161
      py      :     0.874443
      dz2     :     0.055486  d :     0.439147
      dxz     :     0.119822
      dyz     :     0.080158
      dx2y2   :     0.099209
      dxy     :     0.084472
      f0      :     0.010569  f :     0.070944
      f+1     :     0.006003
      f-1     :     0.005762
      f+2     :     0.006571
      f-2     :     0.008056
      f+3     :     0.014988
      f-3     :     0.018994
  3 H s       :     0.827888  s :     0.827888
      pz      :     0.026432  p :     0.048775
      px      :     0.012952
      py      :     0.009391
  4 H s       :     0.826750  s :     0.826750
      pz      :     0.031725  p :     0.063624
      px      :     0.017985
      py      :     0.013914
  5 H s       :     0.827993  s :     0.827993
      pz      :     0.035115  p :     0.071421
      px      :     0.021862
      py      :     0.014444
  6 H s       :     0.819675  s :     0.819675
      pz      :     0.033165  p :     0.059955
      px      :     0.014336
      py      :     0.012454


                      *****************************
                      * MAYER POPULATION ANALYSIS *
                      *****************************

  NA   - Mulliken gross atomic population
  ZA   - Total nuclear charge
  QA   - Mulliken gross atomic charge
  VA   - Mayer's total valence
  BVA  - Mayer's bonded valence
  FA   - Mayer's free valence

  ATOM       NA         ZA         QA         VA         BVA        FA
  0 O      8.2836     8.0000    -0.2836     2.0214     2.0214    -0.0000
  1 C      6.0581     6.0000    -0.0581     3.9741     3.9741    -0.0000
  2 C      6.1097     6.0000    -0.1097     3.9431     3.9431    -0.0000
  3 H      0.9051     1.0000     0.0949     0.9631     0.9631    -0.0000
  4 H      0.8882     1.0000     0.1118     0.9509     0.9509    -0.0000
  5 H      0.8718     1.0000     0.1282     0.9616     0.9616    -0.0000
  6 H      0.8834     1.0000     0.1166     0.9671     0.9671    -0.0000

  Mayer bond orders larger than 0.100000
B(  0-O ,  1-C ) :   1.0318 B(  0-O ,  2-C ) :   0.9563 B(  1-C ,  2-C ) :   1.0493 
B(  1-C ,  3-H ) :   0.9434 B(  1-C ,  4-H ) :   0.9400 B(  2-C ,  5-H ) :   0.9571 
B(  2-C ,  6-H ) :   0.9638 

-------
TIMINGS
-------

Total SCF time: 0 days 0 hours 0 min 1 sec 

Total time                  ....       1.102 sec
Sum of individual times     ....       0.975 sec  ( 88.5%)

Fock matrix formation       ....       0.763 sec  ( 69.3%)
  Split-RI-J                ....       0.127 sec  ( 16.6% of F)
  Chain of spheres X        ....       0.568 sec  ( 74.4% of F)
  XC integration            ....       0.066 sec  (  8.7% of F)
    Basis function eval.    ....       0.018 sec  ( 27.6% of XC)
    Density eval.           ....       0.014 sec  ( 21.3% of XC)
    XC-Functional eval.     ....       0.004 sec  (  5.8% of XC)
    XC-Potential eval.      ....       0.023 sec  ( 34.1% of XC)
Diagonalization             ....       0.002 sec  (  0.2%)
Density matrix formation    ....       0.000 sec  (  0.0%)
Population analysis         ....       0.003 sec  (  0.3%)
Initial guess               ....       0.008 sec  (  0.7%)
Orbital Transformation      ....       0.000 sec  (  0.0%)
Orbital Orthonormalization  ....       0.001 sec  (  0.1%)
DIIS solution               ....       0.001 sec  (  0.1%)
SOSCF solution              ....       0.002 sec  (  0.2%)
Grid generation             ....       0.194 sec  ( 17.6%)

Maximum memory used throughout the entire SCF-calculation: 61.1 MB


           ************************************************************
           *        Program running with 8 parallel MPI-processes     *
           *              working on a common directory               *
           ************************************************************
------------------------------------------------------------------------------
                        ORCA TD-DFT/TDA CALCULATION
------------------------------------------------------------------------------

Input orbitals are from        ... ox_es1_A_orca0048.gbw
CI-vector output               ... ox_es1_A_orca0048.cis
Tamm-Dancoff approximation     ... operative
CIS-Integral strategy          ... AO-integrals
Integral handling              ... AO integral Direct
Max. core memory used          ... 3000 MB
Reference state                ... RHF
Generation of triplets         ... off
Follow IRoot                   ... off
Number of operators            ... 1
Orbital ranges used for CIS calculation:
 Operator 0:  Orbitals   3... 11  to  12...116
XAS localization array:
 Operator 0:  Orbitals  -1... -1

-------------------
XC-INTEGRATION GRID
-------------------

General Integration Accuracy     IntAcc      ... 3.467
Radial Grid Type                 RadialGrid  ... OptM3 with GC (2021)
Angular Grid (max. ang.)         AngularGrid ... 1 (Lebedev-50)
Angular grid pruning method      GridPruning ... 4 (adaptive)
Weight generation scheme         WeightScheme... Becke
Basis function cutoff            BFCut       ... 1.0000e-11
Integration weight cutoff        WCut        ... 1.0000e-14
Angular grids for H and He will be reduced by one unit
Partially contracted basis set               ... off
Rotationally invariant grid construction     ... off

Total number of grid points                  ...     4535
Total number of batches                      ...       75
Average number of points per batch           ...       60
Average number of grid points per atom       ...      648

---------------------
COSX-INTEGRATION GRID
---------------------

General Integration Accuracy     IntAcc      ... 3.067
Radial Grid Type                 RadialGrid  ... OptM3 with GC (2021)
Angular Grid (max. ang.)         AngularGrid ... 1 (Lebedev-50)
Angular grid pruning method      GridPruning ... 4 (adaptive)
Weight generation scheme         WeightScheme... Becke
Basis function cutoff            BFCut       ... 1.0000e-11
Integration weight cutoff        WCut        ... 1.0000e-14
Angular grids for H and He will be reduced by one unit
Partially contracted basis set               ... on
Rotationally invariant grid construction     ... off

Total number of grid points                  ...     2087
Total number of batches                      ...       37
Average number of points per batch           ...       56
Average number of grid points per atom       ...      298

---------------
TD-DFT XC SETUP
---------------

DFT calculation                         ... on
Name of the grid file                   ... ox_es1_A_orca0048.grid_cis.tmp
Exchange functional (TD-DFT)            ... PBE
   PBE kappa parameter  XKappa (TD-DFT) ...  0.804000
   PBE mue parameter   XMuePBE (TD-DFT) ...  0.219520
Correlation functional (TD-DFT)         ... PBE
   PBE beta parameter CBetaPBE (TD-DFT) ...  0.066725
 LDA part of GGA corr.  LDAOpt (TD-DFT) ... PW91-LDA
Hybrid DFT                              ... on
   Exchange mixing (TD-DFT)             ...  0.250
   GGA exch. scaling (TD-DFT)           ...  0.750
   GGA corr. scaling (TD-DFT)           ...  1.000

Building densities             ... done
Calculating rho(r) on the grid ... done
Building xc-kernel on the grid ... done
                    *** TD-DFT CALCULATION INITIALIZED ***

------------------------
DAVIDSON-DIAGONALIZATION
------------------------

Dimension of the eigenvalue problem            ...    945
Number of roots to be determined               ...      1
Maximum size of the expansion space            ...     10
Maximum number of iterations                   ...    100
Convergence tolerance for the residual         ...    2.500e-07
Convergence tolerance for the energies         ...    2.500e-07
Orthogonality tolerance                        ...    1.000e-14
Level Shift                                    ...    0.000e+00
Constructing the preconditioner                ... o.k.
Building the initial guess                     ... o.k.
Number of trial vectors determined             ...     10


                       ****Iteration    0****

   Memory handling for direct AO based CIS:
   Memory per vector needed      ...     1 MB
   Memory needed                 ...     1 MB
   Memory available              ...  3000 MB
   Number of vectors per batch   ...  3000
   Number of batches             ...     1
   Time for densities:            0.001
   Time for RI-J (Direct):        0.017
   Time for K (COSX):             0.063
   Time for XC-Integration:       0.018
   Time for Sigma-Completion:     0.000
   Size of expansion space: 3
   Lowest Energy          :     0.302653453423
   Maximum Energy change  :     0.302653453423 (vector 0)
   Maximum residual norm  :     0.002168127671

                       ****Iteration    1****
   Time for densities:            0.000
   Time for RI-J (Direct):        0.014
   Time for K (COSX):             0.057
   Time for XC-Integration:       0.008
   Time for Sigma-Completion:     0.000
   Size of expansion space: 4
   Lowest Energy          :     0.298788429628
   Maximum Energy change  :     0.003865023795 (vector 0)
   Maximum residual norm  :     0.000758888434

                       ****Iteration    2****
   Time for densities:            0.000
   Time for RI-J (Direct):        0.014
   Time for K (COSX):             0.058
   Time for XC-Integration:       0.008
   Time for Sigma-Completion:     0.000
   Size of expansion space: 5
   Lowest Energy          :     0.296298988898
   Maximum Energy change  :     0.002489440730 (vector 0)
   Maximum residual norm  :     0.000187474124

                       ****Iteration    3****
   Time for densities:            0.000
   Time for RI-J (Direct):        0.014
   Time for K (COSX):             0.059
   Time for XC-Integration:       0.008
   Time for Sigma-Completion:     0.000
   Size of expansion space: 6
   Lowest Energy          :     0.296020743872
   Maximum Energy change  :     0.000278245026 (vector 0)
   Maximum residual norm  :     0.000034313637

                       ****Iteration    4****
   Time for densities:            0.000
   Time for RI-J (Direct):        0.015
   Time for K (COSX):             0.060
   Time for XC-Integration:       0.008
   Time for Sigma-Completion:     0.000
   Size of expansion space: 7
   Lowest Energy          :     0.295982574498
   Maximum Energy change  :     0.000038169374 (vector 0)
   Maximum residual norm  :     0.000003452042

                       ****Iteration    5****
   Time for densities:            0.000
   Time for RI-J (Direct):        0.014
   Time for K (COSX):             0.059
   Time for XC-Integration:       0.008
   Time for Sigma-Completion:     0.000
   Size of expansion space: 8
   Lowest Energy          :     0.295978863377
   Maximum Energy change  :     0.000003711121 (vector 0)
   Maximum residual norm  :     0.000000385978

                       ****Iteration    6****
   Time for densities:            0.000
   Time for RI-J (Direct):        0.014
   Time for K (COSX):             0.058
   Time for XC-Integration:       0.008
   Time for Sigma-Completion:     0.000
   Size of expansion space: 9
   Lowest Energy          :     0.295978038647
   Maximum Energy change  :     0.000000824729 (vector 0)
   Maximum residual norm  :     0.000000181723

      *** CONVERGENCE OF RESIDUAL NORM REACHED ***

Storing the converged CI vectors               ... ox_es1_A_orca0048.cis1

                 *** DAVIDSON DONE ***

Total time for solving the CIS problem:     0.588sec

------------------------------------
TD-DFT/TDA EXCITED STATES (SINGLETS)
------------------------------------

the weight of the individual excitations are printed if larger than 1.0e-02

STATE  1:  E=   0.295978 au      8.054 eV    64959.7 cm**-1 <S**2> =   0.000000
    10a ->  13a  :     0.016646 (c=  0.12901970)
    11a ->  12a  :     0.013131 (c=  0.11458887)
    11a ->  13a  :     0.888783 (c= -0.94275283)
    11a ->  15a  :     0.026811 (c=  0.16374068)
    11a ->  16a  :     0.045290 (c= -0.21281484)


-----------------------------
TD-DFT/TDA-EXCITATION SPECTRA
-----------------------------

Center of mass = (  0.0906, -0.0076,  0.0138)
Calculating the Dipole integrals                  ... done
Transforming integrals                            ... done
Calculating the Linear Momentum integrals         ... done
Transforming integrals                            ... done
Calculating angular momentum integrals            ... done
Transforming integrals                            ... done

-----------------------------------------------------------------------------
         ABSORPTION SPECTRUM VIA TRANSITION ELECTRIC DIPOLE MOMENTS
-----------------------------------------------------------------------------
State   Energy    Wavelength  fosc         T2        TX        TY        TZ  
        (cm-1)      (nm)                 (au**2)    (au)      (au)      (au) 
-----------------------------------------------------------------------------
   1   64959.7    153.9   0.000453710   0.00230   0.00518  -0.02286   0.04183

-----------------------------------------------------------------------------
         ABSORPTION SPECTRUM VIA TRANSITION VELOCITY DIPOLE MOMENTS
-----------------------------------------------------------------------------
State   Energy    Wavelength   fosc        P2         PX        PY        PZ  
        (cm-1)      (nm)                 (au**2)     (au)      (au)      (au) 
-----------------------------------------------------------------------------
   1   64959.7    153.9   0.001743345   0.00077   0.00208   0.00026  -0.02774

-------------------------------------------------------------------
                             CD SPECTRUM
-------------------------------------------------------------------
State  Energy     Wavelength     R         MX        MY        MZ   
       (cm-1)       (nm)     (1e40*cgs)   (au)      (au)      (au)  
-------------------------------------------------------------------
   1   64959.7    153.9      2.77840   0.01820  -0.22366   0.01641

-------------------------------------------------------------------
         CD SPECTRUM VIA TRANSITION VELOCITY DIPOLE MOMENTS        
-------------------------------------------------------------------
State  Energy     Wavelength     R         MX        MY        MZ   
       (cm-1)       (nm)     (1e40*cgs)   (au)      (au)      (au)  
-------------------------------------------------------------------
   1   64959.7    153.9     -0.75647   0.01820  -0.22366   0.01641

Total run time:        0.878 sec

           *** ORCA-CIS/TD-DFT FINISHED WITHOUT ERROR ***

Maximum memory used throughout the entire CIS-calculation: 49.4 MB

-----------------------
CIS/TD-DFT TOTAL ENERGY
-----------------------

    E(SCF)  =   -153.656247385 Eh
    DE(CIS) =      0.295978039 Eh (Root  1)
    ----------------------------- ---------
    E(tot)  =   -153.360269347 Eh



-------------------------------------------------------------------------------
                          DFT DISPERSION CORRECTION                            
                                                                               
                              DFTD3 V3.1  Rev 1                                
                          USING Becke-Johnson damping                          
-------------------------------------------------------------------------------
The PBE0 functional is recognized
Active option DFTDOPT                   ...         4   

molecular C6(AA) [au] = 351.072522 


            DFT-D V3
 parameters
 s6 scaling factor         :     1.0000 
 a1 scaling factor         :     0.4145 
 s8 scaling factor         :     1.2177 
 a2 scaling factor         :     4.8593 
 ad hoc parameters k1-k3   :    16.0000     1.3333    -4.0000 

 Edisp/kcal,au: -1.504822482905  -0.002398087016 
 E6   /kcal   :  -0.986241090 
 E8   /kcal   :  -0.518581393 
 % E8         :  34.461300154 

-------------------------   ----------------
Dispersion correction           -0.002398087
-------------------------   ----------------


-------------------------   --------------------
FINAL SINGLE POINT ENERGY      -153.362667433554
-------------------------   --------------------



           ************************************************************
           *        Program running with 8 parallel MPI-processes     *
           *              working on a common directory               *
           ************************************************************
------------------------------------------------------------------------------
                         ORCA SCF GRADIENT CALCULATION
------------------------------------------------------------------------------


------------------------
TD-DFT GRADIENT XC SETUP
------------------------

Building densities                     ... done
Calculating rho(r) on the grid         ... done
Building xc-kernel on the grid         ... done
Building xc 3rd derivative on the grid      ... done
                *** TD-DFT GRADIENT CALCULATION INITIALIZED ***

-------------------
TD-DFT/TDA GRADIENT
-------------------

Reference wavefunction             ... RHF
State of interest                  ... 1
Basis dimension                    ... 117
DFT-XC contribution needed         ... YES
RI-approximation                   ... ON
CIS-vectors being read from        ... ox_es1_A_orca0048.cis

 => Number of Vectors found: 1
 => Orbital Window: 3...11 -> 12...116

Reading the CIS file                     ... done
Norm of the CI vector                    ... 1.000000000
Making the CIS (pseudo)densities         ... done
Making operators G(D) and Q(T)           ... done
Transforming the Fock operators          ... done
Making the frozen-core relaxed density   ... done
Constructing the G(H) operator           ... done
Transforming the G(H) operator           ... done
Calculating the CIS Lagrangian           ... done
Solving the Z-vector equations           ... done
Finalizing the relaxed density           ... done
Storing the relaxed density              ... done
Constructing the G(Z) operator           ... done
Transforming the G(Z) operator           ... done
Making the W-matrix                      ... done
Finalizing the W-matrix                  ... done
Transforming the W-matrix                ... done
Nuclear repulsion gradient               ... done
One-Electron gradient                    ... done
Dispersion correction                    ... done
Prescreening matrices                    ... done
COSX-gradient                            ... done
Coulomb gradient (RI)                    ... done
Exchange-Correlation gradient            ... done

                 ---------------------------
                 EXCITED STATE GRADIENT DONE
                 ---------------------------

------------------
CARTESIAN GRADIENT
------------------

   1   O   :    0.003013746   -0.075287309    0.000827105
   2   C   :    0.097599896    0.075072835   -0.033954278
   3   C   :   -0.058620369    0.058835802   -0.048277851
   4   H   :   -0.014383688   -0.024445149    0.035368021
   5   H   :    0.005739735   -0.017163176    0.003501012
   6   H   :   -0.023737953   -0.007538397    0.029991597
   7   H   :   -0.009591510   -0.009507871    0.012544335

Difference to translation invariance:
           :    0.0000198573   -0.0000332634   -0.0000000591

Difference to rotation invariance:
           :   -0.0001959298   -0.0001169679    0.0001160206

Norm of the cartesian gradient     ...    0.1883506274
RMS gradient                       ...    0.0411014765
MAX gradient                       ...    0.0975998960

------------------------------------------------------------------------------
                  RELAXED CIS/TDA DENSITY POPULATION ANALYSIS
                                   IROOT 1
------------------------------------------------------------------------------
------------------------------------------------------------------------------
                           ORCA POPULATION ANALYSIS
------------------------------------------------------------------------------
Input electron density              ... ox_es1_A_orca0048.cisp
BaseName (.gbw .S,...)              ... ox_es1_A_orca0048

                    ********************************
                    * MULLIKEN POPULATION ANALYSIS *
                    ********************************

-----------------------
MULLIKEN ATOMIC CHARGES
-----------------------
   0 O :    0.079708
   1 C :   -0.255884
   2 C :   -0.371132
   3 H :    0.152383
   4 H :    0.156095
   5 H :    0.132223
   6 H :    0.106607
Sum of atomic charges:   -0.0000000

--------------------------------
MULLIKEN REDUCED ORBITAL CHARGES
--------------------------------
  0 O s       :     3.843120  s :     3.843120
      pz      :     1.183960  p :     4.024708
      px      :     1.441131
      py      :     1.399618
      dz2     :     0.005343  d :     0.050395
      dxz     :     0.004404
      dyz     :     0.008959
      dx2y2   :     0.015460
      dxy     :     0.016230
      f0      :     0.000195  f :     0.002068
      f+1     :     0.000040
      f-1     :     0.000262
      f+2     :     0.000100
      f-2     :     0.000313
      f+3     :     0.000383
      f-3     :     0.000775
  1 C s       :     3.074371  s :     3.074371
      pz      :     1.017151  p :     3.091754
      px      :     1.202109
      py      :     0.872495
      dz2     :     0.002331  d :     0.078047
      dxz     :     0.016813
      dyz     :     0.009522
      dx2y2   :     0.026433
      dxy     :     0.022948
      f0      :     0.001085  f :     0.011712
      f+1     :     0.001460
      f-1     :     0.000723
      f+2     :     0.000686
      f-2     :     0.002007
      f+3     :     0.002895
      f-3     :     0.002855
  2 C s       :     3.121235  s :     3.121235
      pz      :     1.067470  p :     3.159720
      px      :     1.040990
      py      :     1.051260
      dz2     :     0.010378  d :     0.079717
      dxz     :     0.014486
      dyz     :     0.007120
      dx2y2   :     0.026293
      dxy     :     0.021440
      f0      :     0.001180  f :     0.010460
      f+1     :     0.001505
      f-1     :     0.000602
      f+2     :     0.000754
      f-2     :     0.001296
      f+3     :     0.002692
      f-3     :     0.002431
  3 H s       :     0.825342  s :     0.825342
      pz      :     0.009127  p :     0.022275
      px      :     0.008676
      py      :     0.004472
  4 H s       :     0.817642  s :     0.817642
      pz      :     0.010086  p :     0.026263
      px      :     0.010205
      py      :     0.005972
  5 H s       :     0.838844  s :     0.838844
      pz      :     0.010657  p :     0.028934
      px      :     0.010270
      py      :     0.008007
  6 H s       :     0.867760  s :     0.867760
      pz      :     0.011918  p :     0.025633
      px      :     0.007436
      py      :     0.006278


                     *******************************
                     * LOEWDIN POPULATION ANALYSIS *
                     *******************************

----------------------
LOEWDIN ATOMIC CHARGES
----------------------
   0 O :    0.486395
   1 C :   -0.491714
   2 C :   -0.528240
   3 H :    0.168962
   4 H :    0.141850
   5 H :    0.101474
   6 H :    0.121273

-------------------------------
LOEWDIN REDUCED ORBITAL CHARGES
-------------------------------
  0 O s       :     3.337957  s :     3.337957
      pz      :     1.109385  p :     4.045931
      px      :     1.447379
      py      :     1.489168
      dz2     :     0.011028  d :     0.121301
      dxz     :     0.013548
      dyz     :     0.017793
      dx2y2   :     0.048111
      dxy     :     0.030821
      f0      :     0.000806  f :     0.008415
      f+1     :     0.000227
      f-1     :     0.000686
      f+2     :     0.000176
      f-2     :     0.001487
      f+3     :     0.001326
      f-3     :     0.003707
  1 C s       :     2.833743  s :     2.833743
      pz      :     1.004323  p :     3.067999
      px      :     1.108757
      py      :     0.954919
      dz2     :     0.057996  d :     0.507572
      dxz     :     0.102188
      dyz     :     0.049439
      dx2y2   :     0.168934
      dxy     :     0.129014
      f0      :     0.008228  f :     0.082401
      f+1     :     0.007316
      f-1     :     0.006653
      f+2     :     0.004514
      f-2     :     0.009986
      f+3     :     0.021299
      f-3     :     0.024405
  2 C s       :     2.844864  s :     2.844864
      pz      :     1.049166  p :     3.104564
      px      :     1.037069
      py      :     1.018330
      dz2     :     0.059179  d :     0.504542
      dxz     :     0.099622
      dyz     :     0.037006
      dx2y2   :     0.191978
      dxy     :     0.116757
      f0      :     0.008451  f :     0.074269
      f+1     :     0.006970
      f-1     :     0.006626
      f+2     :     0.004270
      f-2     :     0.005839
      f+3     :     0.022891
      f-3     :     0.019222
  3 H s       :     0.771912  s :     0.771912
      pz      :     0.025928  p :     0.059126
      px      :     0.020622
      py      :     0.012576
  4 H s       :     0.783358  s :     0.783358
      pz      :     0.031224  p :     0.074792
      px      :     0.025135
      py      :     0.018433
  5 H s       :     0.812081  s :     0.812081
      pz      :     0.035073  p :     0.086444
      px      :     0.028289
      py      :     0.023082
  6 H s       :     0.807282  s :     0.807282
      pz      :     0.035016  p :     0.071445
      px      :     0.019243
      py      :     0.017185


                      *****************************
                      * MAYER POPULATION ANALYSIS *
                      *****************************

  NA   - Mulliken gross atomic population
  ZA   - Total nuclear charge
  QA   - Mulliken gross atomic charge
  VA   - Mayer's total valence
  BVA  - Mayer's bonded valence
  FA   - Mayer's free valence

  ATOM       NA         ZA         QA         VA         BVA        FA
  0 O      7.9203     8.0000     0.0797     2.2320     1.5697     0.6623
  1 C      6.2559     6.0000    -0.2559     3.2721     2.9131     0.3590
  2 C      6.3711     6.0000    -0.3711     3.3192     2.8050     0.5142
  3 H      0.8476     1.0000     0.1524     1.0272     0.9155     0.1117
  4 H      0.8439     1.0000     0.1561     1.0409     0.9482     0.0927
  5 H      0.8678     1.0000     0.1322     1.0535     0.9787     0.0748
  6 H      0.8934     1.0000     0.1066     1.0614     0.9721     0.0893

  Mayer bond orders larger than 0.100000
B(  0-O ,  1-C ) :   0.8642 B(  0-O ,  2-C ) :   0.7027 B(  1-C ,  2-C ) :   0.2035 
B(  1-C ,  3-H ) :   0.8659 B(  1-C ,  4-H ) :   0.9084 B(  2-C ,  5-H ) :   0.9313 
B(  2-C ,  6-H ) :   0.9201 


-------
TIMINGS
-------

Total TD-DFT gradient time         ...        5.827 sec

Fock matrix formation       ....       0.987 sec  ( 16.9%)
  Coulomb formation         ....       0.796 sec  ( 80.7% of F)
  RI-J                      ....       0.324 sec  ( 32.9% of F)
  Chain of spheres X        ....       0.472 sec  ( 47.8% of F)
  XC integration            ....       0.190 sec  ( 19.3% of F)
Z-vector equation           ....       1.558 sec  ( 26.7%)
One electron gradient       ....       0.037 sec  (  0.6%)
Prescreening matrices       ....       0.175 sec  (  3.0%)
RI-J Coulomb gradient       ....       0.287 sec  (  4.9%)
COSX gradient               ....       0.414 sec  (  7.1%)
XC gradient                 ....       2.016 sec  ( 34.6%)

Maximum memory used throughout the entire SCFGRAD-calculation: 130.3 MB

                            ***************************************
                            *     ORCA property calculations      *
                            ***************************************

                                    ---------------------
                                    Active property flags
                                    ---------------------
   (+) Dipole Moment


------------------------------------------------------------------------------
                       ORCA ELECTRIC PROPERTIES CALCULATION
------------------------------------------------------------------------------

Dipole Moment Calculation                       ... on
Quadrupole Moment Calculation                   ... off
Polarizability Calculation                      ... off
GBWName                                         ... ox_es1_A_orca0048.gbw
Electron density                                ... ox_es1_A_orca0048.scfp
The origin for moment calculation is the CENTER OF MASS  = ( 0.090625, -0.007624  0.013805)

-------------
DIPOLE MOMENT
-------------
                                X             Y             Z
Electronic contribution:      0.11583       1.85151      -0.13457
Nuclear contribution   :     -0.07580      -2.43695       0.04145
                        -----------------------------------------
Total Dipole Moment    :      0.04003      -0.58544      -0.09312
                        -----------------------------------------
Magnitude (a.u.)       :      0.59415
Magnitude (Debye)      :      1.51021



--------------------
Rotational spectrum 
--------------------
 
Rotational constants in cm-1:     0.950571     0.690964     0.479195 
Rotational constants in MHz : 28497.396025 20714.577905 14365.898921 

 Dipole components along the rotational axes: 
x,y,z [a.u.] :     0.092032    -0.585664    -0.039285 
x,y,z [Debye]:     0.233926    -1.488640    -0.099855 

 

                        *** CIS RELAXED DENSITY ***

------------------------------------------------------------------------------
                       ORCA ELECTRIC PROPERTIES CALCULATION
------------------------------------------------------------------------------

Dipole Moment Calculation                       ... on
Quadrupole Moment Calculation                   ... off
Polarizability Calculation                      ... off
GBWName                                         ... ox_es1_A_orca0048.gbw
Electron density                                ... ox_es1_A_orca0048.cisp
The origin for moment calculation is the CENTER OF MASS  = ( 0.090625, -0.007624  0.013805)

-------------
DIPOLE MOMENT
-------------
                                X             Y             Z
Electronic contribution:     -0.22999       2.21550      -0.06319
Nuclear contribution   :     -0.07580      -2.43695       0.04145
                        -----------------------------------------
Total Dipole Moment    :     -0.30579      -0.22145      -0.02173
                        -----------------------------------------
Magnitude (a.u.)       :      0.37818
Magnitude (Debye)      :      0.96126



--------------------
Rotational spectrum 
--------------------
 
Rotational constants in cm-1:     0.950571     0.690964     0.479195 
Rotational constants in MHz : 28497.396025 20714.577905 14365.898921 

 Dipole components along the rotational axes: 
x,y,z [a.u.] :    -0.285001    -0.248579    -0.001970 
x,y,z [Debye]:    -0.724415    -0.631838    -0.005009 

 

Timings for individual modules:

Sum of individual times         ...        8.868 sec (=   0.148 min)
GTO integral calculation        ...        0.355 sec (=   0.006 min)   4.0 %
SCF iterations                  ...        1.296 sec (=   0.022 min)  14.6 %
CIS module                      ...        1.134 sec (=   0.019 min)  12.8 %
SCF Gradient evaluation         ...        6.083 sec (=   0.101 min)  68.6 %
                             ****ORCA TERMINATED NORMALLY****
TOTAL RUN TIME: 0 days 0 hours 0 minutes 9 seconds 294 msec
