
                                 *****************
                                 * O   R   C   A *
                                 *****************

                                            #,                                       
                                            ###                                      
                                            ####                                     
                                            #####                                    
                                            ######                                   
                                           ########,                                 
                                     ,,################,,,,,                         
                               ,,#################################,,                 
                          ,,##########################################,,             
                       ,#########################################, ''#####,          
                    ,#############################################,,   '####,        
                  ,##################################################,,,,####,       
                ,###########''''           ''''###############################       
              ,#####''   ,,,,##########,,,,          '''####'''          '####       
            ,##' ,,,,###########################,,,                        '##       
           ' ,,###''''                  '''############,,,                           
         ,,##''                                '''############,,,,        ,,,,,,###''
      ,#''                                            '''#######################'''  
     '                                                          ''''####''''         
             ,#######,   #######,   ,#######,      ##                                
            ,#'     '#,  ##    ##  ,#'     '#,    #''#        ######   ,####,        
            ##       ##  ##   ,#'  ##            #'  '#       #        #'  '#        
            ##       ##  #######   ##           ,######,      #####,   #    #        
            '#,     ,#'  ##    ##  '#,     ,#' ,#      #,         ##   #,  ,#        
             '#######'   ##     ##  '#######'  #'      '#     #####' # '####'        



                  #######################################################
                  #                        -***-                        #
                  #          Department of theory and spectroscopy      #
                  #    Directorship and core code : Frank Neese         #
                  #        Max Planck Institute fuer Kohlenforschung    #
                  #                Kaiser Wilhelm Platz 1               #
                  #                 D-45470 Muelheim/Ruhr               #
                  #                      Germany                        #
                  #                                                     #
                  #                  All rights reserved                #
                  #                        -***-                        #
                  #######################################################


                         Program Version 5.0.2 -  RELEASE  -


 With contributions from (in alphabetic order):
   Daniel Aravena         : Magnetic Suceptibility
   Michael Atanasov       : Ab Initio Ligand Field Theory (pilot matlab implementation)
   Alexander A. Auer      : GIAO ZORA, VPT2 properties, NMR spectrum
   Ute Becker             : Parallelization
   Giovanni Bistoni       : ED, misc. LED, open-shell LED, HFLD
   Martin Brehm           : Molecular dynamics
   Dmytro Bykov           : SCF Hessian
   Vijay G. Chilkuri      : MRCI spin determinant printing, contributions to CSF-ICE
   Dipayan Datta          : RHF DLPNO-CCSD density
   Achintya Kumar Dutta   : EOM-CC, STEOM-CC
   Dmitry Ganyushin       : Spin-Orbit,Spin-Spin,Magnetic field MRCI
   Miquel Garcia          : C-PCM and meta-GGA Hessian, CC/C-PCM, Gaussian charge scheme
   Yang Guo               : DLPNO-NEVPT2, F12-NEVPT2, CIM, IAO-localization
   Andreas Hansen         : Spin unrestricted coupled pair/coupled cluster methods
   Benjamin Helmich-Paris : MC-RPA, TRAH-SCF, COSX integrals
   Lee Huntington         : MR-EOM, pCC
   Robert Izsak           : Overlap fitted RIJCOSX, COSX-SCS-MP3, EOM
   Marcus Kettner         : VPT2
   Christian Kollmar      : KDIIS, OOCD, Brueckner-CCSD(T), CCSD density, CASPT2, CASPT2-K
   Simone Kossmann        : Meta GGA functionals, TD-DFT gradient, OOMP2, MP2 Hessian
   Martin Krupicka        : Initial AUTO-CI
   Lucas Lang             : DCDCAS
   Marvin Lechner         : AUTO-CI (C++ implementation), FIC-MRCC
   Dagmar Lenk            : GEPOL surface, SMD
   Dimitrios Liakos       : Extrapolation schemes; Compound Job, initial MDCI parallelization
   Dimitrios Manganas     : Further ROCIS development; embedding schemes
   Dimitrios Pantazis     : SARC Basis sets
   Anastasios Papadopoulos: AUTO-CI, single reference methods and gradients
   Taras Petrenko         : DFT Hessian,TD-DFT gradient, ASA, ECA, R-Raman, ABS, FL, XAS/XES, NRVS
   Peter Pinski           : DLPNO-MP2, DLPNO-MP2 Gradient
   Christoph Reimann      : Effective Core Potentials
   Marius Retegan         : Local ZFS, SOC
   Christoph Riplinger    : Optimizer, TS searches, QM/MM, DLPNO-CCSD(T), (RO)-DLPNO pert. Triples
   Tobias Risthaus        : Range-separated hybrids, TD-DFT gradient, RPA, STAB
   Michael Roemelt        : Original ROCIS implementation
   Masaaki Saitow         : Open-shell DLPNO-CCSD energy and density
   Barbara Sandhoefer     : DKH picture change effects
   Avijit Sen             : IP-ROCIS
   Kantharuban Sivalingam : CASSCF convergence, NEVPT2, FIC-MRCI
   Bernardo de Souza      : ESD, SOC TD-DFT
   Georgi Stoychev        : AutoAux, RI-MP2 NMR, DLPNO-MP2 response
   Willem Van den Heuvel  : Paramagnetic NMR
   Boris Wezisla          : Elementary symmetry handling
   Frank Wennmohs         : Technical directorship


 We gratefully acknowledge several colleagues who have allowed us to
 interface, adapt or use parts of their codes:
   Stefan Grimme, W. Hujo, H. Kruse, P. Pracht,  : VdW corrections, initial TS optimization,
                  C. Bannwarth, S. Ehlert          DFT functionals, gCP, sTDA/sTD-DF
   Ed Valeev, F. Pavosevic, A. Kumar             : LibInt (2-el integral package), F12 methods
   Garnet Chan, S. Sharma, J. Yang, R. Olivares  : DMRG
   Ulf Ekstrom                                   : XCFun DFT Library
   Mihaly Kallay                                 : mrcc  (arbitrary order and MRCC methods)
   Jiri Pittner, Ondrej Demel                    : Mk-CCSD
   Frank Weinhold                                : gennbo (NPA and NBO analysis)
   Christopher J. Cramer and Donald G. Truhlar   : smd solvation model
   Lars Goerigk                                  : TD-DFT with DH, B97 family of functionals
   V. Asgeirsson, H. Jonsson                     : NEB implementation
   FAccTs GmbH                                   : IRC, NEB, NEB-TS, DLPNO-Multilevel, CI-OPT
                                                   MM, QMMM, 2- and 3-layer-ONIOM, Crystal-QMMM,
                                                   LR-CPCM, SF, NACMEs, symmetry and pop. for TD-DFT,
                                                   nearIR, NL-DFT gradient (VV10), updates on ESD,
                                                   ML-optimized integration grids
   S Lehtola, MJT Oliveira, MAL Marques          : LibXC Library
   Liviu Ungur et al                             : ANISO software


 Your calculation uses the libint2 library for the computation of 2-el integrals
 For citations please refer to: http://libint.valeyev.net

 Your ORCA version has been built with support for libXC version: 5.1.0
 For citations please refer to: https://tddft.org/programs/libxc/

 This ORCA versions uses:
   CBLAS   interface :  Fast vector & matrix operations
   LAPACKE interface :  Fast linear algebra routines
   SCALAPACK package :  Parallel linear algebra routines
   Shared memory     :  Shared parallel matrices
   BLAS/LAPACK       :  OpenBLAS 0.3.15  USE64BITINT DYNAMIC_ARCH NO_AFFINITY SkylakeX SINGLE_THREADED
        Core in use  :  SkylakeX
   Copyright (c) 2011-2014, The OpenBLAS Project


Your calculation utilizes the atom-pairwise dispersion correction
with the Becke-Johnson damping scheme (D3BJ)
Cite in your paper:
S.Grimme, S.Ehrlich, L.Goerigk, J Comput Chem, (2011), 32, 1456–1465 
S.Grimme, J.Antony, S.Ehrlich and H.Krieg, J.Chem.Phys., 132, (2010), 154104 
   

================================================================================

----- Orbital basis set information -----
Your calculation utilizes the basis: def2-TZVP
   F. Weigend and R. Ahlrichs, Phys. Chem. Chem. Phys. 7, 3297 (2005).

----- AuxJ basis set information -----
Your calculation utilizes the auxiliary basis: def2/J
   F. Weigend, Phys. Chem. Chem. Phys. 8, 1057 (2006).

================================================================================
                                        WARNINGS
                       Please study these warnings very carefully!
================================================================================

INFO   : Checking CIS options ...

WARNING: CIS/ROCIS methods need fully converged wavefunctions
  ===> : Setting SCFConvForced true
         You can overwrite this default with %scf ConvForced false 


INFO   : the flag for use of the SHARK integral package has been found!

================================================================================
                                       INPUT FILE
================================================================================
NAME = ox_es1_C_orca0002.inp
|  1> ! engrad PBE0 D3BJ def2-TZVP  
|  2> %pal nprocs 8 end
|  3> %maxcore 3000
|  4> 
|  5> %tddft
|  6>   nroots 1
|  7>   tda true
|  8>   Iroot 1
|  9>   end 
| 10> *xyz 0 1 
| 11> O   -0.4356163810124476 0.849694283334698 0.017300420803394386
| 12> C   -0.7545762436479673 -0.5104050400686629 -0.030077326122229575
| 13> C   0.7891592974976144 -0.41851218958793146 -0.057612307452015704
| 14> H   -1.3196353357346975 -0.6966755530842329 0.8956947239536921
| 15> H   -1.2477461867721984 -0.6781471076345712 -0.8701794819648581
| 16> H   1.2463479854845791 -0.7529421770523438 -0.9764088836086361
| 17> H   1.3739286147488756 -0.7441863345273187 0.811854053148198
| 18> *
| 19> 
| 20>                          ****END OF INPUT****
================================================================================

                     *******************************
                     * Energy+Gradient Calculation *
                     *******************************

---------------------------------
CARTESIAN COORDINATES (ANGSTROEM)
---------------------------------
  O     -0.435616    0.849694    0.017300
  C     -0.754576   -0.510405   -0.030077
  C      0.789159   -0.418512   -0.057612
  H     -1.319635   -0.696676    0.895695
  H     -1.247746   -0.678147   -0.870179
  H      1.246348   -0.752942   -0.976409
  H      1.373929   -0.744186    0.811854

----------------------------
CARTESIAN COORDINATES (A.U.)
----------------------------
  NO LB      ZA    FRAG     MASS         X           Y           Z
   0 O     8.0000    0    15.999   -0.823196    1.605689    0.032693
   1 C     6.0000    0    12.011   -1.425942   -0.964526   -0.056838
   2 C     6.0000    0    12.011    1.491295   -0.790873   -0.108871
   3 H     1.0000    0     1.008   -2.493749   -1.316526    1.692618
   4 H     1.0000    0     1.008   -2.357899   -1.281512   -1.644401
   5 H     1.0000    0     1.008    2.355256   -1.422855   -1.845145
   6 H     1.0000    0     1.008    2.596349   -1.406308    1.534182

--------------------------------
INTERNAL COORDINATES (ANGSTROEM)
--------------------------------
 O      0   0   0     0.000000000000     0.00000000     0.00000000
 C      1   0   0     1.397801922448     0.00000000     0.00000000
 C      2   1   0     1.546713254667    73.44394694     0.00000000
 H      2   1   3     1.100473702671   104.67592900   120.12031842
 H      2   1   3     0.988496649607   107.92474771   243.62193931
 H      3   2   1     1.079375773906   114.80290601   246.05003892
 H      3   2   1     1.097265034208   120.01107661   109.92445820

---------------------------
INTERNAL COORDINATES (A.U.)
---------------------------
 O      0   0   0     0.000000000000     0.00000000     0.00000000
 C      1   0   0     2.641462822895     0.00000000     0.00000000
 C      2   1   0     2.922864459026    73.44394694     0.00000000
 H      2   1   3     2.079593915631   104.67592900   120.12031842
 H      2   1   3     1.867987952056   107.92474771   243.62193931
 H      3   2   1     2.039724608272   114.80290601   246.05003892
 H      3   2   1     2.073530410981   120.01107661   109.92445820

---------------------
BASIS SET INFORMATION
---------------------
There are 3 groups of distinct atoms

 Group   1 Type O   : 11s6p2d1f contracted to 5s3p2d1f pattern {62111/411/11/1}
 Group   2 Type C   : 11s6p2d1f contracted to 5s3p2d1f pattern {62111/411/11/1}
 Group   3 Type H   : 5s1p contracted to 3s1p pattern {311/1}

Atom   0O    basis set group =>   1
Atom   1C    basis set group =>   2
Atom   2C    basis set group =>   2
Atom   3H    basis set group =>   3
Atom   4H    basis set group =>   3
Atom   5H    basis set group =>   3
Atom   6H    basis set group =>   3
---------------------------------
AUXILIARY/J BASIS SET INFORMATION
---------------------------------
There are 3 groups of distinct atoms

 Group   1 Type O   : 12s5p4d2f1g contracted to 6s4p3d1f1g pattern {711111/2111/211/2/1}
 Group   2 Type C   : 12s5p4d2f1g contracted to 6s4p3d1f1g pattern {711111/2111/211/2/1}
 Group   3 Type H   : 5s2p1d contracted to 3s1p1d pattern {311/2/1}

Atom   0O    basis set group =>   1
Atom   1C    basis set group =>   2
Atom   2C    basis set group =>   2
Atom   3H    basis set group =>   3
Atom   4H    basis set group =>   3
Atom   5H    basis set group =>   3
Atom   6H    basis set group =>   3

Checking for AutoStart:
The File: ox_es1_C_orca0002.gbw exists
Trying to determine its content:
     ... Fine, the file contains calculation information
     ... Fine, the calculation information was read
     ... Fine, the file contains a basis set
     ... Fine, the basis set was read
     ... Fine, the file contains a geometry
     ... Fine, the geometry was read
     ... Fine, the file contains a set of orbitals
     ... Fine, the orbitals can be read
     => possible old guess file was deleted
     => GBW file was renamed to GES file
     => GES file is set as startup file
     => Guess is set to MORead
     ... now leaving AutoStart



           ************************************************************
           *        Program running with 8 parallel MPI-processes     *
           *              working on a common directory               *
           ************************************************************
------------------------------------------------------------------------------
                           ORCA GTO INTEGRAL CALCULATION
                           -- RI-GTO INTEGRALS CHOSEN --
------------------------------------------------------------------------------
------------------------------------------------------------------------------
                   ___                                                        
                  /   \      - P O W E R E D   B Y -                         
                 /     \                                                     
                 |  |  |   _    _      __       _____    __    __             
                 |  |  |  | |  | |    /  \     |  _  \  |  |  /  |          
                  \  \/   | |  | |   /    \    | | | |  |  | /  /          
                 / \  \   | |__| |  /  /\  \   | |_| |  |  |/  /          
                |  |  |   |  __  | /  /__\  \  |    /   |      \           
                |  |  |   | |  | | |   __   |  |    \   |  |\   \          
                \     /   | |  | | |  |  |  |  | |\  \  |  | \   \       
                 \___/    |_|  |_| |__|  |__|  |_| \__\ |__|  \__/        
                                                                              
                      - O R C A' S   B I G   F R I E N D -                    
                                      &                                       
                       - I N T E G R A L  F E E D E R -                       
                                                                              
 v1 FN, 2020, v2 2021                                                         
------------------------------------------------------------------------------


Reading SHARK input file ox_es1_C_orca0002.SHARKINP.tmp ... ok
----------------------
SHARK INTEGRAL PACKAGE
----------------------

Number of atoms                             ...      7
Number of basis functions                   ...    117
Number of shells                            ...     49
Maximum angular momentum                    ...      3
Integral batch strategy                     ... SHARK/LIBINT Hybrid
RI-J (if used) integral strategy            ... SPLIT-RIJ (Revised 2003 algorithm where possible)
Printlevel                                  ...      1
Contraction scheme used                     ... SEGMENTED contraction
Coulomb Range Separation                    ... NOT USED
Exchange Range Separation                   ... NOT USED
Finite Nucleus Model                        ... NOT USED
Auxiliary Coulomb fitting basis             ... AVAILABLE
   # of basis functions in Aux-J            ...    191
   # of shells in Aux-J                     ...     65
   Maximum angular momentum in Aux-J        ...      4
Auxiliary J/K fitting basis                 ... NOT available
Auxiliary Correlation fitting basis         ... NOT available
Auxiliary 'external' fitting basis          ... NOT available
Integral threshold                          ...     2.500000e-11
Primitive cut-off                           ...     2.500000e-12
Primitive pair pre-selection threshold      ...     2.500000e-12

Calculating pre-screening integrals         ... done (  0.0 sec) Dimension = 49
Organizing shell pair data                  ... done (  0.0 sec)
Shell pair information
Total number of shell pairs                 ...      1225
Shell pairs after pre-screening             ...      1217
Total number of primitive shell pairs       ...      3648
Primitive shell pairs kept                  ...      3118
          la=0 lb=0:    370 shell pairs
          la=1 lb=0:    351 shell pairs
          la=1 lb=1:     91 shell pairs
          la=2 lb=0:    162 shell pairs
          la=2 lb=1:     78 shell pairs
          la=2 lb=2:     21 shell pairs
          la=3 lb=0:     81 shell pairs
          la=3 lb=1:     39 shell pairs
          la=3 lb=2:     18 shell pairs
          la=3 lb=3:      6 shell pairs

Calculating one electron integrals          ... done (  0.0 sec)
Calculating RI/J V-Matrix + Cholesky decomp.... done (  0.0 sec)
Calculating Nuclear repulsion               ... done (  0.0 sec) ENN=     71.411163526226 Eh

SHARK setup successfully completed in   0.1 seconds

Maximum memory used throughout the entire GTOINT-calculation: 14.9 MB


           ************************************************************
           *        Program running with 8 parallel MPI-processes     *
           *              working on a common directory               *
           ************************************************************
-------------------------------------------------------------------------------
                                 ORCA SCF
-------------------------------------------------------------------------------

------------
SCF SETTINGS
------------
Hamiltonian:
 Density Functional     Method          .... DFT(GTOs)
 Exchange Functional    Exchange        .... PBE
   PBE kappa parameter   XKappa         ....  0.804000
   PBE mue parameter    XMuePBE         ....  0.219520
 Correlation Functional Correlation     .... PBE
   PBE beta parameter  CBetaPBE         ....  0.066725
 LDA part of GGA corr.  LDAOpt          .... PW91-LDA
 Gradients option       PostSCFGGA      .... off
 Hybrid DFT is turned on
   Fraction HF Exchange ScalHFX         ....  0.250000
   Scaling of DF-GGA-X  ScalDFX         ....  0.750000
   Scaling of DF-GGA-C  ScalDFC         ....  1.000000
   Scaling of DF-LDA-C  ScalLDAC        ....  1.000000
   Perturbative correction              ....  0.000000
   Density functional embedding theory  .... OFF
   NL short-range parameter             ....  6.900000
 RI-approximation to the Coulomb term is turned on
   Number of AuxJ basis functions       .... 191
   RIJ-COSX (HFX calculated with COS-X)).... on


General Settings:
 Integral files         IntName         .... ox_es1_C_orca0002
 Hartree-Fock type      HFTyp           .... RHF
 Total Charge           Charge          ....    0
 Multiplicity           Mult            ....    1
 Number of Electrons    NEL             ....   24
 Basis Dimension        Dim             ....  117
 Nuclear Repulsion      ENuc            ....     71.4111635262 Eh

Convergence Acceleration:
 DIIS                   CNVDIIS         .... on
   Start iteration      DIISMaxIt       ....    12
   Startup error        DIISStart       ....  0.200000
   # of expansion vecs  DIISMaxEq       ....     5
   Bias factor          DIISBfac        ....   1.050
   Max. coefficient     DIISMaxC        ....  10.000
 Trust-Rad. Augm. Hess. CNVTRAH         .... auto
   Auto Start mean grad. ratio tolernc. ....  1.125000
   Auto Start start iteration           ....     1
   Auto Start num. interpolation iter.  ....    10
   Max. Number of Micro iterations      ....    16
   Max. Number of Macro iterations      .... Maxiter - #DIIS iter
   Number of Davidson start vectors     ....     2
   Converg. threshold I  (grad. norm)   ....   1.000e-05
   Converg. threshold II (energy diff.) ....   1.000e-08
   Grad. Scal. Fac. for Micro threshold ....   0.100
   Minimum threshold for Micro iter.    ....   0.010
   NR start threshold (gradient norm)   ....   0.001
   Initial trust radius                 ....   0.400
   Minimum AH scaling param. (alpha)    ....   1.000
   Maximum AH scaling param. (alpha)    .... 1000.000
   Orbital update algorithm             .... Taylor
   White noise on init. David. guess    .... on
   Maximum white noise                  ....   0.010
   Quad. conv. algorithm                .... NR
 SOSCF                  CNVSOSCF        .... on
   Start iteration      SOSCFMaxIt      ....   150
   Startup grad/error   SOSCFStart      ....  0.003300
 Level Shifting         CNVShift        .... on
   Level shift para.    LevelShift      ....    0.2500
   Turn off err/grad.   ShiftErr        ....    0.0010
 Zerner damping         CNVZerner       .... off
 Static damping         CNVDamp         .... on
   Fraction old density DampFac         ....    0.7000
   Max. Damping (<1)    DampMax         ....    0.9800
   Min. Damping (>=0)   DampMin         ....    0.0000
   Turn off err/grad.   DampErr         ....    0.1000
 Fernandez-Rico         CNVRico         .... off

SCF Procedure:
 Maximum # iterations   MaxIter         ....   125
 SCF integral mode      SCFMode         .... Direct
   Integral package                     .... SHARK and LIBINT hybrid scheme
 Reset frequency        DirectResetFreq ....    20
 Integral Threshold     Thresh          ....  2.500e-11 Eh
 Primitive CutOff       TCut            ....  2.500e-12 Eh

Convergence Tolerance:
 Convergence Check Mode ConvCheckMode   .... Total+1el-Energy
 Convergence forced     ConvForced      .... 1
 Energy Change          TolE            ....  1.000e-08 Eh
 1-El. energy change                    ....  1.000e-05 Eh
 Orbital Gradient       TolG            ....  1.000e-05
 Orbital Rotation angle TolX            ....  1.000e-05
 DIIS Error             TolErr          ....  5.000e-07


Diagonalization of the overlap matrix:
Smallest eigenvalue                        ... 6.835e-04
Time for diagonalization                   ...    0.001 sec
Threshold for overlap eigenvalues          ... 1.000e-08
Number of eigenvalues below threshold      ... 0
Time for construction of square roots      ...    0.001 sec
Total time needed                          ...    0.003 sec

---------------------
INITIAL GUESS: MOREAD
---------------------
Guess MOs are being read from file: ox_es1_C_orca0002.ges
Input Geometry matches current geometry (good)
Input basis set matches current basis set (good)
MOs were renormalized
MOs were reorthogonalized (Cholesky)
                      ------------------
                      INITIAL GUESS DONE (   0.0 sec)
                      ------------------
-------------------
DFT GRID GENERATION
-------------------

General Integration Accuracy     IntAcc      ... 4.388
Radial Grid Type                 RadialGrid  ... OptM3 with GC (2021)
Angular Grid (max. ang.)         AngularGrid ... 4 (Lebedev-302)
Angular grid pruning method      GridPruning ... 4 (adaptive)
Weight generation scheme         WeightScheme... Becke
Basis function cutoff            BFCut       ... 1.0000e-11
Integration weight cutoff        WCut        ... 1.0000e-14
Angular grids for H and He will be reduced by one unit
Partially contracted basis set               ... off
Rotationally invariant grid construction     ... off

Total number of grid points                  ...    31323
Total number of batches                      ...      494
Average number of points per batch           ...       63
Average number of grid points per atom       ...     4475
Time for grid setup =    0.117 sec

--------------------
COSX GRID GENERATION
--------------------

GRIDX 1
-------
General Integration Accuracy     IntAcc      ... 3.816
Radial Grid Type                 RadialGrid  ... OptM3 with GC (2021)
Angular Grid (max. ang.)         AngularGrid ... 1 (Lebedev-50)
Angular grid pruning method      GridPruning ... 4 (adaptive)
Weight generation scheme         WeightScheme... Becke
Basis function cutoff            BFCut       ... 1.0000e-11
Integration weight cutoff        WCut        ... 1.0000e-14
Angular grids for H and He will be reduced by one unit
Partially contracted basis set               ... on
Rotationally invariant grid construction     ... off

Total number of grid points                  ...     4034
Total number of batches                      ...       68
Average number of points per batch           ...       59
Average number of grid points per atom       ...      576
UseSFitting                                  ... on

GRIDX 2
-------
General Integration Accuracy     IntAcc      ... 4.020
Radial Grid Type                 RadialGrid  ... OptM3 with GC (2021)
Angular Grid (max. ang.)         AngularGrid ... 2 (Lebedev-110)
Angular grid pruning method      GridPruning ... 4 (adaptive)
Weight generation scheme         WeightScheme... Becke
Basis function cutoff            BFCut       ... 1.0000e-11
Integration weight cutoff        WCut        ... 1.0000e-14
Angular grids for H and He will be reduced by one unit
Partially contracted basis set               ... on
Rotationally invariant grid construction     ... off

Total number of grid points                  ...     8732
Total number of batches                      ...      140
Average number of points per batch           ...       62
Average number of grid points per atom       ...     1247
UseSFitting                                  ... on

GRIDX 3
-------
General Integration Accuracy     IntAcc      ... 4.338
Radial Grid Type                 RadialGrid  ... OptM3 with GC (2021)
Angular Grid (max. ang.)         AngularGrid ... 3 (Lebedev-194)
Angular grid pruning method      GridPruning ... 4 (adaptive)
Weight generation scheme         WeightScheme... Becke
Basis function cutoff            BFCut       ... 1.0000e-11
Integration weight cutoff        WCut        ... 1.0000e-14
Angular grids for H and He will be reduced by one unit
Partially contracted basis set               ... on
Rotationally invariant grid construction     ... off

Total number of grid points                  ...    19257
Total number of batches                      ...      305
Average number of points per batch           ...       63
Average number of grid points per atom       ...     2751
UseSFitting                                  ... on

Time for X-Grid setup             =    0.073 sec

--------------
SCF ITERATIONS
--------------
ITER       Energy         Delta-E        Max-DP      RMS-DP      [F,P]     Damp
               ***  Starting incremental Fock matrix formation  ***
                      *** Initiating the SOSCF procedure ***
                      *** Re-Reading the Fockian *** 
                      *** Removing any level shift *** 
ITER      Energy       Delta-E        Grad      Rot      Max-DP    RMS-DP
  0   -153.60719415 -153.6071941542  0.000001  0.000001  0.000001  0.000000
               *** Restarting incremental Fock matrix formation ***
                  ***Gradient check signals convergence***
              ***Rediagonalizing the Fockian in SOSCF/NRSCF***

               *****************************************************
               *                     SUCCESS                       *
               *           SCF CONVERGED AFTER   1 CYCLES          *
               *****************************************************

Old exchange energy                            =     -4.971797109 Eh
New exchange energy                            =     -4.971805279 Eh
Exchange energy change after final integration =     -0.000008169 Eh
Total energy after final integration           =   -153.607202323 Eh
Final COS-X integration done in                =     0.258 sec

----------------
TOTAL SCF ENERGY
----------------

Total Energy       :         -153.60720232 Eh           -4179.86448 eV

Components:
Nuclear Repulsion  :           71.41116353 Eh            1943.19655 eV
Electronic Energy  :         -225.01836585 Eh           -6123.06103 eV
One Electron Energy:         -349.57700688 Eh           -9512.47396 eV
Two Electron Energy:          124.55864103 Eh            3389.41294 eV
Max COSX asymmetry :            0.00000082 Eh               0.00002 eV

Virial components:
Potential Energy   :         -306.37818501 Eh           -8336.97426 eV
Kinetic Energy     :          152.77098269 Eh            4157.10978 eV
Virial Ratio       :            2.00547368


DFT components:
N(Alpha)           :       12.000000757487 electrons
N(Beta)            :       12.000000757487 electrons
N(Total)           :       24.000001514975 electrons
E(X)               :      -14.906932075248 Eh       
E(C)               :       -0.780134058043 Eh       
E(XC)              :      -15.687066133291 Eh       
DFET-embed. en.    :        0.000000000000 Eh       

---------------
SCF CONVERGENCE
---------------

  Last Energy change         ...   -2.3306e-11  Tolerance :   1.0000e-08
  Last MAX-Density change    ...    4.4409e-16  Tolerance :   1.0000e-07
  Last RMS-Density change    ...    1.6744e-17  Tolerance :   5.0000e-09
  Last Orbital Gradient      ...    3.1588e-07  Tolerance :   1.0000e-05
  Last Orbital Rotation      ...    4.1581e-07  Tolerance :   1.0000e-05

             **** THE GBW FILE WAS UPDATED (ox_es1_C_orca0002.gbw) ****
             **** DENSITY ox_es1_C_orca0002.scfp WAS UPDATED ****
             **** ENERGY FILE WAS UPDATED (ox_es1_C_orca0002.en.tmp) ****
             **** THE GBW FILE WAS UPDATED (ox_es1_C_orca0002.gbw) ****
             **** DENSITY ox_es1_C_orca0002.scfp WAS UPDATED ****
----------------
ORBITAL ENERGIES
----------------

  NO   OCC          E(Eh)            E(eV) 
   0   2.0000     -19.224724      -523.1313 
   1   2.0000     -10.302037      -280.3327 
   2   2.0000     -10.268320      -279.4152 
   3   2.0000      -1.044756       -28.4293 
   4   2.0000      -0.725036       -19.7292 
   5   2.0000      -0.650468       -17.7001 
   6   2.0000      -0.515944       -14.0396 
   7   2.0000      -0.488603       -13.2956 
   8   2.0000      -0.417063       -11.3489 
   9   2.0000      -0.396150       -10.7798 
  10   2.0000      -0.313544        -8.5320 
  11   2.0000      -0.281948        -7.6722 
  12   0.0000      -0.039793        -1.0828 
  13   0.0000       0.067267         1.8304 
  14   0.0000       0.072825         1.9817 
  15   0.0000       0.100325         2.7300 
  16   0.0000       0.112957         3.0737 
  17   0.0000       0.152213         4.1419 
  18   0.0000       0.184733         5.0268 
  19   0.0000       0.195154         5.3104 
  20   0.0000       0.253591         6.9006 
  21   0.0000       0.265894         7.2353 
  22   0.0000       0.275704         7.5023 
  23   0.0000       0.309729         8.4281 
  24   0.0000       0.346317         9.4238 
  25   0.0000       0.384031        10.4500 
  26   0.0000       0.400510        10.8984 
  27   0.0000       0.419936        11.4270 
  28   0.0000       0.455561        12.3965 
  29   0.0000       0.481504        13.1024 
  30   0.0000       0.500361        13.6155 
  31   0.0000       0.534820        14.5532 
  32   0.0000       0.564301        15.3554 
  33   0.0000       0.660299        17.9676 
  34   0.0000       0.701261        19.0823 
  35   0.0000       0.758080        20.6284 
  36   0.0000       0.804923        21.9031 
  37   0.0000       0.853051        23.2127 
  38   0.0000       0.863862        23.5069 
  39   0.0000       0.914195        24.8765 
  40   0.0000       0.958392        26.0792 
  41   0.0000       1.021574        27.7985 
  42   0.0000       1.063662        28.9437 
  43   0.0000       1.081393        29.4262 
  44   0.0000       1.137466        30.9520 
  45   0.0000       1.353441        36.8290 
  46   0.0000       1.418957        38.6118 
  47   0.0000       1.460086        39.7310 
  48   0.0000       1.492027        40.6001 
  49   0.0000       1.507256        41.0145 
  50   0.0000       1.571744        42.7693 
  51   0.0000       1.636377        44.5281 
  52   0.0000       1.663616        45.2693 
  53   0.0000       1.684101        45.8267 
  54   0.0000       1.756604        47.7996 
  55   0.0000       1.775934        48.3256 
  56   0.0000       1.860344        50.6225 
  57   0.0000       1.908850        51.9424 
  58   0.0000       1.923001        52.3275 
  59   0.0000       1.938410        52.7468 
  60   0.0000       1.973392        53.6987 
  61   0.0000       2.086220        56.7689 
  62   0.0000       2.110661        57.4340 
  63   0.0000       2.275500        61.9195 
  64   0.0000       2.304822        62.7174 
  65   0.0000       2.380149        64.7672 
  66   0.0000       2.402619        65.3786 
  67   0.0000       2.465312        67.0846 
  68   0.0000       2.511934        68.3532 
  69   0.0000       2.554147        69.5019 
  70   0.0000       2.577668        70.1419 
  71   0.0000       2.585829        70.3640 
  72   0.0000       2.632059        71.6220 
  73   0.0000       2.743180        74.6457 
  74   0.0000       2.781754        75.6954 
  75   0.0000       2.791462        75.9595 
  76   0.0000       2.829739        77.0011 
  77   0.0000       2.961121        80.5762 
  78   0.0000       2.981359        81.1269 
  79   0.0000       3.041776        82.7709 
  80   0.0000       3.058880        83.2364 
  81   0.0000       3.096143        84.2503 
  82   0.0000       3.120731        84.9194 
  83   0.0000       3.160163        85.9924 
  84   0.0000       3.222956        87.7011 
  85   0.0000       3.281742        89.3007 
  86   0.0000       3.321155        90.3732 
  87   0.0000       3.346702        91.0684 
  88   0.0000       3.513222        95.5996 
  89   0.0000       3.584944        97.5513 
  90   0.0000       3.626873        98.6922 
  91   0.0000       3.699956       100.6809 
  92   0.0000       3.793746       103.2331 
  93   0.0000       3.872856       105.3858 
  94   0.0000       3.997945       108.7896 
  95   0.0000       4.053720       110.3073 
  96   0.0000       4.165971       113.3618 
  97   0.0000       4.248461       115.6065 
  98   0.0000       4.295490       116.8862 
  99   0.0000       4.541585       123.5828 
 100   0.0000       4.614582       125.5692 
 101   0.0000       4.829796       131.4254 
 102   0.0000       5.268152       143.3537 
 103   0.0000       5.271743       143.4514 
 104   0.0000       5.402408       147.0070 
 105   0.0000       5.508682       149.8989 
 106   0.0000       5.785959       157.4440 
 107   0.0000       5.819480       158.3561 
 108   0.0000       5.979216       162.7027 
 109   0.0000       6.461323       175.8215 
 110   0.0000       6.535079       177.8285 
 111   0.0000       6.789127       184.7415 
 112   0.0000       6.936065       188.7399 
 113   0.0000       7.063468       192.2067 
 114   0.0000      22.127763       602.1270 
 115   0.0000      22.527034       612.9918 
 116   0.0000      43.722000      1189.7361 

                    ********************************
                    * MULLIKEN POPULATION ANALYSIS *
                    ********************************

-----------------------
MULLIKEN ATOMIC CHARGES
-----------------------
   0 O :   -0.323740
   1 C :   -0.029238
   2 C :   -0.169021
   3 H :    0.114625
   4 H :    0.117151
   5 H :    0.142484
   6 H :    0.147739
Sum of atomic charges:   -0.0000000

--------------------------------
MULLIKEN REDUCED ORBITAL CHARGES
--------------------------------
  0 O s       :     3.890224  s :     3.890224
      pz      :     1.887513  p :     4.400756
      px      :     1.265284
      py      :     1.247959
      dz2     :     0.004223  d :     0.031216
      dxz     :     0.001147
      dyz     :     0.005628
      dx2y2   :     0.009054
      dxy     :     0.011164
      f0      :     0.000182  f :     0.001544
      f+1     :     0.000121
      f-1     :     0.000366
      f+2     :     0.000130
      f-2     :     0.000081
      f+3     :     0.000383
      f-3     :     0.000281
  1 C s       :     3.198569  s :     3.198569
      pz      :     1.067048  p :     2.688735
      px      :     0.908673
      py      :     0.713015
      dz2     :     0.007958  d :     0.130740
      dxz     :     0.020669
      dyz     :     0.042068
      dx2y2   :     0.029168
      dxy     :     0.030877
      f0      :     0.001736  f :     0.011193
      f+1     :     0.001289
      f-1     :     0.000751
      f+2     :     0.002446
      f-2     :     0.000532
      f+3     :     0.001946
      f-3     :     0.002492
  2 C s       :     3.276081  s :     3.276081
      pz      :     1.040075  p :     2.817740
      px      :     0.938258
      py      :     0.839407
      dz2     :     0.007682  d :     0.068482
      dxz     :     0.018666
      dyz     :     0.012267
      dx2y2   :     0.011319
      dxy     :     0.018548
      f0      :     0.000631  f :     0.006718
      f+1     :     0.001090
      f-1     :     0.000319
      f+2     :     0.000600
      f-2     :     0.000850
      f+3     :     0.001687
      f-3     :     0.001541
  3 H s       :     0.864697  s :     0.864697
      pz      :     0.010467  p :     0.020678
      px      :     0.006358
      py      :     0.003853
  4 H s       :     0.859094  s :     0.859094
      pz      :     0.011071  p :     0.023755
      px      :     0.007426
      py      :     0.005259
  5 H s       :     0.834504  s :     0.834504
      pz      :     0.010995  p :     0.023012
      px      :     0.006604
      py      :     0.005412
  6 H s       :     0.829870  s :     0.829870
      pz      :     0.009872  p :     0.022391
      px      :     0.007462
      py      :     0.005057


                     *******************************
                     * LOEWDIN POPULATION ANALYSIS *
                     *******************************

----------------------
LOEWDIN ATOMIC CHARGES
----------------------
   0 O :    0.028928
   1 C :   -0.350828
   2 C :   -0.127456
   3 H :    0.116948
   4 H :    0.085200
   5 H :    0.121576
   6 H :    0.125632

-------------------------------
LOEWDIN REDUCED ORBITAL CHARGES
-------------------------------
  0 O s       :     3.496433  s :     3.496433
      pz      :     1.796317  p :     4.401503
      px      :     1.236916
      py      :     1.368269
      dz2     :     0.009078  d :     0.068613
      dxz     :     0.002886
      dyz     :     0.014397
      dx2y2   :     0.020695
      dxy     :     0.021556
      f0      :     0.000456  f :     0.004523
      f+1     :     0.000178
      f-1     :     0.000685
      f+2     :     0.000600
      f-2     :     0.000305
      f+3     :     0.001235
      f-3     :     0.001065
  1 C s       :     2.825335  s :     2.825335
      pz      :     1.072783  p :     2.914928
      px      :     1.010870
      py      :     0.831275
      dz2     :     0.060412  d :     0.533489
      dxz     :     0.106713
      dyz     :     0.116357
      dx2y2   :     0.133805
      dxy     :     0.116203
      f0      :     0.010583  f :     0.077076
      f+1     :     0.005535
      f-1     :     0.007673
      f+2     :     0.015976
      f-2     :     0.002300
      f+3     :     0.013538
      f-3     :     0.021470
  2 C s       :     2.885363  s :     2.885363
      pz      :     1.088920  p :     2.939370
      px      :     1.037572
      py      :     0.812878
      dz2     :     0.036499  d :     0.272552
      dxz     :     0.090102
      dyz     :     0.035857
      dx2y2   :     0.050940
      dxy     :     0.059154
      f0      :     0.002994  f :     0.030172
      f+1     :     0.003562
      f-1     :     0.002364
      f+2     :     0.003074
      f-2     :     0.003807
      f+3     :     0.007069
      f-3     :     0.007302
  3 H s       :     0.824015  s :     0.824015
      pz      :     0.030870  p :     0.059037
      px      :     0.017312
      py      :     0.010855
  4 H s       :     0.836199  s :     0.836199
      pz      :     0.038174  p :     0.078601
      px      :     0.023667
      py      :     0.016760
  5 H s       :     0.810497  s :     0.810497
      pz      :     0.033993  p :     0.067927
      px      :     0.017953
      py      :     0.015981
  6 H s       :     0.809422  s :     0.809422
      pz      :     0.030515  p :     0.064946
      px      :     0.019685
      py      :     0.014746


                      *****************************
                      * MAYER POPULATION ANALYSIS *
                      *****************************

  NA   - Mulliken gross atomic population
  ZA   - Total nuclear charge
  QA   - Mulliken gross atomic charge
  VA   - Mayer's total valence
  BVA  - Mayer's bonded valence
  FA   - Mayer's free valence

  ATOM       NA         ZA         QA         VA         BVA        FA
  0 O      8.3237     8.0000    -0.3237     1.9377     1.9377    -0.0000
  1 C      6.0292     6.0000    -0.0292     3.9723     3.9723    -0.0000
  2 C      6.1690     6.0000    -0.1690     3.8972     3.8972    -0.0000
  3 H      0.8854     1.0000     0.1146     0.9668     0.9668    -0.0000
  4 H      0.8828     1.0000     0.1172     0.9623     0.9623    -0.0000
  5 H      0.8575     1.0000     0.1425     0.9591     0.9591     0.0000
  6 H      0.8523     1.0000     0.1477     0.9599     0.9599     0.0000

  Mayer bond orders larger than 0.100000
B(  0-O ,  1-C ) :   0.9764 B(  0-O ,  2-C ) :   0.9495 B(  1-C ,  2-C ) :   1.0474 
B(  1-C ,  3-H ) :   0.9640 B(  1-C ,  4-H ) :   0.9724 B(  2-C ,  5-H ) :   0.9459 
B(  2-C ,  6-H ) :   0.9472 

-------
TIMINGS
-------

Total SCF time: 0 days 0 hours 0 min 0 sec 

Total time                  ....       0.987 sec
Sum of individual times     ....       0.895 sec  ( 90.7%)

Fock matrix formation       ....       0.691 sec  ( 70.0%)
  Split-RI-J                ....       0.113 sec  ( 16.4% of F)
  Chain of spheres X        ....       0.513 sec  ( 74.3% of F)
  XC integration            ....       0.062 sec  (  9.0% of F)
    Basis function eval.    ....       0.018 sec  ( 28.9% of XC)
    Density eval.           ....       0.014 sec  ( 22.1% of XC)
    XC-Functional eval.     ....       0.004 sec  (  6.1% of XC)
    XC-Potential eval.      ....       0.020 sec  ( 31.9% of XC)
Diagonalization             ....       0.002 sec  (  0.2%)
Density matrix formation    ....       0.000 sec  (  0.0%)
Population analysis         ....       0.003 sec  (  0.3%)
Initial guess               ....       0.006 sec  (  0.6%)
Orbital Transformation      ....       0.000 sec  (  0.0%)
Orbital Orthonormalization  ....       0.001 sec  (  0.1%)
DIIS solution               ....       0.001 sec  (  0.1%)
SOSCF solution              ....       0.002 sec  (  0.2%)
Grid generation             ....       0.190 sec  ( 19.2%)

Maximum memory used throughout the entire SCF-calculation: 61.1 MB


           ************************************************************
           *        Program running with 8 parallel MPI-processes     *
           *              working on a common directory               *
           ************************************************************
------------------------------------------------------------------------------
                        ORCA TD-DFT/TDA CALCULATION
------------------------------------------------------------------------------

Input orbitals are from        ... ox_es1_C_orca0002.gbw
CI-vector output               ... ox_es1_C_orca0002.cis
Tamm-Dancoff approximation     ... operative
CIS-Integral strategy          ... AO-integrals
Integral handling              ... AO integral Direct
Max. core memory used          ... 3000 MB
Reference state                ... RHF
Generation of triplets         ... off
Follow IRoot                   ... off
Number of operators            ... 1
Orbital ranges used for CIS calculation:
 Operator 0:  Orbitals   3... 11  to  12...116
XAS localization array:
 Operator 0:  Orbitals  -1... -1

-------------------
XC-INTEGRATION GRID
-------------------

General Integration Accuracy     IntAcc      ... 3.467
Radial Grid Type                 RadialGrid  ... OptM3 with GC (2021)
Angular Grid (max. ang.)         AngularGrid ... 1 (Lebedev-50)
Angular grid pruning method      GridPruning ... 4 (adaptive)
Weight generation scheme         WeightScheme... Becke
Basis function cutoff            BFCut       ... 1.0000e-11
Integration weight cutoff        WCut        ... 1.0000e-14
Angular grids for H and He will be reduced by one unit
Partially contracted basis set               ... off
Rotationally invariant grid construction     ... off

Total number of grid points                  ...     4539
Total number of batches                      ...       75
Average number of points per batch           ...       60
Average number of grid points per atom       ...      648

---------------------
COSX-INTEGRATION GRID
---------------------

General Integration Accuracy     IntAcc      ... 3.067
Radial Grid Type                 RadialGrid  ... OptM3 with GC (2021)
Angular Grid (max. ang.)         AngularGrid ... 1 (Lebedev-50)
Angular grid pruning method      GridPruning ... 4 (adaptive)
Weight generation scheme         WeightScheme... Becke
Basis function cutoff            BFCut       ... 1.0000e-11
Integration weight cutoff        WCut        ... 1.0000e-14
Angular grids for H and He will be reduced by one unit
Partially contracted basis set               ... on
Rotationally invariant grid construction     ... off

Total number of grid points                  ...     2086
Total number of batches                      ...       38
Average number of points per batch           ...       54
Average number of grid points per atom       ...      298

---------------
TD-DFT XC SETUP
---------------

DFT calculation                         ... on
Name of the grid file                   ... ox_es1_C_orca0002.grid_cis.tmp
Exchange functional (TD-DFT)            ... PBE
   PBE kappa parameter  XKappa (TD-DFT) ...  0.804000
   PBE mue parameter   XMuePBE (TD-DFT) ...  0.219520
Correlation functional (TD-DFT)         ... PBE
   PBE beta parameter CBetaPBE (TD-DFT) ...  0.066725
 LDA part of GGA corr.  LDAOpt (TD-DFT) ... PW91-LDA
Hybrid DFT                              ... on
   Exchange mixing (TD-DFT)             ...  0.250
   GGA exch. scaling (TD-DFT)           ...  0.750
   GGA corr. scaling (TD-DFT)           ...  1.000

Building densities             ... done
Calculating rho(r) on the grid ... done
Building xc-kernel on the grid ... done
                    *** TD-DFT CALCULATION INITIALIZED ***

------------------------
DAVIDSON-DIAGONALIZATION
------------------------

Dimension of the eigenvalue problem            ...    945
Number of roots to be determined               ...      1
Maximum size of the expansion space            ...     10
Maximum number of iterations                   ...    100
Convergence tolerance for the residual         ...    2.500e-07
Convergence tolerance for the energies         ...    2.500e-07
Orthogonality tolerance                        ...    1.000e-14
Level Shift                                    ...    0.000e+00
Constructing the preconditioner                ... o.k.
Building the initial guess                     ... o.k.
Number of trial vectors determined             ...     10


                       ****Iteration    0****

   Memory handling for direct AO based CIS:
   Memory per vector needed      ...     1 MB
   Memory needed                 ...     1 MB
   Memory available              ...  3000 MB
   Number of vectors per batch   ...  3000
   Number of batches             ...     1
   Time for densities:            0.001
   Time for RI-J (Direct):        0.015
   Time for K (COSX):             0.054
   Time for XC-Integration:       0.015
   Time for Sigma-Completion:     0.000
   Size of expansion space: 3
   Lowest Energy          :     0.158473317184
   Maximum Energy change  :     0.158473317184 (vector 0)
   Maximum residual norm  :     0.003706255022

                       ****Iteration    1****
   Time for densities:            0.000
   Time for RI-J (Direct):        0.012
   Time for K (COSX):             0.048
   Time for XC-Integration:       0.006
   Time for Sigma-Completion:     0.000
   Size of expansion space: 4
   Lowest Energy          :     0.155558532207
   Maximum Energy change  :     0.002914784978 (vector 0)
   Maximum residual norm  :     0.000118475702

                       ****Iteration    2****
   Time for densities:            0.000
   Time for RI-J (Direct):        0.012
   Time for K (COSX):             0.048
   Time for XC-Integration:       0.007
   Time for Sigma-Completion:     0.000
   Size of expansion space: 5
   Lowest Energy          :     0.155479255594
   Maximum Energy change  :     0.000079276613 (vector 0)
   Maximum residual norm  :     0.000004088249

                       ****Iteration    3****
   Time for densities:            0.000
   Time for RI-J (Direct):        0.012
   Time for K (COSX):             0.048
   Time for XC-Integration:       0.006
   Time for Sigma-Completion:     0.000
   Size of expansion space: 6
   Lowest Energy          :     0.155475429452
   Maximum Energy change  :     0.000003826142 (vector 0)
   Maximum residual norm  :     0.000000434726

                       ****Iteration    4****
   Time for densities:            0.000
   Time for RI-J (Direct):        0.012
   Time for K (COSX):             0.048
   Time for XC-Integration:       0.006
   Time for Sigma-Completion:     0.000
   Size of expansion space: 7
   Lowest Energy          :     0.155474968565
   Maximum Energy change  :     0.000000460887 (vector 0)
   Maximum residual norm  :     0.000000026806

      *** CONVERGENCE OF RESIDUAL NORM REACHED ***

Storing the converged CI vectors               ... ox_es1_C_orca0002.cis1

                 *** DAVIDSON DONE ***

Total time for solving the CIS problem:     0.356sec

------------------------------------
TD-DFT/TDA EXCITED STATES (SINGLETS)
------------------------------------

the weight of the individual excitations are printed if larger than 1.0e-02

STATE  1:  E=   0.155475 au      4.231 eV    34122.8 cm**-1 <S**2> =   0.000000
    11a ->  12a  :     0.989579 (c= -0.99477589)


-----------------------------
TD-DFT/TDA-EXCITATION SPECTRA
-----------------------------

Center of mass = ( -0.2789, -0.0196, -0.0393)
Calculating the Dipole integrals                  ... done
Transforming integrals                            ... done
Calculating the Linear Momentum integrals         ... done
Transforming integrals                            ... done
Calculating angular momentum integrals            ... done
Transforming integrals                            ... done

-----------------------------------------------------------------------------
         ABSORPTION SPECTRUM VIA TRANSITION ELECTRIC DIPOLE MOMENTS
-----------------------------------------------------------------------------
State   Energy    Wavelength  fosc         T2        TX        TY        TZ  
        (cm-1)      (nm)                 (au**2)    (au)      (au)      (au) 
-----------------------------------------------------------------------------
   1   34122.8    293.1   0.001893444   0.01827  -0.01602   0.01256  -0.13362

-----------------------------------------------------------------------------
         ABSORPTION SPECTRUM VIA TRANSITION VELOCITY DIPOLE MOMENTS
-----------------------------------------------------------------------------
State   Energy    Wavelength   fosc        P2         PX        PY        PZ  
        (cm-1)      (nm)                 (au**2)     (au)      (au)      (au) 
-----------------------------------------------------------------------------
   1   34122.8    293.1   0.009885304   0.00231   0.00047  -0.00399   0.04785

-------------------------------------------------------------------
                             CD SPECTRUM
-------------------------------------------------------------------
State  Energy     Wavelength     R         MX        MY        MZ   
       (cm-1)       (nm)     (1e40*cgs)   (au)      (au)      (au)  
-------------------------------------------------------------------
   1   34122.8    293.1      1.68760  -0.02313   0.24592  -0.00090

-------------------------------------------------------------------
         CD SPECTRUM VIA TRANSITION VELOCITY DIPOLE MOMENTS        
-------------------------------------------------------------------
State  Energy     Wavelength     R         MX        MY        MZ   
       (cm-1)       (nm)     (1e40*cgs)   (au)      (au)      (au)  
-------------------------------------------------------------------
   1   34122.8    293.1     -3.13910  -0.02313   0.24592  -0.00090

Total run time:        0.617 sec

           *** ORCA-CIS/TD-DFT FINISHED WITHOUT ERROR ***

Maximum memory used throughout the entire CIS-calculation: 49.4 MB

-----------------------
CIS/TD-DFT TOTAL ENERGY
-----------------------

    E(SCF)  =   -153.607202323 Eh
    DE(CIS) =      0.155474969 Eh (Root  1)
    ----------------------------- ---------
    E(tot)  =   -153.451727355 Eh



-------------------------------------------------------------------------------
                          DFT DISPERSION CORRECTION                            
                                                                               
                              DFTD3 V3.1  Rev 1                                
                          USING Becke-Johnson damping                          
-------------------------------------------------------------------------------
The PBE0 functional is recognized
Active option DFTDOPT                   ...         4   

molecular C6(AA) [au] = 359.564973 


            DFT-D V3
 parameters
 s6 scaling factor         :     1.0000 
 a1 scaling factor         :     0.4145 
 s8 scaling factor         :     1.2177 
 a2 scaling factor         :     4.8593 
 ad hoc parameters k1-k3   :    16.0000     1.3333    -4.0000 

 Edisp/kcal,au: -1.530460127730  -0.002438943200 
 E6   /kcal   :  -1.001564725 
 E8   /kcal   :  -0.528895403 
 % E8         :  34.557934140 

-------------------------   ----------------
Dispersion correction           -0.002438943
-------------------------   ----------------


-------------------------   --------------------
FINAL SINGLE POINT ENERGY      -153.454166298017
-------------------------   --------------------



           ************************************************************
           *        Program running with 8 parallel MPI-processes     *
           *              working on a common directory               *
           ************************************************************
------------------------------------------------------------------------------
                         ORCA SCF GRADIENT CALCULATION
------------------------------------------------------------------------------


------------------------
TD-DFT GRADIENT XC SETUP
------------------------

Building densities                     ... done
Calculating rho(r) on the grid         ... done
Building xc-kernel on the grid         ... done
Building xc 3rd derivative on the grid      ... done
                *** TD-DFT GRADIENT CALCULATION INITIALIZED ***

-------------------
TD-DFT/TDA GRADIENT
-------------------

Reference wavefunction             ... RHF
State of interest                  ... 1
Basis dimension                    ... 117
DFT-XC contribution needed         ... YES
RI-approximation                   ... ON
CIS-vectors being read from        ... ox_es1_C_orca0002.cis

 => Number of Vectors found: 1
 => Orbital Window: 3...11 -> 12...116

Reading the CIS file                     ... done
Norm of the CI vector                    ... 1.000000000
Making the CIS (pseudo)densities         ... done
Making operators G(D) and Q(T)           ... done
Transforming the Fock operators          ... done
Making the frozen-core relaxed density   ... done
Constructing the G(H) operator           ... done
Transforming the G(H) operator           ... done
Calculating the CIS Lagrangian           ... done
Solving the Z-vector equations           ... done
Finalizing the relaxed density           ... done
Storing the relaxed density              ... done
Constructing the G(Z) operator           ... done
Transforming the G(Z) operator           ... done
Making the W-matrix                      ... done
Finalizing the W-matrix                  ... done
Transforming the W-matrix                ... done
Nuclear repulsion gradient               ... done
One-Electron gradient                    ... done
Dispersion correction                    ... done
Prescreening matrices                    ... done
COSX-gradient                            ... done
Coulomb gradient (RI)                    ... done
Exchange-Correlation gradient            ... done

                 ---------------------------
                 EXCITED STATE GRADIENT DONE
                 ---------------------------

------------------
CARTESIAN GRADIENT
------------------

   1   O   :    0.075116675   -0.071384888   -0.002883286
   2   C   :   -0.120829531   -0.052630615   -0.081513365
   3   C   :   -0.010751740    0.102420197   -0.004479379
   4   H   :    0.001241088    0.009469433    0.003586446
   5   H   :    0.050573897    0.024738434    0.075904257
   6   H   :   -0.002873241   -0.004905860    0.009634831
   7   H   :    0.007469602   -0.007711711   -0.000222086

Difference to translation invariance:
           :   -0.0000532497   -0.0000050098    0.0000274171

Difference to rotation invariance:
           :    0.0000680994    0.0000678025    0.0002295623

Norm of the cartesian gradient     ...    0.2337992387
RMS gradient                       ...    0.0510191766
MAX gradient                       ...    0.1208295310

------------------------------------------------------------------------------
                  RELAXED CIS/TDA DENSITY POPULATION ANALYSIS
                                   IROOT 1
------------------------------------------------------------------------------
------------------------------------------------------------------------------
                           ORCA POPULATION ANALYSIS
------------------------------------------------------------------------------
Input electron density              ... ox_es1_C_orca0002.cisp
BaseName (.gbw .S,...)              ... ox_es1_C_orca0002

                    ********************************
                    * MULLIKEN POPULATION ANALYSIS *
                    ********************************

-----------------------
MULLIKEN ATOMIC CHARGES
-----------------------
   0 O :   -0.076129
   1 C :   -0.076652
   2 C :   -0.405311
   3 H :    0.155547
   4 H :    0.152257
   5 H :    0.122258
   6 H :    0.128030
Sum of atomic charges:   -0.0000000

--------------------------------
MULLIKEN REDUCED ORBITAL CHARGES
--------------------------------
  0 O s       :     3.861059  s :     3.861059
      pz      :     1.079684  p :     4.183865
      px      :     1.737408
      py      :     1.366774
      dz2     :     0.003268  d :     0.030143
      dxz     :     0.001150
      dyz     :     0.006064
      dx2y2   :     0.009069
      dxy     :     0.010592
      f0      :     0.000039  f :     0.001062
      f+1     :    -0.000077
      f-1     :     0.000106
      f+2     :     0.000154
      f-2     :     0.000064
      f+3     :     0.000468
      f-3     :     0.000307
  1 C s       :     3.214040  s :     3.214040
      pz      :     1.029583  p :     2.742075
      px      :     0.994765
      py      :     0.717727
      dz2     :     0.006917  d :     0.110007
      dxz     :     0.021023
      dyz     :     0.019034
      dx2y2   :     0.028470
      dxy     :     0.034564
      f0      :     0.000920  f :     0.010530
      f+1     :     0.001372
      f-1     :     0.000566
      f+2     :     0.001315
      f-2     :     0.000378
      f+3     :     0.003377
      f-3     :     0.002602
  2 C s       :     3.346041  s :     3.346041
      pz      :     1.035969  p :     2.990493
      px      :     0.858879
      py      :     1.095645
      dz2     :     0.007697  d :     0.062548
      dxz     :     0.009410
      dyz     :     0.003953
      dx2y2   :     0.012425
      dxy     :     0.029063
      f0      :     0.000429  f :     0.006230
      f+1     :     0.000917
      f-1     :     0.000554
      f+2     :     0.000534
      f-2     :     0.000509
      f+3     :     0.001923
      f-3     :     0.001363
  3 H s       :     0.823046  s :     0.823046
      pz      :     0.010810  p :     0.021407
      px      :     0.006789
      py      :     0.003807
  4 H s       :     0.823245  s :     0.823245
      pz      :     0.011435  p :     0.024498
      px      :     0.007879
      py      :     0.005184
  5 H s       :     0.852885  s :     0.852885
      pz      :     0.010096  p :     0.024856
      px      :     0.006280
      py      :     0.008480
  6 H s       :     0.847802  s :     0.847802
      pz      :     0.009042  p :     0.024168
      px      :     0.007113
      py      :     0.008013


                     *******************************
                     * LOEWDIN POPULATION ANALYSIS *
                     *******************************

----------------------
LOEWDIN ATOMIC CHARGES
----------------------
   0 O :    0.212183
   1 C :   -0.323026
   2 C :   -0.366152
   3 H :    0.151344
   4 H :    0.112199
   5 H :    0.104446
   6 H :    0.109006

-------------------------------
LOEWDIN REDUCED ORBITAL CHARGES
-------------------------------
  0 O s       :     3.526412  s :     3.526412
      pz      :     1.039602  p :     4.175900
      px      :     1.671073
      py      :     1.465225
      dz2     :     0.010689  d :     0.081126
      dxz     :     0.002906
      dyz     :     0.013726
      dx2y2   :     0.020068
      dxy     :     0.033737
      f0      :     0.000464  f :     0.004379
      f+1     :     0.000115
      f-1     :     0.000476
      f+2     :     0.000507
      f-2     :     0.000268
      f+3     :     0.001491
      f-3     :     0.001059
  1 C s       :     2.830173  s :     2.830173
      pz      :     1.030391  p :     2.947204
      px      :     1.072376
      py      :     0.844436
      dz2     :     0.059114  d :     0.468025
      dxz     :     0.098920
      dyz     :     0.055138
      dx2y2   :     0.138387
      dxy     :     0.116465
      f0      :     0.006440  f :     0.077625
      f+1     :     0.005619
      f-1     :     0.007622
      f+2     :     0.009576
      f-2     :     0.001817
      f+3     :     0.024487
      f-3     :     0.022063
  2 C s       :     2.928432  s :     2.928432
      pz      :     1.084907  p :     3.091418
      px      :     0.994905
      py      :     1.011606
      dz2     :     0.042271  d :     0.310077
      dxz     :     0.079747
      dyz     :     0.019341
      dx2y2   :     0.053862
      dxy     :     0.114857
      f0      :     0.002728  f :     0.036225
      f+1     :     0.005200
      f-1     :     0.004452
      f+2     :     0.002675
      f-2     :     0.003028
      f+3     :     0.010080
      f-3     :     0.008064
  3 H s       :     0.788209  s :     0.788209
      pz      :     0.031259  p :     0.060447
      px      :     0.018504
      py      :     0.010684
  4 H s       :     0.807139  s :     0.807139
      pz      :     0.038690  p :     0.080662
      px      :     0.025260
      py      :     0.016711
  5 H s       :     0.821717  s :     0.821717
      pz      :     0.031430  p :     0.073837
      px      :     0.017435
      py      :     0.024972
  6 H s       :     0.820564  s :     0.820564
      pz      :     0.028131  p :     0.070430
      px      :     0.019140
      py      :     0.023159


                      *****************************
                      * MAYER POPULATION ANALYSIS *
                      *****************************

  NA   - Mulliken gross atomic population
  ZA   - Total nuclear charge
  QA   - Mulliken gross atomic charge
  VA   - Mayer's total valence
  BVA  - Mayer's bonded valence
  FA   - Mayer's free valence

  ATOM       NA         ZA         QA         VA         BVA        FA
  0 O      8.0761     8.0000    -0.0761     1.9593     1.1081     0.8512
  1 C      6.0767     6.0000    -0.0767     3.9545     3.8810     0.0735
  2 C      6.4053     6.0000    -0.4053     3.8491     3.0743     0.7748
  3 H      0.8445     1.0000     0.1555     0.9586     0.9083     0.0503
  4 H      0.8477     1.0000     0.1523     0.9593     0.9209     0.0384
  5 H      0.8777     1.0000     0.1223     0.9767     0.9509     0.0258
  6 H      0.8720     1.0000     0.1280     0.9770     0.9547     0.0223

  Mayer bond orders larger than 0.100000
B(  0-O ,  1-C ) :   0.9927 B(  1-C ,  2-C ) :   1.0757 B(  1-C ,  3-H ) :   0.8933 
B(  1-C ,  4-H ) :   0.9190 B(  2-C ,  5-H ) :   0.9439 B(  2-C ,  6-H ) :   0.9465 



-------
TIMINGS
-------

Total TD-DFT gradient time         ...        5.067 sec

Fock matrix formation       ....       0.816 sec  ( 16.1%)
  Coulomb formation         ....       0.661 sec  ( 81.1% of F)
  RI-J                      ....       0.290 sec  ( 35.6% of F)
  Chain of spheres X        ....       0.371 sec  ( 45.5% of F)
  XC integration            ....       0.154 sec  ( 18.9% of F)
Z-vector equation           ....       1.520 sec  ( 30.0%)
One electron gradient       ....       0.032 sec  (  0.6%)
Prescreening matrices       ....       0.160 sec  (  3.2%)
RI-J Coulomb gradient       ....       0.246 sec  (  4.9%)
COSX gradient               ....       0.343 sec  (  6.8%)
XC gradient                 ....       1.634 sec  ( 32.3%)

Maximum memory used throughout the entire SCFGRAD-calculation: 130.2 MB

                            ***************************************
                            *     ORCA property calculations      *
                            ***************************************

                                    ---------------------
                                    Active property flags
                                    ---------------------
   (+) Dipole Moment


------------------------------------------------------------------------------
                       ORCA ELECTRIC PROPERTIES CALCULATION
------------------------------------------------------------------------------

Dipole Moment Calculation                       ... on
Quadrupole Moment Calculation                   ... off
Polarizability Calculation                      ... off
GBWName                                         ... ox_es1_C_orca0002.gbw
Electron density                                ... ox_es1_C_orca0002.scfp
The origin for moment calculation is the CENTER OF MASS  = (-0.278860, -0.019642 -0.039319)

-------------
DIPOLE MOMENT
-------------
                                X             Y             Z
Electronic contribution:     -0.38608       1.68494      -0.00985
Nuclear contribution   :      0.59914      -2.64267      -0.05180
                        -----------------------------------------
Total Dipole Moment    :      0.21306      -0.95774      -0.06164
                        -----------------------------------------
Magnitude (a.u.)       :      0.98308
Magnitude (Debye)      :      2.49880



--------------------
Rotational spectrum 
--------------------
 
Rotational constants in cm-1:     0.922356     0.558391     0.400399 
Rotational constants in MHz : 27651.547576 16740.132762 12003.651235 

 Dipole components along the rotational axes: 
x,y,z [a.u.] :    -0.718485    -0.670802    -0.015997 
x,y,z [Debye]:    -1.826243    -1.705043    -0.040661 

 

                        *** CIS RELAXED DENSITY ***

------------------------------------------------------------------------------
                       ORCA ELECTRIC PROPERTIES CALCULATION
------------------------------------------------------------------------------

Dipole Moment Calculation                       ... on
Quadrupole Moment Calculation                   ... off
Polarizability Calculation                      ... off
GBWName                                         ... ox_es1_C_orca0002.gbw
Electron density                                ... ox_es1_C_orca0002.cisp
The origin for moment calculation is the CENTER OF MASS  = (-0.278860, -0.019642 -0.039319)

-------------
DIPOLE MOMENT
-------------
                                X             Y             Z
Electronic contribution:     -1.16822       2.07715       0.04643
Nuclear contribution   :      0.59914      -2.64267      -0.05180
                        -----------------------------------------
Total Dipole Moment    :     -0.56908      -0.56552      -0.00537
                        -----------------------------------------
Magnitude (a.u.)       :      0.80230
Magnitude (Debye)      :      2.03930



--------------------
Rotational spectrum 
--------------------
 
Rotational constants in cm-1:     0.922356     0.558391     0.400399 
Rotational constants in MHz : 27651.547576 16740.132762 12003.651235 

 Dipole components along the rotational axes: 
x,y,z [a.u.] :     0.150175    -0.788113     0.004351 
x,y,z [Debye]:     0.381713    -2.003223     0.011058 

 

Timings for individual modules:

Sum of individual times         ...        7.430 sec (=   0.124 min)
GTO integral calculation        ...        0.254 sec (=   0.004 min)   3.4 %
SCF iterations                  ...        1.145 sec (=   0.019 min)  15.4 %
CIS module                      ...        0.803 sec (=   0.013 min)  10.8 %
SCF Gradient evaluation         ...        5.228 sec (=   0.087 min)  70.4 %
                             ****ORCA TERMINATED NORMALLY****
TOTAL RUN TIME: 0 days 0 hours 0 minutes 7 seconds 783 msec
