
                                 *****************
                                 * O   R   C   A *
                                 *****************

                                            #,                                       
                                            ###                                      
                                            ####                                     
                                            #####                                    
                                            ######                                   
                                           ########,                                 
                                     ,,################,,,,,                         
                               ,,#################################,,                 
                          ,,##########################################,,             
                       ,#########################################, ''#####,          
                    ,#############################################,,   '####,        
                  ,##################################################,,,,####,       
                ,###########''''           ''''###############################       
              ,#####''   ,,,,##########,,,,          '''####'''          '####       
            ,##' ,,,,###########################,,,                        '##       
           ' ,,###''''                  '''############,,,                           
         ,,##''                                '''############,,,,        ,,,,,,###''
      ,#''                                            '''#######################'''  
     '                                                          ''''####''''         
             ,#######,   #######,   ,#######,      ##                                
            ,#'     '#,  ##    ##  ,#'     '#,    #''#        ######   ,####,        
            ##       ##  ##   ,#'  ##            #'  '#       #        #'  '#        
            ##       ##  #######   ##           ,######,      #####,   #    #        
            '#,     ,#'  ##    ##  '#,     ,#' ,#      #,         ##   #,  ,#        
             '#######'   ##     ##  '#######'  #'      '#     #####' # '####'        



                  #######################################################
                  #                        -***-                        #
                  #          Department of theory and spectroscopy      #
                  #    Directorship and core code : Frank Neese         #
                  #        Max Planck Institute fuer Kohlenforschung    #
                  #                Kaiser Wilhelm Platz 1               #
                  #                 D-45470 Muelheim/Ruhr               #
                  #                      Germany                        #
                  #                                                     #
                  #                  All rights reserved                #
                  #                        -***-                        #
                  #######################################################


                         Program Version 5.0.2 -  RELEASE  -


 With contributions from (in alphabetic order):
   Daniel Aravena         : Magnetic Suceptibility
   Michael Atanasov       : Ab Initio Ligand Field Theory (pilot matlab implementation)
   Alexander A. Auer      : GIAO ZORA, VPT2 properties, NMR spectrum
   Ute Becker             : Parallelization
   Giovanni Bistoni       : ED, misc. LED, open-shell LED, HFLD
   Martin Brehm           : Molecular dynamics
   Dmytro Bykov           : SCF Hessian
   Vijay G. Chilkuri      : MRCI spin determinant printing, contributions to CSF-ICE
   Dipayan Datta          : RHF DLPNO-CCSD density
   Achintya Kumar Dutta   : EOM-CC, STEOM-CC
   Dmitry Ganyushin       : Spin-Orbit,Spin-Spin,Magnetic field MRCI
   Miquel Garcia          : C-PCM and meta-GGA Hessian, CC/C-PCM, Gaussian charge scheme
   Yang Guo               : DLPNO-NEVPT2, F12-NEVPT2, CIM, IAO-localization
   Andreas Hansen         : Spin unrestricted coupled pair/coupled cluster methods
   Benjamin Helmich-Paris : MC-RPA, TRAH-SCF, COSX integrals
   Lee Huntington         : MR-EOM, pCC
   Robert Izsak           : Overlap fitted RIJCOSX, COSX-SCS-MP3, EOM
   Marcus Kettner         : VPT2
   Christian Kollmar      : KDIIS, OOCD, Brueckner-CCSD(T), CCSD density, CASPT2, CASPT2-K
   Simone Kossmann        : Meta GGA functionals, TD-DFT gradient, OOMP2, MP2 Hessian
   Martin Krupicka        : Initial AUTO-CI
   Lucas Lang             : DCDCAS
   Marvin Lechner         : AUTO-CI (C++ implementation), FIC-MRCC
   Dagmar Lenk            : GEPOL surface, SMD
   Dimitrios Liakos       : Extrapolation schemes; Compound Job, initial MDCI parallelization
   Dimitrios Manganas     : Further ROCIS development; embedding schemes
   Dimitrios Pantazis     : SARC Basis sets
   Anastasios Papadopoulos: AUTO-CI, single reference methods and gradients
   Taras Petrenko         : DFT Hessian,TD-DFT gradient, ASA, ECA, R-Raman, ABS, FL, XAS/XES, NRVS
   Peter Pinski           : DLPNO-MP2, DLPNO-MP2 Gradient
   Christoph Reimann      : Effective Core Potentials
   Marius Retegan         : Local ZFS, SOC
   Christoph Riplinger    : Optimizer, TS searches, QM/MM, DLPNO-CCSD(T), (RO)-DLPNO pert. Triples
   Tobias Risthaus        : Range-separated hybrids, TD-DFT gradient, RPA, STAB
   Michael Roemelt        : Original ROCIS implementation
   Masaaki Saitow         : Open-shell DLPNO-CCSD energy and density
   Barbara Sandhoefer     : DKH picture change effects
   Avijit Sen             : IP-ROCIS
   Kantharuban Sivalingam : CASSCF convergence, NEVPT2, FIC-MRCI
   Bernardo de Souza      : ESD, SOC TD-DFT
   Georgi Stoychev        : AutoAux, RI-MP2 NMR, DLPNO-MP2 response
   Willem Van den Heuvel  : Paramagnetic NMR
   Boris Wezisla          : Elementary symmetry handling
   Frank Wennmohs         : Technical directorship


 We gratefully acknowledge several colleagues who have allowed us to
 interface, adapt or use parts of their codes:
   Stefan Grimme, W. Hujo, H. Kruse, P. Pracht,  : VdW corrections, initial TS optimization,
                  C. Bannwarth, S. Ehlert          DFT functionals, gCP, sTDA/sTD-DF
   Ed Valeev, F. Pavosevic, A. Kumar             : LibInt (2-el integral package), F12 methods
   Garnet Chan, S. Sharma, J. Yang, R. Olivares  : DMRG
   Ulf Ekstrom                                   : XCFun DFT Library
   Mihaly Kallay                                 : mrcc  (arbitrary order and MRCC methods)
   Jiri Pittner, Ondrej Demel                    : Mk-CCSD
   Frank Weinhold                                : gennbo (NPA and NBO analysis)
   Christopher J. Cramer and Donald G. Truhlar   : smd solvation model
   Lars Goerigk                                  : TD-DFT with DH, B97 family of functionals
   V. Asgeirsson, H. Jonsson                     : NEB implementation
   FAccTs GmbH                                   : IRC, NEB, NEB-TS, DLPNO-Multilevel, CI-OPT
                                                   MM, QMMM, 2- and 3-layer-ONIOM, Crystal-QMMM,
                                                   LR-CPCM, SF, NACMEs, symmetry and pop. for TD-DFT,
                                                   nearIR, NL-DFT gradient (VV10), updates on ESD,
                                                   ML-optimized integration grids
   S Lehtola, MJT Oliveira, MAL Marques          : LibXC Library
   Liviu Ungur et al                             : ANISO software


 Your calculation uses the libint2 library for the computation of 2-el integrals
 For citations please refer to: http://libint.valeyev.net

 Your ORCA version has been built with support for libXC version: 5.1.0
 For citations please refer to: https://tddft.org/programs/libxc/

 This ORCA versions uses:
   CBLAS   interface :  Fast vector & matrix operations
   LAPACKE interface :  Fast linear algebra routines
   SCALAPACK package :  Parallel linear algebra routines
   Shared memory     :  Shared parallel matrices
   BLAS/LAPACK       :  OpenBLAS 0.3.15  USE64BITINT DYNAMIC_ARCH NO_AFFINITY SkylakeX SINGLE_THREADED
        Core in use  :  SkylakeX
   Copyright (c) 2011-2014, The OpenBLAS Project


Your calculation utilizes the atom-pairwise dispersion correction
with the Becke-Johnson damping scheme (D3BJ)
Cite in your paper:
S.Grimme, S.Ehrlich, L.Goerigk, J Comput Chem, (2011), 32, 1456–1465 
S.Grimme, J.Antony, S.Ehrlich and H.Krieg, J.Chem.Phys., 132, (2010), 154104 
   

================================================================================

----- Orbital basis set information -----
Your calculation utilizes the basis: def2-TZVP
   F. Weigend and R. Ahlrichs, Phys. Chem. Chem. Phys. 7, 3297 (2005).

----- AuxJ basis set information -----
Your calculation utilizes the auxiliary basis: def2/J
   F. Weigend, Phys. Chem. Chem. Phys. 8, 1057 (2006).

================================================================================
                                        WARNINGS
                       Please study these warnings very carefully!
================================================================================

INFO   : Checking CIS options ...

WARNING: CIS/ROCIS methods need fully converged wavefunctions
  ===> : Setting SCFConvForced true
         You can overwrite this default with %scf ConvForced false 


INFO   : the flag for use of the SHARK integral package has been found!

================================================================================
                                       INPUT FILE
================================================================================
NAME = ox_es1_A_orca0002.inp
|  1> ! engrad PBE0 D3BJ def2-TZVP  
|  2> %pal nprocs 8 end
|  3> %maxcore 3000
|  4> 
|  5> %tddft
|  6>   nroots 1
|  7>   tda true
|  8>   Iroot 1
|  9>   end 
| 10> *xyz 0 1 
| 11> O   -0.005782364119412027 0.7518691252205356 -0.07392598951837137
| 12> C   -0.7648818004197354 -0.47005242854798934 0.05285611131094579
| 13> C   0.746070454478423 -0.5351724977681367 0.01620419846973975
| 14> H   -1.2830770440208157 -0.702116910015298 0.9505600344420434
| 15> H   -1.2122727938752025 -0.6217069040441902 -0.961937096161132
| 16> H   1.2483622012074391 -0.6517076884298219 -0.871198963643882
| 17> H   1.2398641581077356 -0.6775537588331908 0.8646594212996985
| 18> *
| 19> 
| 20>                          ****END OF INPUT****
================================================================================

                     *******************************
                     * Energy+Gradient Calculation *
                     *******************************

---------------------------------
CARTESIAN COORDINATES (ANGSTROEM)
---------------------------------
  O     -0.005782    0.751869   -0.073926
  C     -0.764882   -0.470052    0.052856
  C      0.746070   -0.535172    0.016204
  H     -1.283077   -0.702117    0.950560
  H     -1.212273   -0.621707   -0.961937
  H      1.248362   -0.651708   -0.871199
  H      1.239864   -0.677554    0.864659

----------------------------
CARTESIAN COORDINATES (A.U.)
----------------------------
  NO LB      ZA    FRAG     MASS         X           Y           Z
   0 O     8.0000    0    15.999   -0.010927    1.420827   -0.139700
   1 C     6.0000    0    12.011   -1.445417   -0.888270    0.099884
   2 C     6.0000    0    12.011    1.409869   -1.011329    0.030621
   3 H     1.0000    0     1.008   -2.424664   -1.326809    1.796298
   4 H     1.0000    0     1.008   -2.290864   -1.174856   -1.817798
   5 H     1.0000    0     1.008    2.359063   -1.231549   -1.646327
   6 H     1.0000    0     1.008    2.343004   -1.280391    1.633970

--------------------------------
INTERNAL COORDINATES (ANGSTROEM)
--------------------------------
 O      0   0   0     0.000000000000     0.00000000     0.00000000
 C      1   0   0     1.444090696198     0.00000000     0.00000000
 C      1   2   0     1.493279026480    61.97059549     0.00000000
 H      2   1   3     1.062192340235   121.03142984   109.18553013
 H      2   1   3     1.119358313899   104.19042727   252.70701184
 H      3   1   2     1.026334166645   106.98293512   116.32306717
 H      3   1   2     0.991958119274   115.21231337   250.59757375

---------------------------
INTERNAL COORDINATES (A.U.)
---------------------------
 O      0   0   0     0.000000000000     0.00000000     0.00000000
 C      1   0   0     2.728935928358     0.00000000     0.00000000
 C      1   2   0     2.821888401576    61.97059549     0.00000000
 H      2   1   3     2.007252624594   121.03142984   109.18553013
 H      2   1   3     2.115280658997   104.19042727   252.70701184
 H      3   1   2     1.939490496846   106.98293512   116.32306717
 H      3   1   2     1.874529181748   115.21231337   250.59757375

---------------------
BASIS SET INFORMATION
---------------------
There are 3 groups of distinct atoms

 Group   1 Type O   : 11s6p2d1f contracted to 5s3p2d1f pattern {62111/411/11/1}
 Group   2 Type C   : 11s6p2d1f contracted to 5s3p2d1f pattern {62111/411/11/1}
 Group   3 Type H   : 5s1p contracted to 3s1p pattern {311/1}

Atom   0O    basis set group =>   1
Atom   1C    basis set group =>   2
Atom   2C    basis set group =>   2
Atom   3H    basis set group =>   3
Atom   4H    basis set group =>   3
Atom   5H    basis set group =>   3
Atom   6H    basis set group =>   3
---------------------------------
AUXILIARY/J BASIS SET INFORMATION
---------------------------------
There are 3 groups of distinct atoms

 Group   1 Type O   : 12s5p4d2f1g contracted to 6s4p3d1f1g pattern {711111/2111/211/2/1}
 Group   2 Type C   : 12s5p4d2f1g contracted to 6s4p3d1f1g pattern {711111/2111/211/2/1}
 Group   3 Type H   : 5s2p1d contracted to 3s1p1d pattern {311/2/1}

Atom   0O    basis set group =>   1
Atom   1C    basis set group =>   2
Atom   2C    basis set group =>   2
Atom   3H    basis set group =>   3
Atom   4H    basis set group =>   3
Atom   5H    basis set group =>   3
Atom   6H    basis set group =>   3

Checking for AutoStart:
The File: ox_es1_A_orca0002.gbw exists
Trying to determine its content:
     ... Fine, the file contains calculation information
     ... Fine, the calculation information was read
     ... Fine, the file contains a basis set
     ... Fine, the basis set was read
     ... Fine, the file contains a geometry
     ... Fine, the geometry was read
     ... Fine, the file contains a set of orbitals
     ... Fine, the orbitals can be read
     => possible old guess file was deleted
     => GBW file was renamed to GES file
     => GES file is set as startup file
     => Guess is set to MORead
     ... now leaving AutoStart



           ************************************************************
           *        Program running with 8 parallel MPI-processes     *
           *              working on a common directory               *
           ************************************************************
------------------------------------------------------------------------------
                           ORCA GTO INTEGRAL CALCULATION
                           -- RI-GTO INTEGRALS CHOSEN --
------------------------------------------------------------------------------
------------------------------------------------------------------------------
                   ___                                                        
                  /   \      - P O W E R E D   B Y -                         
                 /     \                                                     
                 |  |  |   _    _      __       _____    __    __             
                 |  |  |  | |  | |    /  \     |  _  \  |  |  /  |          
                  \  \/   | |  | |   /    \    | | | |  |  | /  /          
                 / \  \   | |__| |  /  /\  \   | |_| |  |  |/  /          
                |  |  |   |  __  | /  /__\  \  |    /   |      \           
                |  |  |   | |  | | |   __   |  |    \   |  |\   \          
                \     /   | |  | | |  |  |  |  | |\  \  |  | \   \       
                 \___/    |_|  |_| |__|  |__|  |_| \__\ |__|  \__/        
                                                                              
                      - O R C A' S   B I G   F R I E N D -                    
                                      &                                       
                       - I N T E G R A L  F E E D E R -                       
                                                                              
 v1 FN, 2020, v2 2021                                                         
------------------------------------------------------------------------------


Reading SHARK input file ox_es1_A_orca0002.SHARKINP.tmp ... ok
----------------------
SHARK INTEGRAL PACKAGE
----------------------

Number of atoms                             ...      7
Number of basis functions                   ...    117
Number of shells                            ...     49
Maximum angular momentum                    ...      3
Integral batch strategy                     ... SHARK/LIBINT Hybrid
RI-J (if used) integral strategy            ... SPLIT-RIJ (Revised 2003 algorithm where possible)
Printlevel                                  ...      1
Contraction scheme used                     ... SEGMENTED contraction
Coulomb Range Separation                    ... NOT USED
Exchange Range Separation                   ... NOT USED
Finite Nucleus Model                        ... NOT USED
Auxiliary Coulomb fitting basis             ... AVAILABLE
   # of basis functions in Aux-J            ...    191
   # of shells in Aux-J                     ...     65
   Maximum angular momentum in Aux-J        ...      4
Auxiliary J/K fitting basis                 ... NOT available
Auxiliary Correlation fitting basis         ... NOT available
Auxiliary 'external' fitting basis          ... NOT available
Integral threshold                          ...     2.500000e-11
Primitive cut-off                           ...     2.500000e-12
Primitive pair pre-selection threshold      ...     2.500000e-12

Calculating pre-screening integrals         ... done (  0.0 sec) Dimension = 49
Organizing shell pair data                  ... done (  0.0 sec)
Shell pair information
Total number of shell pairs                 ...      1225
Shell pairs after pre-screening             ...      1220
Total number of primitive shell pairs       ...      3648
Primitive shell pairs kept                  ...      3147
          la=0 lb=0:    373 shell pairs
          la=1 lb=0:    351 shell pairs
          la=1 lb=1:     91 shell pairs
          la=2 lb=0:    162 shell pairs
          la=2 lb=1:     78 shell pairs
          la=2 lb=2:     21 shell pairs
          la=3 lb=0:     81 shell pairs
          la=3 lb=1:     39 shell pairs
          la=3 lb=2:     18 shell pairs
          la=3 lb=3:      6 shell pairs

Calculating one electron integrals          ... done (  0.0 sec)
Calculating RI/J V-Matrix + Cholesky decomp.... done (  0.0 sec)
Calculating Nuclear repulsion               ... done (  0.0 sec) ENN=     74.504929441110 Eh

SHARK setup successfully completed in   0.2 seconds

Maximum memory used throughout the entire GTOINT-calculation: 14.9 MB


           ************************************************************
           *        Program running with 8 parallel MPI-processes     *
           *              working on a common directory               *
           ************************************************************
-------------------------------------------------------------------------------
                                 ORCA SCF
-------------------------------------------------------------------------------

------------
SCF SETTINGS
------------
Hamiltonian:
 Density Functional     Method          .... DFT(GTOs)
 Exchange Functional    Exchange        .... PBE
   PBE kappa parameter   XKappa         ....  0.804000
   PBE mue parameter    XMuePBE         ....  0.219520
 Correlation Functional Correlation     .... PBE
   PBE beta parameter  CBetaPBE         ....  0.066725
 LDA part of GGA corr.  LDAOpt          .... PW91-LDA
 Gradients option       PostSCFGGA      .... off
 Hybrid DFT is turned on
   Fraction HF Exchange ScalHFX         ....  0.250000
   Scaling of DF-GGA-X  ScalDFX         ....  0.750000
   Scaling of DF-GGA-C  ScalDFC         ....  1.000000
   Scaling of DF-LDA-C  ScalLDAC        ....  1.000000
   Perturbative correction              ....  0.000000
   Density functional embedding theory  .... OFF
   NL short-range parameter             ....  6.900000
 RI-approximation to the Coulomb term is turned on
   Number of AuxJ basis functions       .... 191
   RIJ-COSX (HFX calculated with COS-X)).... on


General Settings:
 Integral files         IntName         .... ox_es1_A_orca0002
 Hartree-Fock type      HFTyp           .... RHF
 Total Charge           Charge          ....    0
 Multiplicity           Mult            ....    1
 Number of Electrons    NEL             ....   24
 Basis Dimension        Dim             ....  117
 Nuclear Repulsion      ENuc            ....     74.5049294411 Eh

Convergence Acceleration:
 DIIS                   CNVDIIS         .... on
   Start iteration      DIISMaxIt       ....    12
   Startup error        DIISStart       ....  0.200000
   # of expansion vecs  DIISMaxEq       ....     5
   Bias factor          DIISBfac        ....   1.050
   Max. coefficient     DIISMaxC        ....  10.000
 Trust-Rad. Augm. Hess. CNVTRAH         .... auto
   Auto Start mean grad. ratio tolernc. ....  1.125000
   Auto Start start iteration           ....     1
   Auto Start num. interpolation iter.  ....    10
   Max. Number of Micro iterations      ....    16
   Max. Number of Macro iterations      .... Maxiter - #DIIS iter
   Number of Davidson start vectors     ....     2
   Converg. threshold I  (grad. norm)   ....   1.000e-05
   Converg. threshold II (energy diff.) ....   1.000e-08
   Grad. Scal. Fac. for Micro threshold ....   0.100
   Minimum threshold for Micro iter.    ....   0.010
   NR start threshold (gradient norm)   ....   0.001
   Initial trust radius                 ....   0.400
   Minimum AH scaling param. (alpha)    ....   1.000
   Maximum AH scaling param. (alpha)    .... 1000.000
   Orbital update algorithm             .... Taylor
   White noise on init. David. guess    .... on
   Maximum white noise                  ....   0.010
   Quad. conv. algorithm                .... NR
 SOSCF                  CNVSOSCF        .... on
   Start iteration      SOSCFMaxIt      ....   150
   Startup grad/error   SOSCFStart      ....  0.003300
 Level Shifting         CNVShift        .... on
   Level shift para.    LevelShift      ....    0.2500
   Turn off err/grad.   ShiftErr        ....    0.0010
 Zerner damping         CNVZerner       .... off
 Static damping         CNVDamp         .... on
   Fraction old density DampFac         ....    0.7000
   Max. Damping (<1)    DampMax         ....    0.9800
   Min. Damping (>=0)   DampMin         ....    0.0000
   Turn off err/grad.   DampErr         ....    0.1000
 Fernandez-Rico         CNVRico         .... off

SCF Procedure:
 Maximum # iterations   MaxIter         ....   125
 SCF integral mode      SCFMode         .... Direct
   Integral package                     .... SHARK and LIBINT hybrid scheme
 Reset frequency        DirectResetFreq ....    20
 Integral Threshold     Thresh          ....  2.500e-11 Eh
 Primitive CutOff       TCut            ....  2.500e-12 Eh

Convergence Tolerance:
 Convergence Check Mode ConvCheckMode   .... Total+1el-Energy
 Convergence forced     ConvForced      .... 1
 Energy Change          TolE            ....  1.000e-08 Eh
 1-El. energy change                    ....  1.000e-05 Eh
 Orbital Gradient       TolG            ....  1.000e-05
 Orbital Rotation angle TolX            ....  1.000e-05
 DIIS Error             TolErr          ....  5.000e-07


Diagonalization of the overlap matrix:
Smallest eigenvalue                        ... 5.407e-04
Time for diagonalization                   ...    0.021 sec
Threshold for overlap eigenvalues          ... 1.000e-08
Number of eigenvalues below threshold      ... 0
Time for construction of square roots      ...    0.003 sec
Total time needed                          ...    0.024 sec

---------------------
INITIAL GUESS: MOREAD
---------------------
Guess MOs are being read from file: ox_es1_A_orca0002.ges
Input Geometry matches current geometry (good)
Input basis set matches current basis set (good)
MOs were renormalized
MOs were reorthogonalized (Cholesky)
                      ------------------
                      INITIAL GUESS DONE (   0.0 sec)
                      ------------------
-------------------
DFT GRID GENERATION
-------------------

General Integration Accuracy     IntAcc      ... 4.388
Radial Grid Type                 RadialGrid  ... OptM3 with GC (2021)
Angular Grid (max. ang.)         AngularGrid ... 4 (Lebedev-302)
Angular grid pruning method      GridPruning ... 4 (adaptive)
Weight generation scheme         WeightScheme... Becke
Basis function cutoff            BFCut       ... 1.0000e-11
Integration weight cutoff        WCut        ... 1.0000e-14
Angular grids for H and He will be reduced by one unit
Partially contracted basis set               ... off
Rotationally invariant grid construction     ... off

Total number of grid points                  ...    31301
Total number of batches                      ...      492
Average number of points per batch           ...       63
Average number of grid points per atom       ...     4472
Time for grid setup =    0.132 sec

--------------------
COSX GRID GENERATION
--------------------

GRIDX 1
-------
General Integration Accuracy     IntAcc      ... 3.816
Radial Grid Type                 RadialGrid  ... OptM3 with GC (2021)
Angular Grid (max. ang.)         AngularGrid ... 1 (Lebedev-50)
Angular grid pruning method      GridPruning ... 4 (adaptive)
Weight generation scheme         WeightScheme... Becke
Basis function cutoff            BFCut       ... 1.0000e-11
Integration weight cutoff        WCut        ... 1.0000e-14
Angular grids for H and He will be reduced by one unit
Partially contracted basis set               ... on
Rotationally invariant grid construction     ... off

Total number of grid points                  ...     4039
Total number of batches                      ...       67
Average number of points per batch           ...       60
Average number of grid points per atom       ...      577
UseSFitting                                  ... on

GRIDX 2
-------
General Integration Accuracy     IntAcc      ... 4.020
Radial Grid Type                 RadialGrid  ... OptM3 with GC (2021)
Angular Grid (max. ang.)         AngularGrid ... 2 (Lebedev-110)
Angular grid pruning method      GridPruning ... 4 (adaptive)
Weight generation scheme         WeightScheme... Becke
Basis function cutoff            BFCut       ... 1.0000e-11
Integration weight cutoff        WCut        ... 1.0000e-14
Angular grids for H and He will be reduced by one unit
Partially contracted basis set               ... on
Rotationally invariant grid construction     ... off

Total number of grid points                  ...     8715
Total number of batches                      ...      140
Average number of points per batch           ...       62
Average number of grid points per atom       ...     1245
UseSFitting                                  ... on

GRIDX 3
-------
General Integration Accuracy     IntAcc      ... 4.338
Radial Grid Type                 RadialGrid  ... OptM3 with GC (2021)
Angular Grid (max. ang.)         AngularGrid ... 3 (Lebedev-194)
Angular grid pruning method      GridPruning ... 4 (adaptive)
Weight generation scheme         WeightScheme... Becke
Basis function cutoff            BFCut       ... 1.0000e-11
Integration weight cutoff        WCut        ... 1.0000e-14
Angular grids for H and He will be reduced by one unit
Partially contracted basis set               ... on
Rotationally invariant grid construction     ... off

Total number of grid points                  ...    19230
Total number of batches                      ...      305
Average number of points per batch           ...       63
Average number of grid points per atom       ...     2747
UseSFitting                                  ... on

Time for X-Grid setup             =    0.077 sec

--------------
SCF ITERATIONS
--------------
ITER       Energy         Delta-E        Max-DP      RMS-DP      [F,P]     Damp
               ***  Starting incremental Fock matrix formation  ***
                      *** Initiating the SOSCF procedure ***
                      *** Re-Reading the Fockian *** 
                      *** Removing any level shift *** 
ITER      Energy       Delta-E        Grad      Rot      Max-DP    RMS-DP
  0   -153.65363034 -153.6536303440  0.000001  0.000001  0.000001  0.000000
               *** Restarting incremental Fock matrix formation ***
                  ***Gradient check signals convergence***
              ***Rediagonalizing the Fockian in SOSCF/NRSCF***

               *****************************************************
               *                     SUCCESS                       *
               *           SCF CONVERGED AFTER   1 CYCLES          *
               *****************************************************

Old exchange energy                            =     -4.999129926 Eh
New exchange energy                            =     -4.999126034 Eh
Exchange energy change after final integration =      0.000003892 Eh
Total energy after final integration           =   -153.653626452 Eh
Final COS-X integration done in                =     0.248 sec

----------------
TOTAL SCF ENERGY
----------------

Total Energy       :         -153.65362645 Eh           -4181.12774 eV

Components:
Nuclear Repulsion  :           74.50492944 Eh            2027.38220 eV
Electronic Energy  :         -228.15855589 Eh           -6208.50994 eV
One Electron Energy:         -355.74089989 Eh           -9680.20202 eV
Two Electron Energy:          127.58234400 Eh            3471.69208 eV
Max COSX asymmetry :            0.00000164 Eh               0.00004 eV

Virial components:
Potential Energy   :         -306.68661027 Eh           -8345.36694 eV
Kinetic Energy     :          153.03298381 Eh            4164.23920 eV
Virial Ratio       :            2.00405561


DFT components:
N(Alpha)           :       12.000002797913 electrons
N(Beta)            :       12.000002797913 electrons
N(Total)           :       24.000005595827 electrons
E(X)               :      -14.969498514153 Eh       
E(C)               :       -0.789000801156 Eh       
E(XC)              :      -15.758499315309 Eh       
DFET-embed. en.    :        0.000000000000 Eh       

---------------
SCF CONVERGENCE
---------------

  Last Energy change         ...   -1.2307e-11  Tolerance :   1.0000e-08
  Last MAX-Density change    ...    1.5543e-15  Tolerance :   1.0000e-07
  Last RMS-Density change    ...    2.4982e-17  Tolerance :   5.0000e-09
  Last Orbital Gradient      ...    4.3480e-07  Tolerance :   1.0000e-05
  Last Orbital Rotation      ...    1.0424e-06  Tolerance :   1.0000e-05

             **** THE GBW FILE WAS UPDATED (ox_es1_A_orca0002.gbw) ****
             **** DENSITY ox_es1_A_orca0002.scfp WAS UPDATED ****
             **** ENERGY FILE WAS UPDATED (ox_es1_A_orca0002.en.tmp) ****
             **** THE GBW FILE WAS UPDATED (ox_es1_A_orca0002.gbw) ****
             **** DENSITY ox_es1_A_orca0002.scfp WAS UPDATED ****
----------------
ORBITAL ENERGIES
----------------

  NO   OCC          E(Eh)            E(eV) 
   0   2.0000     -19.216848      -522.9170 
   1   2.0000     -10.281789      -279.7817 
   2   2.0000     -10.263538      -279.2851 
   3   2.0000      -1.077028       -29.3074 
   4   2.0000      -0.706324       -19.2200 
   5   2.0000      -0.661600       -18.0031 
   6   2.0000      -0.536088       -14.5877 
   7   2.0000      -0.489039       -13.3074 
   8   2.0000      -0.427364       -11.6292 
   9   2.0000      -0.390757       -10.6330 
  10   2.0000      -0.326764        -8.8917 
  11   2.0000      -0.285528        -7.7696 
  12   0.0000       0.063615         1.7311 
  13   0.0000       0.066458         1.8084 
  14   0.0000       0.077013         2.0956 
  15   0.0000       0.103213         2.8086 
  16   0.0000       0.108462         2.9514 
  17   0.0000       0.154418         4.2019 
  18   0.0000       0.189389         5.1535 
  19   0.0000       0.205190         5.5835 
  20   0.0000       0.267289         7.2733 
  21   0.0000       0.272286         7.4093 
  22   0.0000       0.293829         7.9955 
  23   0.0000       0.314749         8.5648 
  24   0.0000       0.393561        10.7093 
  25   0.0000       0.396254        10.7826 
  26   0.0000       0.409371        11.1395 
  27   0.0000       0.440614        11.9897 
  28   0.0000       0.453057        12.3283 
  29   0.0000       0.475928        12.9507 
  30   0.0000       0.516567        14.0565 
  31   0.0000       0.521909        14.2019 
  32   0.0000       0.558674        15.2023 
  33   0.0000       0.692712        18.8497 
  34   0.0000       0.712604        19.3910 
  35   0.0000       0.730342        19.8736 
  36   0.0000       0.828034        22.5319 
  37   0.0000       0.837177        22.7808 
  38   0.0000       0.890360        24.2279 
  39   0.0000       0.925714        25.1900 
  40   0.0000       1.008984        27.4559 
  41   0.0000       1.024147        27.8685 
  42   0.0000       1.042146        28.3582 
  43   0.0000       1.079391        29.3717 
  44   0.0000       1.160543        31.5800 
  45   0.0000       1.345859        36.6227 
  46   0.0000       1.460704        39.7478 
  47   0.0000       1.475839        40.1596 
  48   0.0000       1.502374        40.8817 
  49   0.0000       1.534442        41.7543 
  50   0.0000       1.614219        43.9251 
  51   0.0000       1.644642        44.7530 
  52   0.0000       1.676966        45.6326 
  53   0.0000       1.712102        46.5887 
  54   0.0000       1.791912        48.7604 
  55   0.0000       1.824662        49.6516 
  56   0.0000       1.839753        50.0622 
  57   0.0000       1.879988        51.1571 
  58   0.0000       1.907703        51.9112 
  59   0.0000       1.968775        53.5731 
  60   0.0000       2.154902        58.6379 
  61   0.0000       2.186582        59.4999 
  62   0.0000       2.216661        60.3184 
  63   0.0000       2.228448        60.6392 
  64   0.0000       2.263812        61.6015 
  65   0.0000       2.441159        66.4273 
  66   0.0000       2.477249        67.4094 
  67   0.0000       2.492504        67.8245 
  68   0.0000       2.574348        70.0516 
  69   0.0000       2.605679        70.9041 
  70   0.0000       2.650399        72.1210 
  71   0.0000       2.657308        72.3090 
  72   0.0000       2.703746        73.5727 
  73   0.0000       2.745964        74.7215 
  74   0.0000       2.755433        74.9791 
  75   0.0000       2.786106        75.8138 
  76   0.0000       2.895951        78.8028 
  77   0.0000       2.958244        80.4979 
  78   0.0000       2.999234        81.6133 
  79   0.0000       3.006969        81.8238 
  80   0.0000       3.031725        82.4974 
  81   0.0000       3.145347        85.5892 
  82   0.0000       3.169081        86.2351 
  83   0.0000       3.236859        88.0794 
  84   0.0000       3.286264        89.4238 
  85   0.0000       3.339779        90.8800 
  86   0.0000       3.363413        91.5231 
  87   0.0000       3.407388        92.7197 
  88   0.0000       3.583648        97.5160 
  89   0.0000       3.597653        97.8971 
  90   0.0000       3.629995        98.7772 
  91   0.0000       3.692134       100.4681 
  92   0.0000       3.856456       104.9395 
  93   0.0000       3.957056       107.6770 
  94   0.0000       4.023539       109.4861 
  95   0.0000       4.192752       114.0906 
  96   0.0000       4.254302       115.7654 
  97   0.0000       4.342660       118.1698 
  98   0.0000       4.428689       120.5108 
  99   0.0000       4.623660       125.8162 
 100   0.0000       4.766554       129.7045 
 101   0.0000       4.816632       131.0672 
 102   0.0000       5.288319       143.9025 
 103   0.0000       5.436281       147.9287 
 104   0.0000       5.649229       153.7233 
 105   0.0000       5.718881       155.6187 
 106   0.0000       5.744623       156.3191 
 107   0.0000       5.835064       158.7802 
 108   0.0000       5.994459       163.1175 
 109   0.0000       6.593417       179.4160 
 110   0.0000       6.639183       180.6614 
 111   0.0000       6.784509       184.6159 
 112   0.0000       6.965258       189.5343 
 113   0.0000       7.197154       195.8445 
 114   0.0000      22.278308       606.2236 
 115   0.0000      22.487539       611.9171 
 116   0.0000      43.837280      1192.8730 

                    ********************************
                    * MULLIKEN POPULATION ANALYSIS *
                    ********************************

-----------------------
MULLIKEN ATOMIC CHARGES
-----------------------
   0 O :   -0.326150
   1 C :   -0.060421
   2 C :   -0.103441
   3 H :    0.125269
   4 H :    0.111924
   5 H :    0.128591
   6 H :    0.124228
Sum of atomic charges:    0.0000000

--------------------------------
MULLIKEN REDUCED ORBITAL CHARGES
--------------------------------
  0 O s       :     3.863729  s :     3.863729
      pz      :     1.858223  p :     4.421505
      px      :     1.316714
      py      :     1.246567
      dz2     :     0.005323  d :     0.038975
      dxz     :     0.002574
      dyz     :     0.005999
      dx2y2   :     0.011015
      dxy     :     0.014064
      f0      :     0.000226  f :     0.001942
      f+1     :     0.000175
      f-1     :     0.000419
      f+2     :     0.000082
      f-2     :     0.000202
      f+3     :     0.000338
      f-3     :     0.000499
  1 C s       :     3.233550  s :     3.233550
      pz      :     1.028492  p :     2.706133
      px      :     0.894565
      py      :     0.783076
      dz2     :     0.008014  d :     0.109522
      dxz     :     0.024541
      dyz     :     0.029257
      dx2y2   :     0.027592
      dxy     :     0.020118
      f0      :     0.001651  f :     0.011216
      f+1     :     0.001414
      f-1     :     0.000598
      f+2     :     0.001161
      f-2     :     0.001612
      f+3     :     0.002004
      f-3     :     0.002776
  2 C s       :     3.229647  s :     3.229647
      pz      :     1.067138  p :     2.764289
      px      :     0.906607
      py      :     0.790544
      dz2     :     0.007192  d :     0.099102
      dxz     :     0.022583
      dyz     :     0.025505
      dx2y2   :     0.026181
      dxy     :     0.017640
      f0      :     0.001402  f :     0.010403
      f+1     :     0.001451
      f-1     :     0.000475
      f+2     :     0.001229
      f-2     :     0.001312
      f+3     :     0.002036
      f-3     :     0.002499
  3 H s       :     0.852557  s :     0.852557
      pz      :     0.011204  p :     0.022175
      px      :     0.006740
      py      :     0.004230
  4 H s       :     0.867230  s :     0.867230
      pz      :     0.011918  p :     0.020846
      px      :     0.004988
      py      :     0.003941
  5 H s       :     0.848155  s :     0.848155
      pz      :     0.011542  p :     0.023254
      px      :     0.006760
      py      :     0.004952
  6 H s       :     0.851859  s :     0.851859
      pz      :     0.011287  p :     0.023912
      px      :     0.007464
      py      :     0.005161


                     *******************************
                     * LOEWDIN POPULATION ANALYSIS *
                     *******************************

----------------------
LOEWDIN ATOMIC CHARGES
----------------------
   0 O :    0.068482
   1 C :   -0.279508
   2 C :   -0.223044
   3 H :    0.109850
   4 H :    0.129269
   5 H :    0.104480
   6 H :    0.090471

-------------------------------
LOEWDIN REDUCED ORBITAL CHARGES
-------------------------------
  0 O s       :     3.424281  s :     3.424281
      pz      :     1.754548  p :     4.417962
      px      :     1.310182
      py      :     1.353232
      dz2     :     0.011077  d :     0.083646
      dxz     :     0.007167
      dyz     :     0.013070
      dx2y2   :     0.028309
      dxy     :     0.024023
      f0      :     0.000528  f :     0.005629
      f+1     :     0.000237
      f-1     :     0.000798
      f+2     :     0.000173
      f-2     :     0.000830
      f+3     :     0.001055
      f-3     :     0.002007
  1 C s       :     2.843768  s :     2.843768
      pz      :     1.054975  p :     2.912047
      px      :     1.015855
      py      :     0.841217
      dz2     :     0.058604  d :     0.455296
      dxz     :     0.115679
      dyz     :     0.081845
      dx2y2   :     0.102532
      dxy     :     0.096636
      f0      :     0.010334  f :     0.068398
      f+1     :     0.005425
      f-1     :     0.005455
      f+2     :     0.006967
      f-2     :     0.007236
      f+3     :     0.014689
      f-3     :     0.018292
  2 C s       :     2.819923  s :     2.819923
      pz      :     1.079999  p :     2.925736
      px      :     1.019518
      py      :     0.826219
      dz2     :     0.054116  d :     0.416413
      dxz     :     0.117003
      dyz     :     0.066168
      dx2y2   :     0.095201
      dxy     :     0.083925
      f0      :     0.008023  f :     0.060973
      f+1     :     0.005903
      f-1     :     0.005167
      f+2     :     0.007543
      f-2     :     0.005201
      f+3     :     0.013000
      f-3     :     0.016135
  3 H s       :     0.823451  s :     0.823451
      pz      :     0.034551  p :     0.066698
      px      :     0.019135
      py      :     0.013012
  4 H s       :     0.813289  s :     0.813289
      pz      :     0.033326  p :     0.057442
      px      :     0.013163
      py      :     0.010953
  5 H s       :     0.822892  s :     0.822892
      pz      :     0.036661  p :     0.072628
      px      :     0.020330
      py      :     0.015637
  6 H s       :     0.830690  s :     0.830690
      pz      :     0.038266  p :     0.078839
      px      :     0.023475
      py      :     0.017098


                      *****************************
                      * MAYER POPULATION ANALYSIS *
                      *****************************

  NA   - Mulliken gross atomic population
  ZA   - Total nuclear charge
  QA   - Mulliken gross atomic charge
  VA   - Mayer's total valence
  BVA  - Mayer's bonded valence
  FA   - Mayer's free valence

  ATOM       NA         ZA         QA         VA         BVA        FA
  0 O      8.3262     8.0000    -0.3262     1.9643     1.9643    -0.0000
  1 C      6.0604     6.0000    -0.0604     3.9786     3.9786     0.0000
  2 C      6.1034     6.0000    -0.1034     3.9708     3.9708    -0.0000
  3 H      0.8747     1.0000     0.1253     0.9529     0.9529     0.0000
  4 H      0.8881     1.0000     0.1119     0.9646     0.9646     0.0000
  5 H      0.8714     1.0000     0.1286     0.9672     0.9672     0.0000
  6 H      0.8758     1.0000     0.1242     0.9634     0.9634     0.0000

  Mayer bond orders larger than 0.100000
B(  0-O ,  1-C ) :   1.0057 B(  0-O ,  2-C ) :   0.9579 B(  1-C ,  2-C ) :   1.0625 
B(  1-C ,  3-H ) :   0.9418 B(  1-C ,  4-H ) :   0.9603 B(  2-C ,  5-H ) :   0.9675 
B(  2-C ,  6-H ) :   0.9648 

-------
TIMINGS
-------

Total SCF time: 0 days 0 hours 0 min 1 sec 

Total time                  ....       1.181 sec
Sum of individual times     ....       1.045 sec  ( 88.5%)

Fock matrix formation       ....       0.808 sec  ( 68.4%)
  Split-RI-J                ....       0.193 sec  ( 24.0% of F)
  Chain of spheres X        ....       0.515 sec  ( 63.7% of F)
  XC integration            ....       0.065 sec  (  8.0% of F)
    Basis function eval.    ....       0.017 sec  ( 26.3% of XC)
    Density eval.           ....       0.014 sec  ( 21.0% of XC)
    XC-Functional eval.     ....       0.006 sec  (  9.5% of XC)
    XC-Potential eval.      ....       0.020 sec  ( 31.0% of XC)
Diagonalization             ....       0.002 sec  (  0.2%)
Density matrix formation    ....       0.000 sec  (  0.0%)
Population analysis         ....       0.004 sec  (  0.3%)
Initial guess               ....       0.018 sec  (  1.6%)
Orbital Transformation      ....       0.000 sec  (  0.0%)
Orbital Orthonormalization  ....       0.001 sec  (  0.1%)
DIIS solution               ....       0.001 sec  (  0.1%)
SOSCF solution              ....       0.002 sec  (  0.2%)
Grid generation             ....       0.209 sec  ( 17.7%)

Maximum memory used throughout the entire SCF-calculation: 61.1 MB


           ************************************************************
           *        Program running with 8 parallel MPI-processes     *
           *              working on a common directory               *
           ************************************************************
------------------------------------------------------------------------------
                        ORCA TD-DFT/TDA CALCULATION
------------------------------------------------------------------------------

Input orbitals are from        ... ox_es1_A_orca0002.gbw
CI-vector output               ... ox_es1_A_orca0002.cis
Tamm-Dancoff approximation     ... operative
CIS-Integral strategy          ... AO-integrals
Integral handling              ... AO integral Direct
Max. core memory used          ... 3000 MB
Reference state                ... RHF
Generation of triplets         ... off
Follow IRoot                   ... off
Number of operators            ... 1
Orbital ranges used for CIS calculation:
 Operator 0:  Orbitals   3... 11  to  12...116
XAS localization array:
 Operator 0:  Orbitals  -1... -1

-------------------
XC-INTEGRATION GRID
-------------------

General Integration Accuracy     IntAcc      ... 3.467
Radial Grid Type                 RadialGrid  ... OptM3 with GC (2021)
Angular Grid (max. ang.)         AngularGrid ... 1 (Lebedev-50)
Angular grid pruning method      GridPruning ... 4 (adaptive)
Weight generation scheme         WeightScheme... Becke
Basis function cutoff            BFCut       ... 1.0000e-11
Integration weight cutoff        WCut        ... 1.0000e-14
Angular grids for H and He will be reduced by one unit
Partially contracted basis set               ... off
Rotationally invariant grid construction     ... off

Total number of grid points                  ...     4536
Total number of batches                      ...       75
Average number of points per batch           ...       60
Average number of grid points per atom       ...      648

---------------------
COSX-INTEGRATION GRID
---------------------

General Integration Accuracy     IntAcc      ... 3.067
Radial Grid Type                 RadialGrid  ... OptM3 with GC (2021)
Angular Grid (max. ang.)         AngularGrid ... 1 (Lebedev-50)
Angular grid pruning method      GridPruning ... 4 (adaptive)
Weight generation scheme         WeightScheme... Becke
Basis function cutoff            BFCut       ... 1.0000e-11
Integration weight cutoff        WCut        ... 1.0000e-14
Angular grids for H and He will be reduced by one unit
Partially contracted basis set               ... on
Rotationally invariant grid construction     ... off

Total number of grid points                  ...     2084
Total number of batches                      ...       37
Average number of points per batch           ...       56
Average number of grid points per atom       ...      298

---------------
TD-DFT XC SETUP
---------------

DFT calculation                         ... on
Name of the grid file                   ... ox_es1_A_orca0002.grid_cis.tmp
Exchange functional (TD-DFT)            ... PBE
   PBE kappa parameter  XKappa (TD-DFT) ...  0.804000
   PBE mue parameter   XMuePBE (TD-DFT) ...  0.219520
Correlation functional (TD-DFT)         ... PBE
   PBE beta parameter CBetaPBE (TD-DFT) ...  0.066725
 LDA part of GGA corr.  LDAOpt (TD-DFT) ... PW91-LDA
Hybrid DFT                              ... on
   Exchange mixing (TD-DFT)             ...  0.250
   GGA exch. scaling (TD-DFT)           ...  0.750
   GGA corr. scaling (TD-DFT)           ...  1.000

Building densities             ... done
Calculating rho(r) on the grid ... done
Building xc-kernel on the grid ... done
                    *** TD-DFT CALCULATION INITIALIZED ***

------------------------
DAVIDSON-DIAGONALIZATION
------------------------

Dimension of the eigenvalue problem            ...    945
Number of roots to be determined               ...      1
Maximum size of the expansion space            ...     10
Maximum number of iterations                   ...    100
Convergence tolerance for the residual         ...    2.500e-07
Convergence tolerance for the energies         ...    2.500e-07
Orthogonality tolerance                        ...    1.000e-14
Level Shift                                    ...    0.000e+00
Constructing the preconditioner                ... o.k.
Building the initial guess                     ... o.k.
Number of trial vectors determined             ...     10


                       ****Iteration    0****

   Memory handling for direct AO based CIS:
   Memory per vector needed      ...     1 MB
   Memory needed                 ...     1 MB
   Memory available              ...  3000 MB
   Number of vectors per batch   ...  3000
   Number of batches             ...     1
   Time for densities:            0.000
   Time for RI-J (Direct):        0.055
   Time for K (COSX):             0.070
   Time for XC-Integration:       0.016
   Time for Sigma-Completion:     0.000
   Size of expansion space: 3
   Lowest Energy          :     0.280063285674
   Maximum Energy change  :     0.280063285674 (vector 0)
   Maximum residual norm  :     0.003543845894

                       ****Iteration    1****
   Time for densities:            0.000
   Time for RI-J (Direct):        0.059
   Time for K (COSX):             0.051
   Time for XC-Integration:       0.006
   Time for Sigma-Completion:     0.000
   Size of expansion space: 4
   Lowest Energy          :     0.276382826245
   Maximum Energy change  :     0.003680459429 (vector 0)
   Maximum residual norm  :     0.000578453998

                       ****Iteration    2****
   Time for densities:            0.000
   Time for RI-J (Direct):        0.012
   Time for K (COSX):             0.050
   Time for XC-Integration:       0.006
   Time for Sigma-Completion:     0.000
   Size of expansion space: 5
   Lowest Energy          :     0.275623020872
   Maximum Energy change  :     0.000759805373 (vector 0)
   Maximum residual norm  :     0.000199219027

                       ****Iteration    3****
   Time for densities:            0.000
   Time for RI-J (Direct):        0.012
   Time for K (COSX):             0.050
   Time for XC-Integration:       0.006
   Time for Sigma-Completion:     0.000
   Size of expansion space: 6
   Lowest Energy          :     0.275429836178
   Maximum Energy change  :     0.000193184694 (vector 0)
   Maximum residual norm  :     0.000034489683

                       ****Iteration    4****
   Time for densities:            0.000
   Time for RI-J (Direct):        0.012
   Time for K (COSX):             0.050
   Time for XC-Integration:       0.006
   Time for Sigma-Completion:     0.000
   Size of expansion space: 7
   Lowest Energy          :     0.275372022943
   Maximum Energy change  :     0.000057813234 (vector 0)
   Maximum residual norm  :     0.000010225819

                       ****Iteration    5****
   Time for densities:            0.000
   Time for RI-J (Direct):        0.012
   Time for K (COSX):             0.050
   Time for XC-Integration:       0.006
   Time for Sigma-Completion:     0.000
   Size of expansion space: 8
   Lowest Energy          :     0.275357266390
   Maximum Energy change  :     0.000014756554 (vector 0)
   Maximum residual norm  :     0.000001295224

                       ****Iteration    6****
   Time for densities:            0.000
   Time for RI-J (Direct):        0.012
   Time for K (COSX):             0.050
   Time for XC-Integration:       0.006
   Time for Sigma-Completion:     0.000
   Size of expansion space: 9
   Lowest Energy          :     0.275355625540
   Maximum Energy change  :     0.000001640850 (vector 0)
   Maximum residual norm  :     0.000000184904

      *** CONVERGENCE OF RESIDUAL NORM REACHED ***

Storing the converged CI vectors               ... ox_es1_A_orca0002.cis1

                 *** DAVIDSON DONE ***

Total time for solving the CIS problem:     0.622sec

------------------------------------
TD-DFT/TDA EXCITED STATES (SINGLETS)
------------------------------------

the weight of the individual excitations are printed if larger than 1.0e-02

STATE  1:  E=   0.275356 au      7.493 eV    60433.6 cm**-1 <S**2> =   0.000000
    11a ->  12a  :     0.855731 (c=  0.92505749)
    11a ->  13a  :     0.080108 (c= -0.28303279)
    11a ->  14a  :     0.023528 (c= -0.15338996)
    11a ->  15a  :     0.029104 (c=  0.17059960)


-----------------------------
TD-DFT/TDA-EXCITATION SPECTRA
-----------------------------

Center of mass = ( -0.0140, -0.1166, -0.0159)
Calculating the Dipole integrals                  ... done
Transforming integrals                            ... done
Calculating the Linear Momentum integrals         ... done
Transforming integrals                            ... done
Calculating angular momentum integrals            ... done
Transforming integrals                            ... done

-----------------------------------------------------------------------------
         ABSORPTION SPECTRUM VIA TRANSITION ELECTRIC DIPOLE MOMENTS
-----------------------------------------------------------------------------
State   Energy    Wavelength  fosc         T2        TX        TY        TZ  
        (cm-1)      (nm)                 (au**2)    (au)      (au)      (au) 
-----------------------------------------------------------------------------
   1   60433.6    165.5   0.002412287   0.01314   0.02497  -0.02499  -0.10905

-----------------------------------------------------------------------------
         ABSORPTION SPECTRUM VIA TRANSITION VELOCITY DIPOLE MOMENTS
-----------------------------------------------------------------------------
State   Energy    Wavelength   fosc        P2         PX        PY        PZ  
        (cm-1)      (nm)                 (au**2)     (au)      (au)      (au) 
-----------------------------------------------------------------------------
   1   60433.6    165.5   0.013894342   0.00574  -0.00028   0.01326   0.07458

-------------------------------------------------------------------
                             CD SPECTRUM
-------------------------------------------------------------------
State  Energy     Wavelength     R         MX        MY        MZ   
       (cm-1)       (nm)     (1e40*cgs)   (au)      (au)      (au)  
-------------------------------------------------------------------
   1   60433.6    165.5     -4.57867  -0.19790   0.18130   0.00219

-------------------------------------------------------------------
         CD SPECTRUM VIA TRANSITION VELOCITY DIPOLE MOMENTS        
-------------------------------------------------------------------
State  Energy     Wavelength     R         MX        MY        MZ   
       (cm-1)       (nm)     (1e40*cgs)   (au)      (au)      (au)  
-------------------------------------------------------------------
   1   60433.6    165.5      4.49065  -0.19790   0.18130   0.00219

Total run time:        1.046 sec

           *** ORCA-CIS/TD-DFT FINISHED WITHOUT ERROR ***

Maximum memory used throughout the entire CIS-calculation: 49.4 MB

-----------------------
CIS/TD-DFT TOTAL ENERGY
-----------------------

    E(SCF)  =   -153.653626452 Eh
    DE(CIS) =      0.275355626 Eh (Root  1)
    ----------------------------- ---------
    E(tot)  =   -153.378270827 Eh



-------------------------------------------------------------------------------
                          DFT DISPERSION CORRECTION                            
                                                                               
                              DFTD3 V3.1  Rev 1                                
                          USING Becke-Johnson damping                          
-------------------------------------------------------------------------------
The PBE0 functional is recognized
Active option DFTDOPT                   ...         4   

molecular C6(AA) [au] = 350.852584 


            DFT-D V3
 parameters
 s6 scaling factor         :     1.0000 
 a1 scaling factor         :     0.4145 
 s8 scaling factor         :     1.2177 
 a2 scaling factor         :     4.8593 
 ad hoc parameters k1-k3   :    16.0000     1.3333    -4.0000 

 Edisp/kcal,au: -1.513636115573  -0.002412132433 
 E6   /kcal   :  -0.992731213 
 E8   /kcal   :  -0.520904902 
 % E8         :  34.414143332 

-------------------------   ----------------
Dispersion correction           -0.002412132
-------------------------   ----------------


-------------------------   --------------------
FINAL SINGLE POINT ENERGY      -153.380682959373
-------------------------   --------------------



           ************************************************************
           *        Program running with 8 parallel MPI-processes     *
           *              working on a common directory               *
           ************************************************************
------------------------------------------------------------------------------
                         ORCA SCF GRADIENT CALCULATION
------------------------------------------------------------------------------


------------------------
TD-DFT GRADIENT XC SETUP
------------------------

Building densities                     ... done
Calculating rho(r) on the grid         ... done
Building xc-kernel on the grid         ... done
Building xc 3rd derivative on the grid      ... done
                *** TD-DFT GRADIENT CALCULATION INITIALIZED ***

-------------------
TD-DFT/TDA GRADIENT
-------------------

Reference wavefunction             ... RHF
State of interest                  ... 1
Basis dimension                    ... 117
DFT-XC contribution needed         ... YES
RI-approximation                   ... ON
CIS-vectors being read from        ... ox_es1_A_orca0002.cis

 => Number of Vectors found: 1
 => Orbital Window: 3...11 -> 12...116

Reading the CIS file                     ... done
Norm of the CI vector                    ... 1.000000000
Making the CIS (pseudo)densities         ... done
Making operators G(D) and Q(T)           ... done
Transforming the Fock operators          ... done
Making the frozen-core relaxed density   ... done
Constructing the G(H) operator           ... done
Transforming the G(H) operator           ... done
Calculating the CIS Lagrangian           ... done
Solving the Z-vector equations           ... done
Finalizing the relaxed density           ... done
Storing the relaxed density              ... done
Constructing the G(Z) operator           ... done
Transforming the G(Z) operator           ... done
Making the W-matrix                      ... done
Finalizing the W-matrix                  ... done
Transforming the W-matrix                ... done
Nuclear repulsion gradient               ... done
One-Electron gradient                    ... done
Dispersion correction                    ... done
Prescreening matrices                    ... done
COSX-gradient                            ... done
Coulomb gradient (RI)                    ... done
Exchange-Correlation gradient            ... done

                 ---------------------------
                 EXCITED STATE GRADIENT DONE
                 ---------------------------

------------------
CARTESIAN GRADIENT
------------------

   1   O   :    0.081203261   -0.106194389    0.000037725
   2   C   :   -0.047801876   -0.005702743    0.043593256
   3   C   :    0.014845595    0.114830484    0.017510823
   4   H   :    0.013755958   -0.006981102   -0.011766303
   5   H   :    0.005450151   -0.001241442   -0.021375564
   6   H   :   -0.026106566   -0.001828510    0.041480275
   7   H   :   -0.041339156    0.007172158   -0.069433154

Difference to translation invariance:
           :    0.0000073657    0.0000544567    0.0000470569

Difference to rotation invariance:
           :   -0.0000647504    0.0002240719    0.0003106805

Norm of the cartesian gradient     ...    0.2136670275
RMS gradient                       ...    0.0466259679
MAX gradient                       ...    0.1148304843

------------------------------------------------------------------------------
                  RELAXED CIS/TDA DENSITY POPULATION ANALYSIS
                                   IROOT 1
------------------------------------------------------------------------------
------------------------------------------------------------------------------
                           ORCA POPULATION ANALYSIS
------------------------------------------------------------------------------
Input electron density              ... ox_es1_A_orca0002.cisp
BaseName (.gbw .S,...)              ... ox_es1_A_orca0002

                    ********************************
                    * MULLIKEN POPULATION ANALYSIS *
                    ********************************

-----------------------
MULLIKEN ATOMIC CHARGES
-----------------------
   0 O :    0.150928
   1 C :   -0.143755
   2 C :   -0.662937
   3 H :    0.166521
   4 H :    0.157315
   5 H :    0.151397
   6 H :    0.180531
Sum of atomic charges:    0.0000000

--------------------------------
MULLIKEN REDUCED ORBITAL CHARGES
--------------------------------
  0 O s       :     3.748250  s :     3.748250
      pz      :     1.104738  p :     4.063643
      px      :     1.529904
      py      :     1.429001
      dz2     :     0.003684  d :     0.035854
      dxz     :     0.003087
      dyz     :     0.006122
      dx2y2   :     0.010597
      dxy     :     0.012366
      f0      :     0.000078  f :     0.001324
      f+1     :    -0.000022
      f-1     :     0.000148
      f+2     :     0.000077
      f-2     :     0.000204
      f+3     :     0.000313
      f-3     :     0.000527
  1 C s       :     3.233383  s :     3.233383
      pz      :     1.036133  p :     2.817577
      px      :     1.057332
      py      :     0.724111
      dz2     :     0.008120  d :     0.082835
      dxz     :     0.020497
      dyz     :     0.009573
      dx2y2   :     0.026932
      dxy     :     0.017713
      f0      :     0.001044  f :     0.009960
      f+1     :     0.001502
      f-1     :     0.000484
      f+2     :     0.000765
      f-2     :     0.001051
      f+3     :     0.002547
      f-3     :     0.002566
  2 C s       :     3.265405  s :     3.265405
      pz      :     1.094867  p :     3.303293
      px      :     0.850486
      py      :     1.357940
      dz2     :     0.011042  d :     0.084698
      dxz     :     0.014377
      dyz     :     0.004784
      dx2y2   :     0.033162
      dxy     :     0.021332
      f0      :     0.000973  f :     0.009541
      f+1     :     0.001368
      f-1     :     0.000724
      f+2     :     0.000923
      f-2     :     0.000800
      f+3     :     0.002654
      f-3     :     0.002099
  3 H s       :     0.809586  s :     0.809586
      pz      :     0.011305  p :     0.023894
      px      :     0.008690
      py      :     0.003898
  4 H s       :     0.820900  s :     0.820900
      pz      :     0.012385  p :     0.021785
      px      :     0.005948
      py      :     0.003452
  5 H s       :     0.820710  s :     0.820710
      pz      :     0.011232  p :     0.027894
      px      :     0.007044
      py      :     0.009618
  6 H s       :     0.789897  s :     0.789897
      pz      :     0.010606  p :     0.029573
      px      :     0.007230
      py      :     0.011736


                     *******************************
                     * LOEWDIN POPULATION ANALYSIS *
                     *******************************

----------------------
LOEWDIN ATOMIC CHARGES
----------------------
   0 O :    0.373737
   1 C :   -0.282031
   2 C :   -0.587156
   3 H :    0.131966
   4 H :    0.155146
   5 H :    0.106142
   6 H :    0.102196

-------------------------------
LOEWDIN REDUCED ORBITAL CHARGES
-------------------------------
  0 O s       :     3.476359  s :     3.476359
      pz      :     1.054948  p :     4.048643
      px      :     1.507471
      py      :     1.486223
      dz2     :     0.011415  d :     0.095827
      dxz     :     0.008385
      dyz     :     0.013664
      dx2y2   :     0.032620
      dxy     :     0.029744
      f0      :     0.000543  f :     0.005434
      f+1     :     0.000130
      f-1     :     0.000640
      f+2     :     0.000174
      f-2     :     0.000877
      f+3     :     0.000981
      f-3     :     0.002090
  1 C s       :     2.845872  s :     2.845872
      pz      :     1.037252  p :     2.960991
      px      :     1.100155
      py      :     0.823585
      dz2     :     0.072357  d :     0.409393
      dxz     :     0.103916
      dyz     :     0.035830
      dx2y2   :     0.105135
      dxy     :     0.092156
      f0      :     0.007669  f :     0.065774
      f+1     :     0.005880
      f-1     :     0.005656
      f+2     :     0.005138
      f-2     :     0.004912
      f+3     :     0.018161
      f-3     :     0.018359
  2 C s       :     2.814781  s :     2.814781
      pz      :     1.073292  p :     3.190734
      px      :     0.989206
      py      :     1.128237
      dz2     :     0.078025  d :     0.512792
      dxz     :     0.098771
      dyz     :     0.026068
      dx2y2   :     0.170451
      dxy     :     0.139477
      f0      :     0.006259  f :     0.068848
      f+1     :     0.005790
      f-1     :     0.008004
      f+2     :     0.005096
      f-2     :     0.003386
      f+3     :     0.024640
      f-3     :     0.015673
  3 H s       :     0.796565  s :     0.796565
      pz      :     0.034939  p :     0.071469
      px      :     0.024322
      py      :     0.012208
  4 H s       :     0.784876  s :     0.784876
      pz      :     0.034366  p :     0.059979
      px      :     0.015704
      py      :     0.009908
  5 H s       :     0.809556  s :     0.809556
      pz      :     0.036424  p :     0.084302
      px      :     0.021016
      py      :     0.026862
  6 H s       :     0.804504  s :     0.804504
      pz      :     0.037197  p :     0.093299
      px      :     0.022942
      py      :     0.033161


                      *****************************
                      * MAYER POPULATION ANALYSIS *
                      *****************************

  NA   - Mulliken gross atomic population
  ZA   - Total nuclear charge
  QA   - Mulliken gross atomic charge
  VA   - Mayer's total valence
  BVA  - Mayer's bonded valence
  FA   - Mayer's free valence

  ATOM       NA         ZA         QA         VA         BVA        FA
  0 O      7.8491     8.0000     0.1509     1.8014     1.0921     0.7093
  1 C      6.1438     6.0000    -0.1438     3.7707     3.6146     0.1561
  2 C      6.6629     6.0000    -0.6629     4.0172     3.1323     0.8849
  3 H      0.8335     1.0000     0.1665     0.9790     0.9503     0.0287
  4 H      0.8427     1.0000     0.1573     0.9672     0.9339     0.0333
  5 H      0.8486     1.0000     0.1514     0.9948     0.9530     0.0418
  6 H      0.8195     1.0000     0.1805     0.9832     0.9597     0.0235

  Mayer bond orders larger than 0.100000
B(  0-O ,  1-C ) :   0.8350 B(  0-O ,  2-C ) :   0.2698 B(  1-C ,  2-C ) :   0.9304 
B(  1-C ,  3-H ) :   0.9243 B(  1-C ,  4-H ) :   0.9193 B(  2-C ,  5-H ) :   0.9530 
B(  2-C ,  6-H ) :   0.9618 


-------
TIMINGS
-------

Total TD-DFT gradient time         ...        5.253 sec

Fock matrix formation       ....       0.893 sec  ( 17.0%)
  Coulomb formation         ....       0.728 sec  ( 81.5% of F)
  RI-J                      ....       0.324 sec  ( 36.2% of F)
  Chain of spheres X        ....       0.404 sec  ( 45.2% of F)
  XC integration            ....       0.165 sec  ( 18.5% of F)
Z-vector equation           ....       1.419 sec  ( 27.0%)
One electron gradient       ....       0.033 sec  (  0.6%)
Prescreening matrices       ....       0.159 sec  (  3.0%)
RI-J Coulomb gradient       ....       0.249 sec  (  4.7%)
COSX gradient               ....       0.339 sec  (  6.5%)
XC gradient                 ....       1.690 sec  ( 32.2%)

Maximum memory used throughout the entire SCFGRAD-calculation: 130.3 MB

                            ***************************************
                            *     ORCA property calculations      *
                            ***************************************

                                    ---------------------
                                    Active property flags
                                    ---------------------
   (+) Dipole Moment


------------------------------------------------------------------------------
                       ORCA ELECTRIC PROPERTIES CALCULATION
------------------------------------------------------------------------------

Dipole Moment Calculation                       ... on
Quadrupole Moment Calculation                   ... off
Polarizability Calculation                      ... off
GBWName                                         ... ox_es1_A_orca0002.gbw
Electron density                                ... ox_es1_A_orca0002.scfp
The origin for moment calculation is the CENTER OF MASS  = (-0.013969, -0.116632 -0.015928)

-------------
DIPOLE MOMENT
-------------
                                X             Y             Z
Electronic contribution:      0.00899       1.47379       0.07164
Nuclear contribution   :      0.02108      -2.24542       0.01385
                        -----------------------------------------
Total Dipole Moment    :      0.03007      -0.77163       0.08549
                        -----------------------------------------
Magnitude (a.u.)       :      0.77693
Magnitude (Debye)      :      1.97481



--------------------
Rotational spectrum 
--------------------
 
Rotational constants in cm-1:     0.837321     0.720606     0.457102 
Rotational constants in MHz : 25102.243505 21603.220518 13703.582625 

 Dipole components along the rotational axes: 
x,y,z [a.u.] :     0.155126    -0.761274     0.004754 
x,y,z [Debye]:     0.394299    -1.935005     0.012085 

 

                        *** CIS RELAXED DENSITY ***

------------------------------------------------------------------------------
                       ORCA ELECTRIC PROPERTIES CALCULATION
------------------------------------------------------------------------------

Dipole Moment Calculation                       ... on
Quadrupole Moment Calculation                   ... off
Polarizability Calculation                      ... off
GBWName                                         ... ox_es1_A_orca0002.gbw
Electron density                                ... ox_es1_A_orca0002.cisp
The origin for moment calculation is the CENTER OF MASS  = (-0.013969, -0.116632 -0.015928)

-------------
DIPOLE MOMENT
-------------
                                X             Y             Z
Electronic contribution:     -0.73921       2.23491       0.04930
Nuclear contribution   :      0.02108      -2.24542       0.01385
                        -----------------------------------------
Total Dipole Moment    :     -0.71813      -0.01051       0.06316
                        -----------------------------------------
Magnitude (a.u.)       :      0.72098
Magnitude (Debye)      :      1.83258



--------------------
Rotational spectrum 
--------------------
 
Rotational constants in cm-1:     0.837321     0.720606     0.457102 
Rotational constants in MHz : 25102.243505 21603.220518 13703.582625 

 Dipole components along the rotational axes: 
x,y,z [a.u.] :    -0.707329    -0.133252     0.041710 
x,y,z [Debye]:    -1.797889    -0.338701     0.106017 

 

Timings for individual modules:

Sum of individual times         ...        9.933 sec (=   0.166 min)
GTO integral calculation        ...        1.295 sec (=   0.022 min)  13.0 %
SCF iterations                  ...        1.467 sec (=   0.024 min)  14.8 %
CIS module                      ...        1.618 sec (=   0.027 min)  16.3 %
SCF Gradient evaluation         ...        5.553 sec (=   0.093 min)  55.9 %
                             ****ORCA TERMINATED NORMALLY****
TOTAL RUN TIME: 0 days 0 hours 0 minutes 10 seconds 638 msec
