
                                 *****************
                                 * O   R   C   A *
                                 *****************

                                            #,                                       
                                            ###                                      
                                            ####                                     
                                            #####                                    
                                            ######                                   
                                           ########,                                 
                                     ,,################,,,,,                         
                               ,,#################################,,                 
                          ,,##########################################,,             
                       ,#########################################, ''#####,          
                    ,#############################################,,   '####,        
                  ,##################################################,,,,####,       
                ,###########''''           ''''###############################       
              ,#####''   ,,,,##########,,,,          '''####'''          '####       
            ,##' ,,,,###########################,,,                        '##       
           ' ,,###''''                  '''############,,,                           
         ,,##''                                '''############,,,,        ,,,,,,###''
      ,#''                                            '''#######################'''  
     '                                                          ''''####''''         
             ,#######,   #######,   ,#######,      ##                                
            ,#'     '#,  ##    ##  ,#'     '#,    #''#        ######   ,####,        
            ##       ##  ##   ,#'  ##            #'  '#       #        #'  '#        
            ##       ##  #######   ##           ,######,      #####,   #    #        
            '#,     ,#'  ##    ##  '#,     ,#' ,#      #,         ##   #,  ,#        
             '#######'   ##     ##  '#######'  #'      '#     #####' # '####'        



                  #######################################################
                  #                        -***-                        #
                  #          Department of theory and spectroscopy      #
                  #    Directorship and core code : Frank Neese         #
                  #        Max Planck Institute fuer Kohlenforschung    #
                  #                Kaiser Wilhelm Platz 1               #
                  #                 D-45470 Muelheim/Ruhr               #
                  #                      Germany                        #
                  #                                                     #
                  #                  All rights reserved                #
                  #                        -***-                        #
                  #######################################################


                         Program Version 5.0.2 -  RELEASE  -


 With contributions from (in alphabetic order):
   Daniel Aravena         : Magnetic Suceptibility
   Michael Atanasov       : Ab Initio Ligand Field Theory (pilot matlab implementation)
   Alexander A. Auer      : GIAO ZORA, VPT2 properties, NMR spectrum
   Ute Becker             : Parallelization
   Giovanni Bistoni       : ED, misc. LED, open-shell LED, HFLD
   Martin Brehm           : Molecular dynamics
   Dmytro Bykov           : SCF Hessian
   Vijay G. Chilkuri      : MRCI spin determinant printing, contributions to CSF-ICE
   Dipayan Datta          : RHF DLPNO-CCSD density
   Achintya Kumar Dutta   : EOM-CC, STEOM-CC
   Dmitry Ganyushin       : Spin-Orbit,Spin-Spin,Magnetic field MRCI
   Miquel Garcia          : C-PCM and meta-GGA Hessian, CC/C-PCM, Gaussian charge scheme
   Yang Guo               : DLPNO-NEVPT2, F12-NEVPT2, CIM, IAO-localization
   Andreas Hansen         : Spin unrestricted coupled pair/coupled cluster methods
   Benjamin Helmich-Paris : MC-RPA, TRAH-SCF, COSX integrals
   Lee Huntington         : MR-EOM, pCC
   Robert Izsak           : Overlap fitted RIJCOSX, COSX-SCS-MP3, EOM
   Marcus Kettner         : VPT2
   Christian Kollmar      : KDIIS, OOCD, Brueckner-CCSD(T), CCSD density, CASPT2, CASPT2-K
   Simone Kossmann        : Meta GGA functionals, TD-DFT gradient, OOMP2, MP2 Hessian
   Martin Krupicka        : Initial AUTO-CI
   Lucas Lang             : DCDCAS
   Marvin Lechner         : AUTO-CI (C++ implementation), FIC-MRCC
   Dagmar Lenk            : GEPOL surface, SMD
   Dimitrios Liakos       : Extrapolation schemes; Compound Job, initial MDCI parallelization
   Dimitrios Manganas     : Further ROCIS development; embedding schemes
   Dimitrios Pantazis     : SARC Basis sets
   Anastasios Papadopoulos: AUTO-CI, single reference methods and gradients
   Taras Petrenko         : DFT Hessian,TD-DFT gradient, ASA, ECA, R-Raman, ABS, FL, XAS/XES, NRVS
   Peter Pinski           : DLPNO-MP2, DLPNO-MP2 Gradient
   Christoph Reimann      : Effective Core Potentials
   Marius Retegan         : Local ZFS, SOC
   Christoph Riplinger    : Optimizer, TS searches, QM/MM, DLPNO-CCSD(T), (RO)-DLPNO pert. Triples
   Tobias Risthaus        : Range-separated hybrids, TD-DFT gradient, RPA, STAB
   Michael Roemelt        : Original ROCIS implementation
   Masaaki Saitow         : Open-shell DLPNO-CCSD energy and density
   Barbara Sandhoefer     : DKH picture change effects
   Avijit Sen             : IP-ROCIS
   Kantharuban Sivalingam : CASSCF convergence, NEVPT2, FIC-MRCI
   Bernardo de Souza      : ESD, SOC TD-DFT
   Georgi Stoychev        : AutoAux, RI-MP2 NMR, DLPNO-MP2 response
   Willem Van den Heuvel  : Paramagnetic NMR
   Boris Wezisla          : Elementary symmetry handling
   Frank Wennmohs         : Technical directorship


 We gratefully acknowledge several colleagues who have allowed us to
 interface, adapt or use parts of their codes:
   Stefan Grimme, W. Hujo, H. Kruse, P. Pracht,  : VdW corrections, initial TS optimization,
                  C. Bannwarth, S. Ehlert          DFT functionals, gCP, sTDA/sTD-DF
   Ed Valeev, F. Pavosevic, A. Kumar             : LibInt (2-el integral package), F12 methods
   Garnet Chan, S. Sharma, J. Yang, R. Olivares  : DMRG
   Ulf Ekstrom                                   : XCFun DFT Library
   Mihaly Kallay                                 : mrcc  (arbitrary order and MRCC methods)
   Jiri Pittner, Ondrej Demel                    : Mk-CCSD
   Frank Weinhold                                : gennbo (NPA and NBO analysis)
   Christopher J. Cramer and Donald G. Truhlar   : smd solvation model
   Lars Goerigk                                  : TD-DFT with DH, B97 family of functionals
   V. Asgeirsson, H. Jonsson                     : NEB implementation
   FAccTs GmbH                                   : IRC, NEB, NEB-TS, DLPNO-Multilevel, CI-OPT
                                                   MM, QMMM, 2- and 3-layer-ONIOM, Crystal-QMMM,
                                                   LR-CPCM, SF, NACMEs, symmetry and pop. for TD-DFT,
                                                   nearIR, NL-DFT gradient (VV10), updates on ESD,
                                                   ML-optimized integration grids
   S Lehtola, MJT Oliveira, MAL Marques          : LibXC Library
   Liviu Ungur et al                             : ANISO software


 Your calculation uses the libint2 library for the computation of 2-el integrals
 For citations please refer to: http://libint.valeyev.net

 Your ORCA version has been built with support for libXC version: 5.1.0
 For citations please refer to: https://tddft.org/programs/libxc/

 This ORCA versions uses:
   CBLAS   interface :  Fast vector & matrix operations
   LAPACKE interface :  Fast linear algebra routines
   SCALAPACK package :  Parallel linear algebra routines
   Shared memory     :  Shared parallel matrices
   BLAS/LAPACK       :  OpenBLAS 0.3.15  USE64BITINT DYNAMIC_ARCH NO_AFFINITY SkylakeX SINGLE_THREADED
        Core in use  :  SkylakeX
   Copyright (c) 2011-2014, The OpenBLAS Project


Your calculation utilizes the atom-pairwise dispersion correction
with the Becke-Johnson damping scheme (D3BJ)
Cite in your paper:
S.Grimme, S.Ehrlich, L.Goerigk, J Comput Chem, (2011), 32, 1456–1465 
S.Grimme, J.Antony, S.Ehrlich and H.Krieg, J.Chem.Phys., 132, (2010), 154104 
   

================================================================================

----- Orbital basis set information -----
Your calculation utilizes the basis: def2-TZVP
   F. Weigend and R. Ahlrichs, Phys. Chem. Chem. Phys. 7, 3297 (2005).

----- AuxJ basis set information -----
Your calculation utilizes the auxiliary basis: def2/J
   F. Weigend, Phys. Chem. Chem. Phys. 8, 1057 (2006).

================================================================================
                                        WARNINGS
                       Please study these warnings very carefully!
================================================================================

INFO   : Checking CIS options ...

WARNING: CIS/ROCIS methods need fully converged wavefunctions
  ===> : Setting SCFConvForced true
         You can overwrite this default with %scf ConvForced false 


INFO   : the flag for use of the SHARK integral package has been found!

================================================================================
                                       INPUT FILE
================================================================================
NAME = ox_es1_A_orca0005.inp
|  1> ! engrad PBE0 D3BJ def2-TZVP  
|  2> %pal nprocs 8 end
|  3> %maxcore 3000
|  4> 
|  5> %tddft
|  6>   nroots 1
|  7>   tda true
|  8>   Iroot 1
|  9>   end 
| 10> *xyz 0 1 
| 11> O   0.020202592840726924 0.8612336050605266 0.008729000641591947
| 12> C   -0.7160120704638617 -0.45074278578830834 -0.09593856076495208
| 13> C   0.7275638462275391 -0.44400897950294865 0.12316210562426431
| 14> H   -1.273440978239056 -0.6531934428833194 0.9182406315147379
| 15> H   -1.3222566718809765 -0.611129769274249 -0.8823795683656613
| 16> H   1.3033744173521522 -0.713740232739737 -0.849836504453195
| 17> H   1.1937303168603859 -0.6389279553099865 1.0294989512904988
| 18> *
| 19> 
| 20>                          ****END OF INPUT****
================================================================================

                     *******************************
                     * Energy+Gradient Calculation *
                     *******************************

---------------------------------
CARTESIAN COORDINATES (ANGSTROEM)
---------------------------------
  O      0.020203    0.861234    0.008729
  C     -0.716012   -0.450743   -0.095939
  C      0.727564   -0.444009    0.123162
  H     -1.273441   -0.653193    0.918241
  H     -1.322257   -0.611130   -0.882380
  H      1.303374   -0.713740   -0.849837
  H      1.193730   -0.638928    1.029499

----------------------------
CARTESIAN COORDINATES (A.U.)
----------------------------
  NO LB      ZA    FRAG     MASS         X           Y           Z
   0 O     8.0000    0    15.999    0.038177    1.627496    0.016495
   1 C     6.0000    0    12.011   -1.353067   -0.851780   -0.181298
   2 C     6.0000    0    12.011    1.374896   -0.839055    0.232743
   3 H     1.0000    0     1.008   -2.406455   -1.234357    1.735223
   4 H     1.0000    0     1.008   -2.498703   -1.154868   -1.667456
   5 H     1.0000    0     1.008    2.463021   -1.348774   -1.605958
   6 H     1.0000    0     1.008    2.255823   -1.207399    1.945471

--------------------------------
INTERNAL COORDINATES (ANGSTROEM)
--------------------------------
 O      0   0   0     0.000000000000     0.00000000     0.00000000
 C      1   0   0     1.508061463940     0.00000000     0.00000000
 C      2   1   0     1.460123923991    60.19298374     0.00000000
 H      2   1   3     1.174850071215   108.76151031   102.68924232
 H      2   1   3     1.005855834429   119.15822401   231.49558959
 H      3   2   1     1.162342057229   111.29016622   255.77802920
 H      3   2   1     1.037666161771   125.05427726   103.76255849

---------------------------
INTERNAL COORDINATES (A.U.)
---------------------------
 O      0   0   0     0.000000000000     0.00000000     0.00000000
 C      1   0   0     2.849823159967     0.00000000     0.00000000
 C      2   1   0     2.759234337929    60.19298374     0.00000000
 H      2   1   3     2.220144883015   108.76151031   102.68924232
 H      2   1   3     1.900792057278   119.15822401   231.49558959
 H      3   2   1     2.196508162102   111.29016622   255.77802920
 H      3   2   1     1.960904864184   125.05427726   103.76255849

---------------------
BASIS SET INFORMATION
---------------------
There are 3 groups of distinct atoms

 Group   1 Type O   : 11s6p2d1f contracted to 5s3p2d1f pattern {62111/411/11/1}
 Group   2 Type C   : 11s6p2d1f contracted to 5s3p2d1f pattern {62111/411/11/1}
 Group   3 Type H   : 5s1p contracted to 3s1p pattern {311/1}

Atom   0O    basis set group =>   1
Atom   1C    basis set group =>   2
Atom   2C    basis set group =>   2
Atom   3H    basis set group =>   3
Atom   4H    basis set group =>   3
Atom   5H    basis set group =>   3
Atom   6H    basis set group =>   3
---------------------------------
AUXILIARY/J BASIS SET INFORMATION
---------------------------------
There are 3 groups of distinct atoms

 Group   1 Type O   : 12s5p4d2f1g contracted to 6s4p3d1f1g pattern {711111/2111/211/2/1}
 Group   2 Type C   : 12s5p4d2f1g contracted to 6s4p3d1f1g pattern {711111/2111/211/2/1}
 Group   3 Type H   : 5s2p1d contracted to 3s1p1d pattern {311/2/1}

Atom   0O    basis set group =>   1
Atom   1C    basis set group =>   2
Atom   2C    basis set group =>   2
Atom   3H    basis set group =>   3
Atom   4H    basis set group =>   3
Atom   5H    basis set group =>   3
Atom   6H    basis set group =>   3

Checking for AutoStart:
The File: ox_es1_A_orca0005.gbw exists
Trying to determine its content:
     ... Fine, the file contains calculation information
     ... Fine, the calculation information was read
     ... Fine, the file contains a basis set
     ... Fine, the basis set was read
     ... Fine, the file contains a geometry
     ... Fine, the geometry was read
     ... Fine, the file contains a set of orbitals
     ... Fine, the orbitals can be read
     => possible old guess file was deleted
     => GBW file was renamed to GES file
     => GES file is set as startup file
     => Guess is set to MORead
     ... now leaving AutoStart



           ************************************************************
           *        Program running with 8 parallel MPI-processes     *
           *              working on a common directory               *
           ************************************************************
------------------------------------------------------------------------------
                           ORCA GTO INTEGRAL CALCULATION
                           -- RI-GTO INTEGRALS CHOSEN --
------------------------------------------------------------------------------
------------------------------------------------------------------------------
                   ___                                                        
                  /   \      - P O W E R E D   B Y -                         
                 /     \                                                     
                 |  |  |   _    _      __       _____    __    __             
                 |  |  |  | |  | |    /  \     |  _  \  |  |  /  |          
                  \  \/   | |  | |   /    \    | | | |  |  | /  /          
                 / \  \   | |__| |  /  /\  \   | |_| |  |  |/  /          
                |  |  |   |  __  | /  /__\  \  |    /   |      \           
                |  |  |   | |  | | |   __   |  |    \   |  |\   \          
                \     /   | |  | | |  |  |  |  | |\  \  |  | \   \       
                 \___/    |_|  |_| |__|  |__|  |_| \__\ |__|  \__/        
                                                                              
                      - O R C A' S   B I G   F R I E N D -                    
                                      &                                       
                       - I N T E G R A L  F E E D E R -                       
                                                                              
 v1 FN, 2020, v2 2021                                                         
------------------------------------------------------------------------------


Reading SHARK input file ox_es1_A_orca0005.SHARKINP.tmp ... ok
----------------------
SHARK INTEGRAL PACKAGE
----------------------

Number of atoms                             ...      7
Number of basis functions                   ...    117
Number of shells                            ...     49
Maximum angular momentum                    ...      3
Integral batch strategy                     ... SHARK/LIBINT Hybrid
RI-J (if used) integral strategy            ... SPLIT-RIJ (Revised 2003 algorithm where possible)
Printlevel                                  ...      1
Contraction scheme used                     ... SEGMENTED contraction
Coulomb Range Separation                    ... NOT USED
Exchange Range Separation                   ... NOT USED
Finite Nucleus Model                        ... NOT USED
Auxiliary Coulomb fitting basis             ... AVAILABLE
   # of basis functions in Aux-J            ...    191
   # of shells in Aux-J                     ...     65
   Maximum angular momentum in Aux-J        ...      4
Auxiliary J/K fitting basis                 ... NOT available
Auxiliary Correlation fitting basis         ... NOT available
Auxiliary 'external' fitting basis          ... NOT available
Integral threshold                          ...     2.500000e-11
Primitive cut-off                           ...     2.500000e-12
Primitive pair pre-selection threshold      ...     2.500000e-12

Calculating pre-screening integrals         ... done (  0.0 sec) Dimension = 49
Organizing shell pair data                  ... done (  0.0 sec)
Shell pair information
Total number of shell pairs                 ...      1225
Shell pairs after pre-screening             ...      1220
Total number of primitive shell pairs       ...      3648
Primitive shell pairs kept                  ...      3140
          la=0 lb=0:    373 shell pairs
          la=1 lb=0:    351 shell pairs
          la=1 lb=1:     91 shell pairs
          la=2 lb=0:    162 shell pairs
          la=2 lb=1:     78 shell pairs
          la=2 lb=2:     21 shell pairs
          la=3 lb=0:     81 shell pairs
          la=3 lb=1:     39 shell pairs
          la=3 lb=2:     18 shell pairs
          la=3 lb=3:      6 shell pairs

Calculating one electron integrals          ... done (  0.0 sec)
Calculating RI/J V-Matrix + Cholesky decomp.... done (  0.0 sec)
Calculating Nuclear repulsion               ... done (  0.0 sec) ENN=     73.422058258338 Eh

SHARK setup successfully completed in   0.1 seconds

Maximum memory used throughout the entire GTOINT-calculation: 14.9 MB


           ************************************************************
           *        Program running with 8 parallel MPI-processes     *
           *              working on a common directory               *
           ************************************************************
-------------------------------------------------------------------------------
                                 ORCA SCF
-------------------------------------------------------------------------------

------------
SCF SETTINGS
------------
Hamiltonian:
 Density Functional     Method          .... DFT(GTOs)
 Exchange Functional    Exchange        .... PBE
   PBE kappa parameter   XKappa         ....  0.804000
   PBE mue parameter    XMuePBE         ....  0.219520
 Correlation Functional Correlation     .... PBE
   PBE beta parameter  CBetaPBE         ....  0.066725
 LDA part of GGA corr.  LDAOpt          .... PW91-LDA
 Gradients option       PostSCFGGA      .... off
 Hybrid DFT is turned on
   Fraction HF Exchange ScalHFX         ....  0.250000
   Scaling of DF-GGA-X  ScalDFX         ....  0.750000
   Scaling of DF-GGA-C  ScalDFC         ....  1.000000
   Scaling of DF-LDA-C  ScalLDAC        ....  1.000000
   Perturbative correction              ....  0.000000
   Density functional embedding theory  .... OFF
   NL short-range parameter             ....  6.900000
 RI-approximation to the Coulomb term is turned on
   Number of AuxJ basis functions       .... 191
   RIJ-COSX (HFX calculated with COS-X)).... on


General Settings:
 Integral files         IntName         .... ox_es1_A_orca0005
 Hartree-Fock type      HFTyp           .... RHF
 Total Charge           Charge          ....    0
 Multiplicity           Mult            ....    1
 Number of Electrons    NEL             ....   24
 Basis Dimension        Dim             ....  117
 Nuclear Repulsion      ENuc            ....     73.4220582583 Eh

Convergence Acceleration:
 DIIS                   CNVDIIS         .... on
   Start iteration      DIISMaxIt       ....    12
   Startup error        DIISStart       ....  0.200000
   # of expansion vecs  DIISMaxEq       ....     5
   Bias factor          DIISBfac        ....   1.050
   Max. coefficient     DIISMaxC        ....  10.000
 Trust-Rad. Augm. Hess. CNVTRAH         .... auto
   Auto Start mean grad. ratio tolernc. ....  1.125000
   Auto Start start iteration           ....     1
   Auto Start num. interpolation iter.  ....    10
   Max. Number of Micro iterations      ....    16
   Max. Number of Macro iterations      .... Maxiter - #DIIS iter
   Number of Davidson start vectors     ....     2
   Converg. threshold I  (grad. norm)   ....   1.000e-05
   Converg. threshold II (energy diff.) ....   1.000e-08
   Grad. Scal. Fac. for Micro threshold ....   0.100
   Minimum threshold for Micro iter.    ....   0.010
   NR start threshold (gradient norm)   ....   0.001
   Initial trust radius                 ....   0.400
   Minimum AH scaling param. (alpha)    ....   1.000
   Maximum AH scaling param. (alpha)    .... 1000.000
   Orbital update algorithm             .... Taylor
   White noise on init. David. guess    .... on
   Maximum white noise                  ....   0.010
   Quad. conv. algorithm                .... NR
 SOSCF                  CNVSOSCF        .... on
   Start iteration      SOSCFMaxIt      ....   150
   Startup grad/error   SOSCFStart      ....  0.003300
 Level Shifting         CNVShift        .... on
   Level shift para.    LevelShift      ....    0.2500
   Turn off err/grad.   ShiftErr        ....    0.0010
 Zerner damping         CNVZerner       .... off
 Static damping         CNVDamp         .... on
   Fraction old density DampFac         ....    0.7000
   Max. Damping (<1)    DampMax         ....    0.9800
   Min. Damping (>=0)   DampMin         ....    0.0000
   Turn off err/grad.   DampErr         ....    0.1000
 Fernandez-Rico         CNVRico         .... off

SCF Procedure:
 Maximum # iterations   MaxIter         ....   125
 SCF integral mode      SCFMode         .... Direct
   Integral package                     .... SHARK and LIBINT hybrid scheme
 Reset frequency        DirectResetFreq ....    20
 Integral Threshold     Thresh          ....  2.500e-11 Eh
 Primitive CutOff       TCut            ....  2.500e-12 Eh

Convergence Tolerance:
 Convergence Check Mode ConvCheckMode   .... Total+1el-Energy
 Convergence forced     ConvForced      .... 1
 Energy Change          TolE            ....  1.000e-08 Eh
 1-El. energy change                    ....  1.000e-05 Eh
 Orbital Gradient       TolG            ....  1.000e-05
 Orbital Rotation angle TolX            ....  1.000e-05
 DIIS Error             TolErr          ....  5.000e-07


Diagonalization of the overlap matrix:
Smallest eigenvalue                        ... 3.883e-04
Time for diagonalization                   ...    0.001 sec
Threshold for overlap eigenvalues          ... 1.000e-08
Number of eigenvalues below threshold      ... 0
Time for construction of square roots      ...    0.001 sec
Total time needed                          ...    0.003 sec

---------------------
INITIAL GUESS: MOREAD
---------------------
Guess MOs are being read from file: ox_es1_A_orca0005.ges
Input Geometry matches current geometry (good)
Input basis set matches current basis set (good)
MOs were renormalized
MOs were reorthogonalized (Cholesky)
                      ------------------
                      INITIAL GUESS DONE (   0.0 sec)
                      ------------------
-------------------
DFT GRID GENERATION
-------------------

General Integration Accuracy     IntAcc      ... 4.388
Radial Grid Type                 RadialGrid  ... OptM3 with GC (2021)
Angular Grid (max. ang.)         AngularGrid ... 4 (Lebedev-302)
Angular grid pruning method      GridPruning ... 4 (adaptive)
Weight generation scheme         WeightScheme... Becke
Basis function cutoff            BFCut       ... 1.0000e-11
Integration weight cutoff        WCut        ... 1.0000e-14
Angular grids for H and He will be reduced by one unit
Partially contracted basis set               ... off
Rotationally invariant grid construction     ... off

Total number of grid points                  ...    31331
Total number of batches                      ...      493
Average number of points per batch           ...       63
Average number of grid points per atom       ...     4476
Time for grid setup =    0.117 sec

--------------------
COSX GRID GENERATION
--------------------

GRIDX 1
-------
General Integration Accuracy     IntAcc      ... 3.816
Radial Grid Type                 RadialGrid  ... OptM3 with GC (2021)
Angular Grid (max. ang.)         AngularGrid ... 1 (Lebedev-50)
Angular grid pruning method      GridPruning ... 4 (adaptive)
Weight generation scheme         WeightScheme... Becke
Basis function cutoff            BFCut       ... 1.0000e-11
Integration weight cutoff        WCut        ... 1.0000e-14
Angular grids for H and He will be reduced by one unit
Partially contracted basis set               ... on
Rotationally invariant grid construction     ... off

Total number of grid points                  ...     4041
Total number of batches                      ...       68
Average number of points per batch           ...       59
Average number of grid points per atom       ...      577
UseSFitting                                  ... on

GRIDX 2
-------
General Integration Accuracy     IntAcc      ... 4.020
Radial Grid Type                 RadialGrid  ... OptM3 with GC (2021)
Angular Grid (max. ang.)         AngularGrid ... 2 (Lebedev-110)
Angular grid pruning method      GridPruning ... 4 (adaptive)
Weight generation scheme         WeightScheme... Becke
Basis function cutoff            BFCut       ... 1.0000e-11
Integration weight cutoff        WCut        ... 1.0000e-14
Angular grids for H and He will be reduced by one unit
Partially contracted basis set               ... on
Rotationally invariant grid construction     ... off

Total number of grid points                  ...     8722
Total number of batches                      ...      140
Average number of points per batch           ...       62
Average number of grid points per atom       ...     1246
UseSFitting                                  ... on

GRIDX 3
-------
General Integration Accuracy     IntAcc      ... 4.338
Radial Grid Type                 RadialGrid  ... OptM3 with GC (2021)
Angular Grid (max. ang.)         AngularGrid ... 3 (Lebedev-194)
Angular grid pruning method      GridPruning ... 4 (adaptive)
Weight generation scheme         WeightScheme... Becke
Basis function cutoff            BFCut       ... 1.0000e-11
Integration weight cutoff        WCut        ... 1.0000e-14
Angular grids for H and He will be reduced by one unit
Partially contracted basis set               ... on
Rotationally invariant grid construction     ... off

Total number of grid points                  ...    19259
Total number of batches                      ...      305
Average number of points per batch           ...       63
Average number of grid points per atom       ...     2751
UseSFitting                                  ... on

Time for X-Grid setup             =    0.073 sec

--------------
SCF ITERATIONS
--------------
ITER       Energy         Delta-E        Max-DP      RMS-DP      [F,P]     Damp
               ***  Starting incremental Fock matrix formation  ***
                      *** Initiating the SOSCF procedure ***
                      *** Re-Reading the Fockian *** 
                      *** Removing any level shift *** 
ITER      Energy       Delta-E        Grad      Rot      Max-DP    RMS-DP
  0   -153.64648640 -153.6464863975  0.000000  0.000000  0.000000  0.000000
               *** Restarting incremental Fock matrix formation ***
                 **** Energy Check signals convergence ****
              ***Rediagonalizing the Fockian in SOSCF/NRSCF***

               *****************************************************
               *                     SUCCESS                       *
               *           SCF CONVERGED AFTER   1 CYCLES          *
               *****************************************************

Old exchange energy                            =     -4.980295311 Eh
New exchange energy                            =     -4.980289866 Eh
Exchange energy change after final integration =      0.000005444 Eh
Total energy after final integration           =   -153.646480953 Eh
Final COS-X integration done in                =     0.251 sec

----------------
TOTAL SCF ENERGY
----------------

Total Energy       :         -153.64648095 Eh           -4180.93330 eV

Components:
Nuclear Repulsion  :           73.42205826 Eh            1997.91578 eV
Electronic Energy  :         -227.06853921 Eh           -6178.84908 eV
One Electron Energy:         -353.61634590 Eh           -9622.38996 eV
Two Electron Energy:          126.54780669 Eh            3443.54089 eV
Max COSX asymmetry :            0.00000124 Eh               0.00003 eV

Virial components:
Potential Energy   :         -306.43769008 Eh           -8338.59347 eV
Kinetic Energy     :          152.79120913 Eh            4157.66017 eV
Virial Ratio       :            2.00559765


DFT components:
N(Alpha)           :       11.999999290181 electrons
N(Beta)            :       11.999999290181 electrons
N(Total)           :       23.999998580361 electrons
E(X)               :      -14.920942275158 Eh       
E(C)               :       -0.785695039210 Eh       
E(XC)              :      -15.706637314368 Eh       
DFET-embed. en.    :        0.000000000000 Eh       

---------------
SCF CONVERGENCE
---------------

  Last Energy change         ...   -6.6791e-12  Tolerance :   1.0000e-08
  Last MAX-Density change    ...    1.7764e-15  Tolerance :   1.0000e-07
  Last RMS-Density change    ...    3.0250e-17  Tolerance :   5.0000e-09
  Last Orbital Gradient      ...    1.1383e-07  Tolerance :   1.0000e-05
  Last Orbital Rotation      ...    2.7779e-07  Tolerance :   1.0000e-05

             **** THE GBW FILE WAS UPDATED (ox_es1_A_orca0005.gbw) ****
             **** DENSITY ox_es1_A_orca0005.scfp WAS UPDATED ****
             **** ENERGY FILE WAS UPDATED (ox_es1_A_orca0005.en.tmp) ****
             **** THE GBW FILE WAS UPDATED (ox_es1_A_orca0005.gbw) ****
             **** DENSITY ox_es1_A_orca0005.scfp WAS UPDATED ****
----------------
ORBITAL ENERGIES
----------------

  NO   OCC          E(Eh)            E(eV) 
   0   2.0000     -19.222338      -523.0664 
   1   2.0000     -10.285464      -279.8817 
   2   2.0000     -10.280842      -279.7559 
   3   2.0000      -1.065558       -28.9953 
   4   2.0000      -0.714094       -19.4315 
   5   2.0000      -0.655029       -17.8242 
   6   2.0000      -0.517023       -14.0689 
   7   2.0000      -0.504914       -13.7394 
   8   2.0000      -0.395541       -10.7632 
   9   2.0000      -0.388946       -10.5837 
  10   2.0000      -0.335293        -9.1238 
  11   2.0000      -0.287762        -7.8304 
  12   0.0000       0.055388         1.5072 
  13   0.0000       0.062902         1.7116 
  14   0.0000       0.074490         2.0270 
  15   0.0000       0.085591         2.3291 
  16   0.0000       0.099695         2.7128 
  17   0.0000       0.146553         3.9879 
  18   0.0000       0.193478         5.2648 
  19   0.0000       0.209289         5.6950 
  20   0.0000       0.264326         7.1927 
  21   0.0000       0.268364         7.3025 
  22   0.0000       0.285513         7.7692 
  23   0.0000       0.295814         8.0495 
  24   0.0000       0.388059        10.5596 
  25   0.0000       0.399794        10.8790 
  26   0.0000       0.410353        11.1663 
  27   0.0000       0.433726        11.8023 
  28   0.0000       0.436131        11.8677 
  29   0.0000       0.466124        12.6839 
  30   0.0000       0.499216        13.5844 
  31   0.0000       0.521891        14.2014 
  32   0.0000       0.536345        14.5947 
  33   0.0000       0.686279        18.6746 
  34   0.0000       0.708532        19.2801 
  35   0.0000       0.723378        19.6841 
  36   0.0000       0.815292        22.1852 
  37   0.0000       0.840420        22.8690 
  38   0.0000       0.897029        24.4094 
  39   0.0000       0.932291        25.3689 
  40   0.0000       1.002157        27.2701 
  41   0.0000       1.028748        27.9937 
  42   0.0000       1.078585        29.3498 
  43   0.0000       1.089250        29.6400 
  44   0.0000       1.167633        31.7729 
  45   0.0000       1.360650        37.0252 
  46   0.0000       1.463459        39.8227 
  47   0.0000       1.503856        40.9220 
  48   0.0000       1.507394        41.0183 
  49   0.0000       1.510496        41.1027 
  50   0.0000       1.557864        42.3916 
  51   0.0000       1.612015        43.8652 
  52   0.0000       1.649008        44.8718 
  53   0.0000       1.680120        45.7184 
  54   0.0000       1.777796        48.3763 
  55   0.0000       1.834898        49.9301 
  56   0.0000       1.851549        50.3832 
  57   0.0000       1.884272        51.2736 
  58   0.0000       1.891976        51.4833 
  59   0.0000       1.955291        53.2062 
  60   0.0000       2.149806        58.4992 
  61   0.0000       2.159170        58.7540 
  62   0.0000       2.194932        59.7271 
  63   0.0000       2.206973        60.0548 
  64   0.0000       2.263264        61.5865 
  65   0.0000       2.367461        64.4219 
  66   0.0000       2.384651        64.8896 
  67   0.0000       2.472515        67.2806 
  68   0.0000       2.521652        68.6176 
  69   0.0000       2.535560        68.9961 
  70   0.0000       2.639293        71.8188 
  71   0.0000       2.663982        72.4906 
  72   0.0000       2.682467        72.9936 
  73   0.0000       2.717075        73.9354 
  74   0.0000       2.742582        74.6294 
  75   0.0000       2.817439        76.6664 
  76   0.0000       2.879971        78.3680 
  77   0.0000       2.939804        79.9961 
  78   0.0000       2.965572        80.6973 
  79   0.0000       3.007448        81.8368 
  80   0.0000       3.051097        83.0246 
  81   0.0000       3.094851        84.2152 
  82   0.0000       3.104418        84.4755 
  83   0.0000       3.211436        87.3876 
  84   0.0000       3.262855        88.7868 
  85   0.0000       3.315792        90.2273 
  86   0.0000       3.336549        90.7921 
  87   0.0000       3.383839        92.0790 
  88   0.0000       3.511517        95.5532 
  89   0.0000       3.551939        96.6532 
  90   0.0000       3.665338        99.7389 
  91   0.0000       3.691486       100.4504 
  92   0.0000       3.880211       105.5859 
  93   0.0000       3.967132       107.9512 
  94   0.0000       4.101984       111.6207 
  95   0.0000       4.139066       112.6297 
  96   0.0000       4.199508       114.2744 
  97   0.0000       4.294518       116.8598 
  98   0.0000       4.468091       121.5829 
  99   0.0000       4.601520       125.2137 
 100   0.0000       4.754940       129.3885 
 101   0.0000       4.783072       130.1540 
 102   0.0000       5.257231       143.0565 
 103   0.0000       5.397308       146.8682 
 104   0.0000       5.606460       152.5595 
 105   0.0000       5.641594       153.5156 
 106   0.0000       5.683058       154.6439 
 107   0.0000       5.782112       157.3393 
 108   0.0000       5.949299       161.8887 
 109   0.0000       6.540470       177.9752 
 110   0.0000       6.573906       178.8851 
 111   0.0000       6.757614       183.8840 
 112   0.0000       6.960699       189.4103 
 113   0.0000       7.175262       195.2488 
 114   0.0000      22.238458       605.1392 
 115   0.0000      22.327462       607.5611 
 116   0.0000      43.799231      1191.8377 

                    ********************************
                    * MULLIKEN POPULATION ANALYSIS *
                    ********************************

-----------------------
MULLIKEN ATOMIC CHARGES
-----------------------
   0 O :   -0.325359
   1 C :   -0.090981
   2 C :   -0.072775
   3 H :    0.100504
   4 H :    0.147031
   5 H :    0.108298
   6 H :    0.133282
Sum of atomic charges:   -0.0000000

--------------------------------
MULLIKEN REDUCED ORBITAL CHARGES
--------------------------------
  0 O s       :     3.877173  s :     3.877173
      pz      :     1.855600  p :     4.410516
      px      :     1.350839
      py      :     1.204077
      dz2     :     0.005215  d :     0.035875
      dxz     :     0.001883
      dyz     :     0.005575
      dx2y2   :     0.010438
      dxy     :     0.012765
      f0      :     0.000201  f :     0.001795
      f+1     :     0.000147
      f-1     :     0.000413
      f+2     :     0.000078
      f-2     :     0.000152
      f+3     :     0.000357
      f-3     :     0.000446
  1 C s       :     3.227168  s :     3.227168
      pz      :     1.051111  p :     2.747954
      px      :     0.924786
      py      :     0.772057
      dz2     :     0.007057  d :     0.105239
      dxz     :     0.025490
      dyz     :     0.026074
      dx2y2   :     0.026955
      dxy     :     0.019663
      f0      :     0.001277  f :     0.010620
      f+1     :     0.001410
      f-1     :     0.000544
      f+2     :     0.001496
      f-2     :     0.001351
      f+3     :     0.001951
      f-3     :     0.002589
  2 C s       :     3.235557  s :     3.235557
      pz      :     1.031885  p :     2.716030
      px      :     0.921120
      py      :     0.763025
      dz2     :     0.007804  d :     0.110552
      dxz     :     0.024604
      dyz     :     0.028676
      dx2y2   :     0.027557
      dxy     :     0.021912
      f0      :     0.001350  f :     0.010636
      f+1     :     0.001413
      f-1     :     0.000640
      f+2     :     0.001353
      f-2     :     0.001358
      f+3     :     0.001850
      f-3     :     0.002672
  3 H s       :     0.881228  s :     0.881228
      pz      :     0.009971  p :     0.018268
      px      :     0.005200
      py      :     0.003097
  4 H s       :     0.829424  s :     0.829424
      pz      :     0.010310  p :     0.023545
      px      :     0.008758
      py      :     0.004477
  5 H s       :     0.872885  s :     0.872885
      pz      :     0.009851  p :     0.018817
      px      :     0.005634
      py      :     0.003332
  6 H s       :     0.844009  s :     0.844009
      pz      :     0.011841  p :     0.022709
      px      :     0.006626
      py      :     0.004242


                     *******************************
                     * LOEWDIN POPULATION ANALYSIS *
                     *******************************

----------------------
LOEWDIN ATOMIC CHARGES
----------------------
   0 O :    0.044994
   1 C :   -0.247745
   2 C :   -0.265957
   3 H :    0.135248
   4 H :    0.092890
   5 H :    0.135181
   6 H :    0.105388

-------------------------------
LOEWDIN REDUCED ORBITAL CHARGES
-------------------------------
  0 O s       :     3.460605  s :     3.460605
      pz      :     1.763031  p :     4.415789
      px      :     1.340628
      py      :     1.312130
      dz2     :     0.010793  d :     0.073801
      dxz     :     0.005482
      dyz     :     0.011260
      dx2y2   :     0.025505
      dxy     :     0.020761
      f0      :     0.000412  f :     0.004812
      f+1     :     0.000185
      f-1     :     0.000806
      f+2     :     0.000158
      f-2     :     0.000634
      f+3     :     0.000949
      f-3     :     0.001668
  1 C s       :     2.834641  s :     2.834641
      pz      :     1.060725  p :     2.911231
      px      :     1.044959
      py      :     0.805546
      dz2     :     0.048276  d :     0.440298
      dxz     :     0.131671
      dyz     :     0.068204
      dx2y2   :     0.101065
      dxy     :     0.091081
      f0      :     0.007131  f :     0.061575
      f+1     :     0.006041
      f-1     :     0.005047
      f+2     :     0.008500
      f-2     :     0.005073
      f+3     :     0.013139
      f-3     :     0.016644
  2 C s       :     2.838698  s :     2.838698
      pz      :     1.051716  p :     2.905272
      px      :     1.048215
      py      :     0.805342
      dz2     :     0.054662  d :     0.457573
      dxz     :     0.123921
      dyz     :     0.078688
      dx2y2   :     0.103813
      dxy     :     0.096489
      f0      :     0.008310  f :     0.064415
      f+1     :     0.005791
      f-1     :     0.005441
      f+2     :     0.008024
      f-2     :     0.005507
      f+3     :     0.013556
      f-3     :     0.017785
  3 H s       :     0.816167  s :     0.816167
      pz      :     0.027449  p :     0.048585
      px      :     0.012819
      py      :     0.008317
  4 H s       :     0.829546  s :     0.829546
      pz      :     0.035723  p :     0.077563
      px      :     0.026642
      py      :     0.015198
  5 H s       :     0.814166  s :     0.814166
      pz      :     0.027481  p :     0.050652
      px      :     0.014139
      py      :     0.009033
  6 H s       :     0.824081  s :     0.824081
      pz      :     0.037673  p :     0.070531
      px      :     0.019296
      py      :     0.013562


                      *****************************
                      * MAYER POPULATION ANALYSIS *
                      *****************************

  NA   - Mulliken gross atomic population
  ZA   - Total nuclear charge
  QA   - Mulliken gross atomic charge
  VA   - Mayer's total valence
  BVA  - Mayer's bonded valence
  FA   - Mayer's free valence

  ATOM       NA         ZA         QA         VA         BVA        FA
  0 O      8.3254     8.0000    -0.3254     1.9847     1.9847    -0.0000
  1 C      6.0910     6.0000    -0.0910     3.9694     3.9694     0.0000
  2 C      6.0728     6.0000    -0.0728     3.9901     3.9901    -0.0000
  3 H      0.8995     1.0000     0.1005     0.9630     0.9630    -0.0000
  4 H      0.8530     1.0000     0.1470     0.9522     0.9522     0.0000
  5 H      0.8917     1.0000     0.1083     0.9609     0.9609    -0.0000
  6 H      0.8667     1.0000     0.1333     0.9540     0.9540     0.0000

  Mayer bond orders larger than 0.100000
B(  0-O ,  1-C ) :   0.9710 B(  0-O ,  2-C ) :   0.9948 B(  1-C ,  2-C ) :   1.0836 
B(  1-C ,  3-H ) :   0.9519 B(  1-C ,  4-H ) :   0.9486 B(  2-C ,  5-H ) :   0.9483 
B(  2-C ,  6-H ) :   0.9471 

-------
TIMINGS
-------

Total SCF time: 0 days 0 hours 0 min 0 sec 

Total time                  ....       0.983 sec
Sum of individual times     ....       0.884 sec  ( 90.0%)

Fock matrix formation       ....       0.677 sec  ( 68.9%)
  Split-RI-J                ....       0.112 sec  ( 16.6% of F)
  Chain of spheres X        ....       0.502 sec  ( 74.2% of F)
  XC integration            ....       0.060 sec  (  8.9% of F)
    Basis function eval.    ....       0.017 sec  ( 28.4% of XC)
    Density eval.           ....       0.014 sec  ( 22.5% of XC)
    XC-Functional eval.     ....       0.004 sec  (  6.0% of XC)
    XC-Potential eval.      ....       0.019 sec  ( 31.9% of XC)
Diagonalization             ....       0.002 sec  (  0.2%)
Density matrix formation    ....       0.000 sec  (  0.0%)
Population analysis         ....       0.003 sec  (  0.3%)
Initial guess               ....       0.008 sec  (  0.9%)
Orbital Transformation      ....       0.000 sec  (  0.0%)
Orbital Orthonormalization  ....       0.001 sec  (  0.1%)
DIIS solution               ....       0.001 sec  (  0.1%)
SOSCF solution              ....       0.002 sec  (  0.2%)
Grid generation             ....       0.190 sec  ( 19.4%)

Maximum memory used throughout the entire SCF-calculation: 61.1 MB


           ************************************************************
           *        Program running with 8 parallel MPI-processes     *
           *              working on a common directory               *
           ************************************************************
------------------------------------------------------------------------------
                        ORCA TD-DFT/TDA CALCULATION
------------------------------------------------------------------------------

Input orbitals are from        ... ox_es1_A_orca0005.gbw
CI-vector output               ... ox_es1_A_orca0005.cis
Tamm-Dancoff approximation     ... operative
CIS-Integral strategy          ... AO-integrals
Integral handling              ... AO integral Direct
Max. core memory used          ... 3000 MB
Reference state                ... RHF
Generation of triplets         ... off
Follow IRoot                   ... off
Number of operators            ... 1
Orbital ranges used for CIS calculation:
 Operator 0:  Orbitals   3... 11  to  12...116
XAS localization array:
 Operator 0:  Orbitals  -1... -1

-------------------
XC-INTEGRATION GRID
-------------------

General Integration Accuracy     IntAcc      ... 3.467
Radial Grid Type                 RadialGrid  ... OptM3 with GC (2021)
Angular Grid (max. ang.)         AngularGrid ... 1 (Lebedev-50)
Angular grid pruning method      GridPruning ... 4 (adaptive)
Weight generation scheme         WeightScheme... Becke
Basis function cutoff            BFCut       ... 1.0000e-11
Integration weight cutoff        WCut        ... 1.0000e-14
Angular grids for H and He will be reduced by one unit
Partially contracted basis set               ... off
Rotationally invariant grid construction     ... off

Total number of grid points                  ...     4543
Total number of batches                      ...       74
Average number of points per batch           ...       61
Average number of grid points per atom       ...      649

---------------------
COSX-INTEGRATION GRID
---------------------

General Integration Accuracy     IntAcc      ... 3.067
Radial Grid Type                 RadialGrid  ... OptM3 with GC (2021)
Angular Grid (max. ang.)         AngularGrid ... 1 (Lebedev-50)
Angular grid pruning method      GridPruning ... 4 (adaptive)
Weight generation scheme         WeightScheme... Becke
Basis function cutoff            BFCut       ... 1.0000e-11
Integration weight cutoff        WCut        ... 1.0000e-14
Angular grids for H and He will be reduced by one unit
Partially contracted basis set               ... on
Rotationally invariant grid construction     ... off

Total number of grid points                  ...     2089
Total number of batches                      ...       37
Average number of points per batch           ...       56
Average number of grid points per atom       ...      298

---------------
TD-DFT XC SETUP
---------------

DFT calculation                         ... on
Name of the grid file                   ... ox_es1_A_orca0005.grid_cis.tmp
Exchange functional (TD-DFT)            ... PBE
   PBE kappa parameter  XKappa (TD-DFT) ...  0.804000
   PBE mue parameter   XMuePBE (TD-DFT) ...  0.219520
Correlation functional (TD-DFT)         ... PBE
   PBE beta parameter CBetaPBE (TD-DFT) ...  0.066725
 LDA part of GGA corr.  LDAOpt (TD-DFT) ... PW91-LDA
Hybrid DFT                              ... on
   Exchange mixing (TD-DFT)             ...  0.250
   GGA exch. scaling (TD-DFT)           ...  0.750
   GGA corr. scaling (TD-DFT)           ...  1.000

Building densities             ... done
Calculating rho(r) on the grid ... done
Building xc-kernel on the grid ... done
                    *** TD-DFT CALCULATION INITIALIZED ***

------------------------
DAVIDSON-DIAGONALIZATION
------------------------

Dimension of the eigenvalue problem            ...    945
Number of roots to be determined               ...      1
Maximum size of the expansion space            ...     10
Maximum number of iterations                   ...    100
Convergence tolerance for the residual         ...    2.500e-07
Convergence tolerance for the energies         ...    2.500e-07
Orthogonality tolerance                        ...    1.000e-14
Level Shift                                    ...    0.000e+00
Constructing the preconditioner                ... o.k.
Building the initial guess                     ... o.k.
Number of trial vectors determined             ...     10


                       ****Iteration    0****

   Memory handling for direct AO based CIS:
   Memory per vector needed      ...     1 MB
   Memory needed                 ...     1 MB
   Memory available              ...  3000 MB
   Number of vectors per batch   ...  3000
   Number of batches             ...     1
   Time for densities:            0.001
   Time for RI-J (Direct):        0.016
   Time for K (COSX):             0.054
   Time for XC-Integration:       0.016
   Time for Sigma-Completion:     0.000
   Size of expansion space: 3
   Lowest Energy          :     0.276035077901
   Maximum Energy change  :     0.276035077901 (vector 0)
   Maximum residual norm  :     0.004748198993

                       ****Iteration    1****
   Time for densities:            0.000
   Time for RI-J (Direct):        0.012
   Time for K (COSX):             0.048
   Time for XC-Integration:       0.007
   Time for Sigma-Completion:     0.000
   Size of expansion space: 4
   Lowest Energy          :     0.272192685226
   Maximum Energy change  :     0.003842392675 (vector 0)
   Maximum residual norm  :     0.000286148741

                       ****Iteration    2****
   Time for densities:            0.000
   Time for RI-J (Direct):        0.012
   Time for K (COSX):             0.048
   Time for XC-Integration:       0.007
   Time for Sigma-Completion:     0.000
   Size of expansion space: 5
   Lowest Energy          :     0.271899575571
   Maximum Energy change  :     0.000293109655 (vector 0)
   Maximum residual norm  :     0.000076168665

                       ****Iteration    3****
   Time for densities:            0.000
   Time for RI-J (Direct):        0.012
   Time for K (COSX):             0.048
   Time for XC-Integration:       0.007
   Time for Sigma-Completion:     0.000
   Size of expansion space: 6
   Lowest Energy          :     0.271835121842
   Maximum Energy change  :     0.000064453729 (vector 0)
   Maximum residual norm  :     0.000006559119

                       ****Iteration    4****
   Time for densities:            0.000
   Time for RI-J (Direct):        0.012
   Time for K (COSX):             0.048
   Time for XC-Integration:       0.007
   Time for Sigma-Completion:     0.000
   Size of expansion space: 7
   Lowest Energy          :     0.271818266637
   Maximum Energy change  :     0.000016855205 (vector 0)
   Maximum residual norm  :     0.000004052663

                       ****Iteration    5****
   Time for densities:            0.000
   Time for RI-J (Direct):        0.012
   Time for K (COSX):             0.048
   Time for XC-Integration:       0.007
   Time for Sigma-Completion:     0.000
   Size of expansion space: 8
   Lowest Energy          :     0.271811608088
   Maximum Energy change  :     0.000006658549 (vector 0)
   Maximum residual norm  :     0.000000868696

                       ****Iteration    6****
   Time for densities:            0.000
   Time for RI-J (Direct):        0.012
   Time for K (COSX):             0.048
   Time for XC-Integration:       0.007
   Time for Sigma-Completion:     0.000
   Size of expansion space: 9
   Lowest Energy          :     0.271810467272
   Maximum Energy change  :     0.000001140816 (vector 0)
   Maximum residual norm  :     0.000000102944

      *** CONVERGENCE OF RESIDUAL NORM REACHED ***

Storing the converged CI vectors               ... ox_es1_A_orca0005.cis1

                 *** DAVIDSON DONE ***

Total time for solving the CIS problem:     0.495sec

------------------------------------
TD-DFT/TDA EXCITED STATES (SINGLETS)
------------------------------------

the weight of the individual excitations are printed if larger than 1.0e-02

STATE  1:  E=   0.271810 au      7.396 eV    59655.5 cm**-1 <S**2> =   0.000000
    11a ->  12a  :     0.632621 (c= -0.79537457)
    11a ->  13a  :     0.340305 (c=  0.58335685)


-----------------------------
TD-DFT/TDA-EXCITATION SPECTRA
-----------------------------

Center of mass = (  0.0156,  0.0169,  0.0293)
Calculating the Dipole integrals                  ... done
Transforming integrals                            ... done
Calculating the Linear Momentum integrals         ... done
Transforming integrals                            ... done
Calculating angular momentum integrals            ... done
Transforming integrals                            ... done

-----------------------------------------------------------------------------
         ABSORPTION SPECTRUM VIA TRANSITION ELECTRIC DIPOLE MOMENTS
-----------------------------------------------------------------------------
State   Energy    Wavelength  fosc         T2        TX        TY        TZ  
        (cm-1)      (nm)                 (au**2)    (au)      (au)      (au) 
-----------------------------------------------------------------------------
   1   59655.5    167.6   0.006887260   0.03801  -0.04476   0.00075   0.18975

-----------------------------------------------------------------------------
         ABSORPTION SPECTRUM VIA TRANSITION VELOCITY DIPOLE MOMENTS
-----------------------------------------------------------------------------
State   Energy    Wavelength   fosc        P2         PX        PY        PZ  
        (cm-1)      (nm)                 (au**2)     (au)      (au)      (au) 
-----------------------------------------------------------------------------
   1   59655.5    167.6   0.029985674   0.01223   0.02131  -0.00258  -0.10847

-------------------------------------------------------------------
                             CD SPECTRUM
-------------------------------------------------------------------
State  Energy     Wavelength     R         MX        MY        MZ   
       (cm-1)       (nm)     (1e40*cgs)   (au)      (au)      (au)  
-------------------------------------------------------------------
   1   59655.5    167.6     -1.87897   0.25398   0.05340   0.03869

-------------------------------------------------------------------
         CD SPECTRUM VIA TRANSITION VELOCITY DIPOLE MOMENTS        
-------------------------------------------------------------------
State  Energy     Wavelength     R         MX        MY        MZ   
       (cm-1)       (nm)     (1e40*cgs)   (au)      (au)      (au)  
-------------------------------------------------------------------
   1   59655.5    167.6      1.86759   0.25398   0.05340   0.03869

Total run time:        0.861 sec

           *** ORCA-CIS/TD-DFT FINISHED WITHOUT ERROR ***

Maximum memory used throughout the entire CIS-calculation: 49.4 MB

-----------------------
CIS/TD-DFT TOTAL ENERGY
-----------------------

    E(SCF)  =   -153.646480953 Eh
    DE(CIS) =      0.271810467 Eh (Root  1)
    ----------------------------- ---------
    E(tot)  =   -153.374670486 Eh



-------------------------------------------------------------------------------
                          DFT DISPERSION CORRECTION                            
                                                                               
                              DFTD3 V3.1  Rev 1                                
                          USING Becke-Johnson damping                          
-------------------------------------------------------------------------------
The PBE0 functional is recognized
Active option DFTDOPT                   ...         4   

molecular C6(AA) [au] = 351.403357 


            DFT-D V3
 parameters
 s6 scaling factor         :     1.0000 
 a1 scaling factor         :     0.4145 
 s8 scaling factor         :     1.2177 
 a2 scaling factor         :     4.8593 
 ad hoc parameters k1-k3   :    16.0000     1.3333    -4.0000 

 Edisp/kcal,au: -1.508935297089  -0.002404641202 
 E6   /kcal   :  -0.988986810 
 E8   /kcal   :  -0.519948487 
 % E8         :  34.457971020 

-------------------------   ----------------
Dispersion correction           -0.002404641
-------------------------   ----------------


-------------------------   --------------------
FINAL SINGLE POINT ENERGY      -153.377075127103
-------------------------   --------------------



           ************************************************************
           *        Program running with 8 parallel MPI-processes     *
           *              working on a common directory               *
           ************************************************************
------------------------------------------------------------------------------
                         ORCA SCF GRADIENT CALCULATION
------------------------------------------------------------------------------


------------------------
TD-DFT GRADIENT XC SETUP
------------------------

Building densities                     ... done
Calculating rho(r) on the grid         ... done
Building xc-kernel on the grid         ... done
Building xc 3rd derivative on the grid      ... done
                *** TD-DFT GRADIENT CALCULATION INITIALIZED ***

-------------------
TD-DFT/TDA GRADIENT
-------------------

Reference wavefunction             ... RHF
State of interest                  ... 1
Basis dimension                    ... 117
DFT-XC contribution needed         ... YES
RI-approximation                   ... ON
CIS-vectors being read from        ... ox_es1_A_orca0005.cis

 => Number of Vectors found: 1
 => Orbital Window: 3...11 -> 12...116

Reading the CIS file                     ... done
Norm of the CI vector                    ... 1.000000000
Making the CIS (pseudo)densities         ... done
Making operators G(D) and Q(T)           ... done
Transforming the Fock operators          ... done
Making the frozen-core relaxed density   ... done
Constructing the G(H) operator           ... done
Transforming the G(H) operator           ... done
Calculating the CIS Lagrangian           ... done
Solving the Z-vector equations           ... done
Finalizing the relaxed density           ... done
Storing the relaxed density              ... done
Constructing the G(Z) operator           ... done
Transforming the G(Z) operator           ... done
Making the W-matrix                      ... done
Finalizing the W-matrix                  ... done
Transforming the W-matrix                ... done
Nuclear repulsion gradient               ... done
One-Electron gradient                    ... done
Dispersion correction                    ... done
Prescreening matrices                    ... done
COSX-gradient                            ... done
Coulomb gradient (RI)                    ... done
Exchange-Correlation gradient            ... done

                 ---------------------------
                 EXCITED STATE GRADIENT DONE
                 ---------------------------

------------------
CARTESIAN GRADIENT
------------------

   1   O   :   -0.049621519   -0.119360928   -0.004877256
   2   C   :    0.015514614    0.105292869   -0.120799540
   3   C   :    0.024255006    0.032656457    0.097211770
   4   H   :   -0.012766667   -0.015112285    0.037482169
   5   H   :    0.028191577    0.010084386    0.059659979
   6   H   :    0.007570802   -0.019450587   -0.036364105
   7   H   :   -0.013161361    0.005863752   -0.032293652

Difference to translation invariance:
           :   -0.0000175483   -0.0000263360    0.0000193650

Difference to rotation invariance:
           :    0.0001149822   -0.0001445042   -0.0001920308

Norm of the cartesian gradient     ...    0.2510345443
RMS gradient                       ...    0.0547802286
MAX gradient                       ...    0.1207995405

------------------------------------------------------------------------------
                  RELAXED CIS/TDA DENSITY POPULATION ANALYSIS
                                   IROOT 1
------------------------------------------------------------------------------
------------------------------------------------------------------------------
                           ORCA POPULATION ANALYSIS
------------------------------------------------------------------------------
Input electron density              ... ox_es1_A_orca0005.cisp
BaseName (.gbw .S,...)              ... ox_es1_A_orca0005

                    ********************************
                    * MULLIKEN POPULATION ANALYSIS *
                    ********************************

-----------------------
MULLIKEN ATOMIC CHARGES
-----------------------
   0 O :    0.223258
   1 C :   -0.641243
   2 C :   -0.305306
   3 H :    0.179584
   4 H :    0.199094
   5 H :    0.167260
   6 H :    0.177352
Sum of atomic charges:   -0.0000000

--------------------------------
MULLIKEN REDUCED ORBITAL CHARGES
--------------------------------
  0 O s       :     3.669140  s :     3.669140
      pz      :     1.102602  p :     4.077970
      px      :     1.481393
      py      :     1.493974
      dz2     :     0.002248  d :     0.028587
      dxz     :     0.002217
      dyz     :     0.005275
      dx2y2   :     0.008747
      dxy     :     0.010099
      f0      :     0.000053  f :     0.001045
      f+1     :    -0.000008
      f-1     :     0.000079
      f+2     :     0.000069
      f-2     :     0.000150
      f+3     :     0.000259
      f-3     :     0.000443
  1 C s       :     3.290571  s :     3.290571
      pz      :     1.072778  p :     3.255525
      px      :     0.909105
      py      :     1.273642
      dz2     :     0.008576  d :     0.085199
      dxz     :     0.019167
      dyz     :     0.006579
      dx2y2   :     0.031190
      dxy     :     0.019687
      f0      :     0.000818  f :     0.009948
      f+1     :     0.001392
      f-1     :     0.000680
      f+2     :     0.001166
      f-2     :     0.000907
      f+3     :     0.002759
      f-3     :     0.002226
  2 C s       :     3.262105  s :     3.262105
      pz      :     1.058284  p :     2.946595
      px      :     0.977468
      py      :     0.910842
      dz2     :     0.008697  d :     0.086788
      dxz     :     0.022851
      dyz     :     0.008797
      dx2y2   :     0.028637
      dxy     :     0.017805
      f0      :     0.000895  f :     0.009818
      f+1     :     0.001500
      f-1     :     0.000613
      f+2     :     0.000866
      f-2     :     0.000918
      f+3     :     0.002615
      f-3     :     0.002412
  3 H s       :     0.799109  s :     0.799109
      pz      :     0.009749  p :     0.021307
      px      :     0.005405
      py      :     0.006153
  4 H s       :     0.772367  s :     0.772367
      pz      :     0.009969  p :     0.028538
      px      :     0.008653
      py      :     0.009916
  5 H s       :     0.812319  s :     0.812319
      pz      :     0.010118  p :     0.020421
      px      :     0.006082
      py      :     0.004222
  6 H s       :     0.798260  s :     0.798260
      pz      :     0.012031  p :     0.024388
      px      :     0.007149
      py      :     0.005208


                     *******************************
                     * LOEWDIN POPULATION ANALYSIS *
                     *******************************

----------------------
LOEWDIN ATOMIC CHARGES
----------------------
   0 O :    0.345431
   1 C :   -0.545458
   2 C :   -0.370426
   3 H :    0.173331
   4 H :    0.107078
   5 H :    0.166121
   6 H :    0.123923

-------------------------------
LOEWDIN REDUCED ORBITAL CHARGES
-------------------------------
  0 O s       :     3.541349  s :     3.541349
      pz      :     1.056894  p :     4.028113
      px      :     1.447565
      py      :     1.523654
      dz2     :     0.014198  d :     0.080556
      dxz     :     0.006484
      dyz     :     0.011521
      dx2y2   :     0.029975
      dxy     :     0.018379
      f0      :     0.000415  f :     0.004551
      f+1     :     0.000073
      f-1     :     0.000750
      f+2     :     0.000166
      f-2     :     0.000687
      f+3     :     0.000730
      f-3     :     0.001730
  1 C s       :     2.843716  s :     2.843716
      pz      :     1.044769  p :     3.142070
      px      :     1.038974
      py      :     1.058326
      dz2     :     0.073111  d :     0.488998
      dxz     :     0.112458
      dyz     :     0.028409
      dx2y2   :     0.146102
      dxy     :     0.128919
      f0      :     0.005324  f :     0.070675
      f+1     :     0.006348
      f-1     :     0.007775
      f+2     :     0.006363
      f-2     :     0.003805
      f+3     :     0.025134
      f-3     :     0.015926
  2 C s       :     2.850424  s :     2.850424
      pz      :     1.046506  p :     3.012303
      px      :     1.084962
      py      :     0.880834
      dz2     :     0.071179  d :     0.438616
      dxz     :     0.115898
      dyz     :     0.035084
      dx2y2   :     0.117876
      dxy     :     0.098580
      f0      :     0.006407  f :     0.069083
      f+1     :     0.006224
      f-1     :     0.006625
      f+2     :     0.005693
      f-2     :     0.004069
      f+3     :     0.022792
      f-3     :     0.017273
  3 H s       :     0.770371  s :     0.770371
      pz      :     0.027025  p :     0.056297
      px      :     0.013339
      py      :     0.015933
  4 H s       :     0.804482  s :     0.804482
      pz      :     0.035331  p :     0.088440
      px      :     0.026848
      py      :     0.026260
  5 H s       :     0.779423  s :     0.779423
      pz      :     0.028262  p :     0.054457
      px      :     0.015574
      py      :     0.010620
  6 H s       :     0.801711  s :     0.801711
      pz      :     0.038509  p :     0.074366
      px      :     0.021193
      py      :     0.014665


                      *****************************
                      * MAYER POPULATION ANALYSIS *
                      *****************************

  NA   - Mulliken gross atomic population
  ZA   - Total nuclear charge
  QA   - Mulliken gross atomic charge
  VA   - Mayer's total valence
  BVA  - Mayer's bonded valence
  FA   - Mayer's free valence

  ATOM       NA         ZA         QA         VA         BVA        FA
  0 O      7.7767     8.0000     0.2233     1.5628     0.8778     0.6850
  1 C      6.6412     6.0000    -0.6412     4.2118     3.4226     0.7892
  2 C      6.3053     6.0000    -0.3053     4.1291     3.7896     0.3395
  3 H      0.8204     1.0000     0.1796     0.9607     0.9214     0.0393
  4 H      0.8009     1.0000     0.1991     0.9667     0.9509     0.0158
  5 H      0.8327     1.0000     0.1673     0.9674     0.9422     0.0252
  6 H      0.8226     1.0000     0.1774     0.9631     0.9484     0.0148

  Mayer bond orders larger than 0.100000
B(  0-O ,  1-C ) :   0.2482 B(  0-O ,  2-C ) :   0.6192 B(  1-C ,  2-C ) :   1.3127 
B(  1-C ,  3-H ) :   0.9093 B(  1-C ,  4-H ) :   0.9404 B(  2-C ,  5-H ) :   0.9190 
B(  2-C ,  6-H ) :   0.9347 


-------
TIMINGS
-------

Total TD-DFT gradient time         ...        4.957 sec

Fock matrix formation       ....       0.820 sec  ( 16.5%)
  Coulomb formation         ....       0.663 sec  ( 80.9% of F)
  RI-J                      ....       0.298 sec  ( 36.4% of F)
  Chain of spheres X        ....       0.365 sec  ( 44.5% of F)
  XC integration            ....       0.156 sec  ( 19.1% of F)
Z-vector equation           ....       1.380 sec  ( 27.8%)
One electron gradient       ....       0.031 sec  (  0.6%)
Prescreening matrices       ....       0.151 sec  (  3.0%)
RI-J Coulomb gradient       ....       0.245 sec  (  4.9%)
COSX gradient               ....       0.341 sec  (  6.9%)
XC gradient                 ....       1.667 sec  ( 33.6%)

Maximum memory used throughout the entire SCFGRAD-calculation: 130.3 MB

                            ***************************************
                            *     ORCA property calculations      *
                            ***************************************

                                    ---------------------
                                    Active property flags
                                    ---------------------
   (+) Dipole Moment


------------------------------------------------------------------------------
                       ORCA ELECTRIC PROPERTIES CALCULATION
------------------------------------------------------------------------------

Dipole Moment Calculation                       ... on
Quadrupole Moment Calculation                   ... off
Polarizability Calculation                      ... off
GBWName                                         ... ox_es1_A_orca0005.gbw
Electron density                                ... ox_es1_A_orca0005.scfp
The origin for moment calculation is the CENTER OF MASS  = ( 0.015554,  0.016905  0.029336)

-------------
DIPOLE MOMENT
-------------
                                X             Y             Z
Electronic contribution:      0.10225       1.61606      -0.13943
Nuclear contribution   :     -0.12321      -2.47617       0.14384
                        -----------------------------------------
Total Dipole Moment    :     -0.02095      -0.86011       0.00441
                        -----------------------------------------
Magnitude (a.u.)       :      0.86038
Magnitude (Debye)      :      2.18690



--------------------
Rotational spectrum 
--------------------
 
Rotational constants in cm-1:     0.772737     0.738765     0.446789 
Rotational constants in MHz : 23166.066663 22147.605610 13394.384223 

 Dipole components along the rotational axes: 
x,y,z [a.u.] :     0.193728    -0.838279    -0.002300 
x,y,z [Debye]:     0.492418    -2.130735    -0.005845 

 

                        *** CIS RELAXED DENSITY ***

------------------------------------------------------------------------------
                       ORCA ELECTRIC PROPERTIES CALCULATION
------------------------------------------------------------------------------

Dipole Moment Calculation                       ... on
Quadrupole Moment Calculation                   ... off
Polarizability Calculation                      ... off
GBWName                                         ... ox_es1_A_orca0005.gbw
Electron density                                ... ox_es1_A_orca0005.cisp
The origin for moment calculation is the CENTER OF MASS  = ( 0.015554,  0.016905  0.029336)

-------------
DIPOLE MOMENT
-------------
                                X             Y             Z
Electronic contribution:      0.45836       2.41672      -0.06184
Nuclear contribution   :     -0.12321      -2.47617       0.14384
                        -----------------------------------------
Total Dipole Moment    :      0.33516      -0.05945       0.08200
                        -----------------------------------------
Magnitude (a.u.)       :      0.35013
Magnitude (Debye)      :      0.88995



--------------------
Rotational spectrum 
--------------------
 
Rotational constants in cm-1:     0.772737     0.738765     0.446789 
Rotational constants in MHz : 23166.066663 22147.605610 13394.384223 

 Dipole components along the rotational axes: 
x,y,z [a.u.] :    -0.323721    -0.127963     0.037661 
x,y,z [Debye]:    -0.822834    -0.325257     0.095727 

 

Timings for individual modules:

Sum of individual times         ...        7.964 sec (=   0.133 min)
GTO integral calculation        ...        0.325 sec (=   0.005 min)   4.1 %
SCF iterations                  ...        1.199 sec (=   0.020 min)  15.0 %
CIS module                      ...        1.103 sec (=   0.018 min)  13.9 %
SCF Gradient evaluation         ...        5.337 sec (=   0.089 min)  67.0 %
                             ****ORCA TERMINATED NORMALLY****
TOTAL RUN TIME: 0 days 0 hours 0 minutes 8 seconds 742 msec
