
                                 *****************
                                 * O   R   C   A *
                                 *****************

                                            #,                                       
                                            ###                                      
                                            ####                                     
                                            #####                                    
                                            ######                                   
                                           ########,                                 
                                     ,,################,,,,,                         
                               ,,#################################,,                 
                          ,,##########################################,,             
                       ,#########################################, ''#####,          
                    ,#############################################,,   '####,        
                  ,##################################################,,,,####,       
                ,###########''''           ''''###############################       
              ,#####''   ,,,,##########,,,,          '''####'''          '####       
            ,##' ,,,,###########################,,,                        '##       
           ' ,,###''''                  '''############,,,                           
         ,,##''                                '''############,,,,        ,,,,,,###''
      ,#''                                            '''#######################'''  
     '                                                          ''''####''''         
             ,#######,   #######,   ,#######,      ##                                
            ,#'     '#,  ##    ##  ,#'     '#,    #''#        ######   ,####,        
            ##       ##  ##   ,#'  ##            #'  '#       #        #'  '#        
            ##       ##  #######   ##           ,######,      #####,   #    #        
            '#,     ,#'  ##    ##  '#,     ,#' ,#      #,         ##   #,  ,#        
             '#######'   ##     ##  '#######'  #'      '#     #####' # '####'        



                  #######################################################
                  #                        -***-                        #
                  #          Department of theory and spectroscopy      #
                  #    Directorship and core code : Frank Neese         #
                  #        Max Planck Institute fuer Kohlenforschung    #
                  #                Kaiser Wilhelm Platz 1               #
                  #                 D-45470 Muelheim/Ruhr               #
                  #                      Germany                        #
                  #                                                     #
                  #                  All rights reserved                #
                  #                        -***-                        #
                  #######################################################


                         Program Version 5.0.2 -  RELEASE  -


 With contributions from (in alphabetic order):
   Daniel Aravena         : Magnetic Suceptibility
   Michael Atanasov       : Ab Initio Ligand Field Theory (pilot matlab implementation)
   Alexander A. Auer      : GIAO ZORA, VPT2 properties, NMR spectrum
   Ute Becker             : Parallelization
   Giovanni Bistoni       : ED, misc. LED, open-shell LED, HFLD
   Martin Brehm           : Molecular dynamics
   Dmytro Bykov           : SCF Hessian
   Vijay G. Chilkuri      : MRCI spin determinant printing, contributions to CSF-ICE
   Dipayan Datta          : RHF DLPNO-CCSD density
   Achintya Kumar Dutta   : EOM-CC, STEOM-CC
   Dmitry Ganyushin       : Spin-Orbit,Spin-Spin,Magnetic field MRCI
   Miquel Garcia          : C-PCM and meta-GGA Hessian, CC/C-PCM, Gaussian charge scheme
   Yang Guo               : DLPNO-NEVPT2, F12-NEVPT2, CIM, IAO-localization
   Andreas Hansen         : Spin unrestricted coupled pair/coupled cluster methods
   Benjamin Helmich-Paris : MC-RPA, TRAH-SCF, COSX integrals
   Lee Huntington         : MR-EOM, pCC
   Robert Izsak           : Overlap fitted RIJCOSX, COSX-SCS-MP3, EOM
   Marcus Kettner         : VPT2
   Christian Kollmar      : KDIIS, OOCD, Brueckner-CCSD(T), CCSD density, CASPT2, CASPT2-K
   Simone Kossmann        : Meta GGA functionals, TD-DFT gradient, OOMP2, MP2 Hessian
   Martin Krupicka        : Initial AUTO-CI
   Lucas Lang             : DCDCAS
   Marvin Lechner         : AUTO-CI (C++ implementation), FIC-MRCC
   Dagmar Lenk            : GEPOL surface, SMD
   Dimitrios Liakos       : Extrapolation schemes; Compound Job, initial MDCI parallelization
   Dimitrios Manganas     : Further ROCIS development; embedding schemes
   Dimitrios Pantazis     : SARC Basis sets
   Anastasios Papadopoulos: AUTO-CI, single reference methods and gradients
   Taras Petrenko         : DFT Hessian,TD-DFT gradient, ASA, ECA, R-Raman, ABS, FL, XAS/XES, NRVS
   Peter Pinski           : DLPNO-MP2, DLPNO-MP2 Gradient
   Christoph Reimann      : Effective Core Potentials
   Marius Retegan         : Local ZFS, SOC
   Christoph Riplinger    : Optimizer, TS searches, QM/MM, DLPNO-CCSD(T), (RO)-DLPNO pert. Triples
   Tobias Risthaus        : Range-separated hybrids, TD-DFT gradient, RPA, STAB
   Michael Roemelt        : Original ROCIS implementation
   Masaaki Saitow         : Open-shell DLPNO-CCSD energy and density
   Barbara Sandhoefer     : DKH picture change effects
   Avijit Sen             : IP-ROCIS
   Kantharuban Sivalingam : CASSCF convergence, NEVPT2, FIC-MRCI
   Bernardo de Souza      : ESD, SOC TD-DFT
   Georgi Stoychev        : AutoAux, RI-MP2 NMR, DLPNO-MP2 response
   Willem Van den Heuvel  : Paramagnetic NMR
   Boris Wezisla          : Elementary symmetry handling
   Frank Wennmohs         : Technical directorship


 We gratefully acknowledge several colleagues who have allowed us to
 interface, adapt or use parts of their codes:
   Stefan Grimme, W. Hujo, H. Kruse, P. Pracht,  : VdW corrections, initial TS optimization,
                  C. Bannwarth, S. Ehlert          DFT functionals, gCP, sTDA/sTD-DF
   Ed Valeev, F. Pavosevic, A. Kumar             : LibInt (2-el integral package), F12 methods
   Garnet Chan, S. Sharma, J. Yang, R. Olivares  : DMRG
   Ulf Ekstrom                                   : XCFun DFT Library
   Mihaly Kallay                                 : mrcc  (arbitrary order and MRCC methods)
   Jiri Pittner, Ondrej Demel                    : Mk-CCSD
   Frank Weinhold                                : gennbo (NPA and NBO analysis)
   Christopher J. Cramer and Donald G. Truhlar   : smd solvation model
   Lars Goerigk                                  : TD-DFT with DH, B97 family of functionals
   V. Asgeirsson, H. Jonsson                     : NEB implementation
   FAccTs GmbH                                   : IRC, NEB, NEB-TS, DLPNO-Multilevel, CI-OPT
                                                   MM, QMMM, 2- and 3-layer-ONIOM, Crystal-QMMM,
                                                   LR-CPCM, SF, NACMEs, symmetry and pop. for TD-DFT,
                                                   nearIR, NL-DFT gradient (VV10), updates on ESD,
                                                   ML-optimized integration grids
   S Lehtola, MJT Oliveira, MAL Marques          : LibXC Library
   Liviu Ungur et al                             : ANISO software


 Your calculation uses the libint2 library for the computation of 2-el integrals
 For citations please refer to: http://libint.valeyev.net

 Your ORCA version has been built with support for libXC version: 5.1.0
 For citations please refer to: https://tddft.org/programs/libxc/

 This ORCA versions uses:
   CBLAS   interface :  Fast vector & matrix operations
   LAPACKE interface :  Fast linear algebra routines
   SCALAPACK package :  Parallel linear algebra routines
   Shared memory     :  Shared parallel matrices
   BLAS/LAPACK       :  OpenBLAS 0.3.15  USE64BITINT DYNAMIC_ARCH NO_AFFINITY SkylakeX SINGLE_THREADED
        Core in use  :  SkylakeX
   Copyright (c) 2011-2014, The OpenBLAS Project


Your calculation utilizes the atom-pairwise dispersion correction
with the Becke-Johnson damping scheme (D3BJ)
Cite in your paper:
S.Grimme, S.Ehrlich, L.Goerigk, J Comput Chem, (2011), 32, 1456–1465 
S.Grimme, J.Antony, S.Ehrlich and H.Krieg, J.Chem.Phys., 132, (2010), 154104 
   

================================================================================

----- Orbital basis set information -----
Your calculation utilizes the basis: def2-TZVP
   F. Weigend and R. Ahlrichs, Phys. Chem. Chem. Phys. 7, 3297 (2005).

----- AuxJ basis set information -----
Your calculation utilizes the auxiliary basis: def2/J
   F. Weigend, Phys. Chem. Chem. Phys. 8, 1057 (2006).

================================================================================
                                        WARNINGS
                       Please study these warnings very carefully!
================================================================================

INFO   : Checking CIS options ...

WARNING: CIS/ROCIS methods need fully converged wavefunctions
  ===> : Setting SCFConvForced true
         You can overwrite this default with %scf ConvForced false 


INFO   : the flag for use of the SHARK integral package has been found!

================================================================================
                                       INPUT FILE
================================================================================
NAME = ox_es1_B_orca0007.inp
|  1> ! engrad PBE0 D3BJ def2-TZVP  
|  2> %pal nprocs 8 end
|  3> %maxcore 3000
|  4> 
|  5> %tddft
|  6>   nroots 1
|  7>   tda true
|  8>   Iroot 1
|  9>   end 
| 10> *xyz 0 1 
| 11> O   -0.19539342123534373 0.8774600415727762 0.11828855200956377
| 12> C   -0.7040824436876203 -0.40719074666675237 -0.023701044506284255
| 13> C   0.7260547541754535 -0.37913062709464707 -0.04024168620833519
| 14> H   -1.3700039424546464 -0.6849459320216623 0.8756402523757311
| 15> H   -1.2471128734550496 -0.6414317187548625 -0.95716773839681
| 16> H   1.247812625887956 -0.7140808030633271 -0.962959634999087
| 17> H   1.2751221443366878 -0.6368320186730853 0.9293008874386537
| 18> *
| 19> 
| 20>                          ****END OF INPUT****
================================================================================

                     *******************************
                     * Energy+Gradient Calculation *
                     *******************************

---------------------------------
CARTESIAN COORDINATES (ANGSTROEM)
---------------------------------
  O     -0.195393    0.877460    0.118289
  C     -0.704082   -0.407191   -0.023701
  C      0.726055   -0.379131   -0.040242
  H     -1.370004   -0.684946    0.875640
  H     -1.247113   -0.641432   -0.957168
  H      1.247813   -0.714081   -0.962960
  H      1.275122   -0.636832    0.929301

----------------------------
CARTESIAN COORDINATES (A.U.)
----------------------------
  NO LB      ZA    FRAG     MASS         X           Y           Z
   0 O     8.0000    0    15.999   -0.369240    1.658159    0.223533
   1 C     6.0000    0    12.011   -1.330523   -0.769479   -0.044788
   2 C     6.0000    0    12.011    1.372045   -0.716453   -0.076046
   3 H     1.0000    0     1.008   -2.588932   -1.294360    1.654720
   4 H     1.0000    0     1.008   -2.356702   -1.212130   -1.808785
   5 H     1.0000    0     1.008    2.358024   -1.349417   -1.819730
   6 H     1.0000    0     1.008    2.409632   -1.203438    1.756124

--------------------------------
INTERNAL COORDINATES (ANGSTROEM)
--------------------------------
 O      0   0   0     0.000000000000     0.00000000     0.00000000
 C      1   0   0     1.388975599068     0.00000000     0.00000000
 C      2   1   0     1.430508080316    67.47425962     0.00000000
 H      2   1   3     1.153002234945   110.76813596   121.81419939
 H      2   1   3     1.105038890384   117.54078672   247.86992579
 H      3   2   1     1.111679499719   118.22319426   242.73867554
 H      3   2   1     1.143633598787   117.75945920    98.75010702

---------------------------
INTERNAL COORDINATES (A.U.)
---------------------------
 O      0   0   0     0.000000000000     0.00000000     0.00000000
 C      1   0   0     2.624783488938     0.00000000     0.00000000
 C      2   1   0     2.703268504159    67.47425962     0.00000000
 H      2   1   3     2.178858455846   110.76813596   121.81419939
 H      2   1   3     2.088220870158   117.54078672   247.86992579
 H      3   2   1     2.100769803164   118.22319426   242.73867554
 H      3   2   1     2.161154299258   117.75945920    98.75010702

---------------------
BASIS SET INFORMATION
---------------------
There are 3 groups of distinct atoms

 Group   1 Type O   : 11s6p2d1f contracted to 5s3p2d1f pattern {62111/411/11/1}
 Group   2 Type C   : 11s6p2d1f contracted to 5s3p2d1f pattern {62111/411/11/1}
 Group   3 Type H   : 5s1p contracted to 3s1p pattern {311/1}

Atom   0O    basis set group =>   1
Atom   1C    basis set group =>   2
Atom   2C    basis set group =>   2
Atom   3H    basis set group =>   3
Atom   4H    basis set group =>   3
Atom   5H    basis set group =>   3
Atom   6H    basis set group =>   3
---------------------------------
AUXILIARY/J BASIS SET INFORMATION
---------------------------------
There are 3 groups of distinct atoms

 Group   1 Type O   : 12s5p4d2f1g contracted to 6s4p3d1f1g pattern {711111/2111/211/2/1}
 Group   2 Type C   : 12s5p4d2f1g contracted to 6s4p3d1f1g pattern {711111/2111/211/2/1}
 Group   3 Type H   : 5s2p1d contracted to 3s1p1d pattern {311/2/1}

Atom   0O    basis set group =>   1
Atom   1C    basis set group =>   2
Atom   2C    basis set group =>   2
Atom   3H    basis set group =>   3
Atom   4H    basis set group =>   3
Atom   5H    basis set group =>   3
Atom   6H    basis set group =>   3

Checking for AutoStart:
The File: ox_es1_B_orca0007.gbw exists
Trying to determine its content:
     ... Fine, the file contains calculation information
     ... Fine, the calculation information was read
     ... Fine, the file contains a basis set
     ... Fine, the basis set was read
     ... Fine, the file contains a geometry
     ... Fine, the geometry was read
     ... Fine, the file contains a set of orbitals
     ... Fine, the orbitals can be read
     => possible old guess file was deleted
     => GBW file was renamed to GES file
     => GES file is set as startup file
     => Guess is set to MORead
     ... now leaving AutoStart



           ************************************************************
           *        Program running with 8 parallel MPI-processes     *
           *              working on a common directory               *
           ************************************************************
------------------------------------------------------------------------------
                           ORCA GTO INTEGRAL CALCULATION
                           -- RI-GTO INTEGRALS CHOSEN --
------------------------------------------------------------------------------
------------------------------------------------------------------------------
                   ___                                                        
                  /   \      - P O W E R E D   B Y -                         
                 /     \                                                     
                 |  |  |   _    _      __       _____    __    __             
                 |  |  |  | |  | |    /  \     |  _  \  |  |  /  |          
                  \  \/   | |  | |   /    \    | | | |  |  | /  /          
                 / \  \   | |__| |  /  /\  \   | |_| |  |  |/  /          
                |  |  |   |  __  | /  /__\  \  |    /   |      \           
                |  |  |   | |  | | |   __   |  |    \   |  |\   \          
                \     /   | |  | | |  |  |  |  | |\  \  |  | \   \       
                 \___/    |_|  |_| |__|  |__|  |_| \__\ |__|  \__/        
                                                                              
                      - O R C A' S   B I G   F R I E N D -                    
                                      &                                       
                       - I N T E G R A L  F E E D E R -                       
                                                                              
 v1 FN, 2020, v2 2021                                                         
------------------------------------------------------------------------------


Reading SHARK input file ox_es1_B_orca0007.SHARKINP.tmp ... ok
----------------------
SHARK INTEGRAL PACKAGE
----------------------

Number of atoms                             ...      7
Number of basis functions                   ...    117
Number of shells                            ...     49
Maximum angular momentum                    ...      3
Integral batch strategy                     ... SHARK/LIBINT Hybrid
RI-J (if used) integral strategy            ... SPLIT-RIJ (Revised 2003 algorithm where possible)
Printlevel                                  ...      1
Contraction scheme used                     ... SEGMENTED contraction
Coulomb Range Separation                    ... NOT USED
Exchange Range Separation                   ... NOT USED
Finite Nucleus Model                        ... NOT USED
Auxiliary Coulomb fitting basis             ... AVAILABLE
   # of basis functions in Aux-J            ...    191
   # of shells in Aux-J                     ...     65
   Maximum angular momentum in Aux-J        ...      4
Auxiliary J/K fitting basis                 ... NOT available
Auxiliary Correlation fitting basis         ... NOT available
Auxiliary 'external' fitting basis          ... NOT available
Integral threshold                          ...     2.500000e-11
Primitive cut-off                           ...     2.500000e-12
Primitive pair pre-selection threshold      ...     2.500000e-12

Calculating pre-screening integrals         ... done (  0.0 sec) Dimension = 49
Organizing shell pair data                  ... done (  0.0 sec)
Shell pair information
Total number of shell pairs                 ...      1225
Shell pairs after pre-screening             ...      1220
Total number of primitive shell pairs       ...      3648
Primitive shell pairs kept                  ...      3143
          la=0 lb=0:    373 shell pairs
          la=1 lb=0:    351 shell pairs
          la=1 lb=1:     91 shell pairs
          la=2 lb=0:    162 shell pairs
          la=2 lb=1:     78 shell pairs
          la=2 lb=2:     21 shell pairs
          la=3 lb=0:     81 shell pairs
          la=3 lb=1:     39 shell pairs
          la=3 lb=2:     18 shell pairs
          la=3 lb=3:      6 shell pairs

Calculating one electron integrals          ... done (  0.0 sec)
Calculating RI/J V-Matrix + Cholesky decomp.... done (  0.0 sec)
Calculating Nuclear repulsion               ... done (  0.0 sec) ENN=     73.739308125356 Eh

SHARK setup successfully completed in   0.1 seconds

Maximum memory used throughout the entire GTOINT-calculation: 14.9 MB


           ************************************************************
           *        Program running with 8 parallel MPI-processes     *
           *              working on a common directory               *
           ************************************************************
-------------------------------------------------------------------------------
                                 ORCA SCF
-------------------------------------------------------------------------------

------------
SCF SETTINGS
------------
Hamiltonian:
 Density Functional     Method          .... DFT(GTOs)
 Exchange Functional    Exchange        .... PBE
   PBE kappa parameter   XKappa         ....  0.804000
   PBE mue parameter    XMuePBE         ....  0.219520
 Correlation Functional Correlation     .... PBE
   PBE beta parameter  CBetaPBE         ....  0.066725
 LDA part of GGA corr.  LDAOpt          .... PW91-LDA
 Gradients option       PostSCFGGA      .... off
 Hybrid DFT is turned on
   Fraction HF Exchange ScalHFX         ....  0.250000
   Scaling of DF-GGA-X  ScalDFX         ....  0.750000
   Scaling of DF-GGA-C  ScalDFC         ....  1.000000
   Scaling of DF-LDA-C  ScalLDAC        ....  1.000000
   Perturbative correction              ....  0.000000
   Density functional embedding theory  .... OFF
   NL short-range parameter             ....  6.900000
 RI-approximation to the Coulomb term is turned on
   Number of AuxJ basis functions       .... 191
   RIJ-COSX (HFX calculated with COS-X)).... on


General Settings:
 Integral files         IntName         .... ox_es1_B_orca0007
 Hartree-Fock type      HFTyp           .... RHF
 Total Charge           Charge          ....    0
 Multiplicity           Mult            ....    1
 Number of Electrons    NEL             ....   24
 Basis Dimension        Dim             ....  117
 Nuclear Repulsion      ENuc            ....     73.7393081254 Eh

Convergence Acceleration:
 DIIS                   CNVDIIS         .... on
   Start iteration      DIISMaxIt       ....    12
   Startup error        DIISStart       ....  0.200000
   # of expansion vecs  DIISMaxEq       ....     5
   Bias factor          DIISBfac        ....   1.050
   Max. coefficient     DIISMaxC        ....  10.000
 Trust-Rad. Augm. Hess. CNVTRAH         .... auto
   Auto Start mean grad. ratio tolernc. ....  1.125000
   Auto Start start iteration           ....     1
   Auto Start num. interpolation iter.  ....    10
   Max. Number of Micro iterations      ....    16
   Max. Number of Macro iterations      .... Maxiter - #DIIS iter
   Number of Davidson start vectors     ....     2
   Converg. threshold I  (grad. norm)   ....   1.000e-05
   Converg. threshold II (energy diff.) ....   1.000e-08
   Grad. Scal. Fac. for Micro threshold ....   0.100
   Minimum threshold for Micro iter.    ....   0.010
   NR start threshold (gradient norm)   ....   0.001
   Initial trust radius                 ....   0.400
   Minimum AH scaling param. (alpha)    ....   1.000
   Maximum AH scaling param. (alpha)    .... 1000.000
   Orbital update algorithm             .... Taylor
   White noise on init. David. guess    .... on
   Maximum white noise                  ....   0.010
   Quad. conv. algorithm                .... NR
 SOSCF                  CNVSOSCF        .... on
   Start iteration      SOSCFMaxIt      ....   150
   Startup grad/error   SOSCFStart      ....  0.003300
 Level Shifting         CNVShift        .... on
   Level shift para.    LevelShift      ....    0.2500
   Turn off err/grad.   ShiftErr        ....    0.0010
 Zerner damping         CNVZerner       .... off
 Static damping         CNVDamp         .... on
   Fraction old density DampFac         ....    0.7000
   Max. Damping (<1)    DampMax         ....    0.9800
   Min. Damping (>=0)   DampMin         ....    0.0000
   Turn off err/grad.   DampErr         ....    0.1000
 Fernandez-Rico         CNVRico         .... off

SCF Procedure:
 Maximum # iterations   MaxIter         ....   125
 SCF integral mode      SCFMode         .... Direct
   Integral package                     .... SHARK and LIBINT hybrid scheme
 Reset frequency        DirectResetFreq ....    20
 Integral Threshold     Thresh          ....  2.500e-11 Eh
 Primitive CutOff       TCut            ....  2.500e-12 Eh

Convergence Tolerance:
 Convergence Check Mode ConvCheckMode   .... Total+1el-Energy
 Convergence forced     ConvForced      .... 1
 Energy Change          TolE            ....  1.000e-08 Eh
 1-El. energy change                    ....  1.000e-05 Eh
 Orbital Gradient       TolG            ....  1.000e-05
 Orbital Rotation angle TolX            ....  1.000e-05
 DIIS Error             TolErr          ....  5.000e-07


Diagonalization of the overlap matrix:
Smallest eigenvalue                        ... 3.199e-04
Time for diagonalization                   ...    0.001 sec
Threshold for overlap eigenvalues          ... 1.000e-08
Number of eigenvalues below threshold      ... 0
Time for construction of square roots      ...    0.001 sec
Total time needed                          ...    0.003 sec

---------------------
INITIAL GUESS: MOREAD
---------------------
Guess MOs are being read from file: ox_es1_B_orca0007.ges
Input Geometry matches current geometry (good)
Input basis set matches current basis set (good)
MOs were renormalized
MOs were reorthogonalized (Cholesky)
                      ------------------
                      INITIAL GUESS DONE (   0.0 sec)
                      ------------------
-------------------
DFT GRID GENERATION
-------------------

General Integration Accuracy     IntAcc      ... 4.388
Radial Grid Type                 RadialGrid  ... OptM3 with GC (2021)
Angular Grid (max. ang.)         AngularGrid ... 4 (Lebedev-302)
Angular grid pruning method      GridPruning ... 4 (adaptive)
Weight generation scheme         WeightScheme... Becke
Basis function cutoff            BFCut       ... 1.0000e-11
Integration weight cutoff        WCut        ... 1.0000e-14
Angular grids for H and He will be reduced by one unit
Partially contracted basis set               ... off
Rotationally invariant grid construction     ... off

Total number of grid points                  ...    31316
Total number of batches                      ...      494
Average number of points per batch           ...       63
Average number of grid points per atom       ...     4474
Time for grid setup =    0.118 sec

--------------------
COSX GRID GENERATION
--------------------

GRIDX 1
-------
General Integration Accuracy     IntAcc      ... 3.816
Radial Grid Type                 RadialGrid  ... OptM3 with GC (2021)
Angular Grid (max. ang.)         AngularGrid ... 1 (Lebedev-50)
Angular grid pruning method      GridPruning ... 4 (adaptive)
Weight generation scheme         WeightScheme... Becke
Basis function cutoff            BFCut       ... 1.0000e-11
Integration weight cutoff        WCut        ... 1.0000e-14
Angular grids for H and He will be reduced by one unit
Partially contracted basis set               ... on
Rotationally invariant grid construction     ... off

Total number of grid points                  ...     4035
Total number of batches                      ...       68
Average number of points per batch           ...       59
Average number of grid points per atom       ...      576
UseSFitting                                  ... on

GRIDX 2
-------
General Integration Accuracy     IntAcc      ... 4.020
Radial Grid Type                 RadialGrid  ... OptM3 with GC (2021)
Angular Grid (max. ang.)         AngularGrid ... 2 (Lebedev-110)
Angular grid pruning method      GridPruning ... 4 (adaptive)
Weight generation scheme         WeightScheme... Becke
Basis function cutoff            BFCut       ... 1.0000e-11
Integration weight cutoff        WCut        ... 1.0000e-14
Angular grids for H and He will be reduced by one unit
Partially contracted basis set               ... on
Rotationally invariant grid construction     ... off

Total number of grid points                  ...     8731
Total number of batches                      ...      140
Average number of points per batch           ...       62
Average number of grid points per atom       ...     1247
UseSFitting                                  ... on

GRIDX 3
-------
General Integration Accuracy     IntAcc      ... 4.338
Radial Grid Type                 RadialGrid  ... OptM3 with GC (2021)
Angular Grid (max. ang.)         AngularGrid ... 3 (Lebedev-194)
Angular grid pruning method      GridPruning ... 4 (adaptive)
Weight generation scheme         WeightScheme... Becke
Basis function cutoff            BFCut       ... 1.0000e-11
Integration weight cutoff        WCut        ... 1.0000e-14
Angular grids for H and He will be reduced by one unit
Partially contracted basis set               ... on
Rotationally invariant grid construction     ... off

Total number of grid points                  ...    19267
Total number of batches                      ...      305
Average number of points per batch           ...       63
Average number of grid points per atom       ...     2752
UseSFitting                                  ... on

Time for X-Grid setup             =    0.073 sec

--------------
SCF ITERATIONS
--------------
ITER       Energy         Delta-E        Max-DP      RMS-DP      [F,P]     Damp
               ***  Starting incremental Fock matrix formation  ***
                      *** Initiating the SOSCF procedure ***
                      *** Re-Reading the Fockian *** 
                      *** Removing any level shift *** 
ITER      Energy       Delta-E        Grad      Rot      Max-DP    RMS-DP
  0   -153.65096315 -153.6509631467  0.000001  0.000001  0.000001  0.000000
               *** Restarting incremental Fock matrix formation ***
                  ***Gradient check signals convergence***
              ***Rediagonalizing the Fockian in SOSCF/NRSCF***

               *****************************************************
               *                     SUCCESS                       *
               *           SCF CONVERGED AFTER   1 CYCLES          *
               *****************************************************

Old exchange energy                            =     -4.975381555 Eh
New exchange energy                            =     -4.975393851 Eh
Exchange energy change after final integration =     -0.000012296 Eh
Total energy after final integration           =   -153.650975443 Eh
Final COS-X integration done in                =     0.250 sec

----------------
TOTAL SCF ENERGY
----------------

Total Energy       :         -153.65097544 Eh           -4181.05560 eV

Components:
Nuclear Repulsion  :           73.73930813 Eh            2006.54859 eV
Electronic Energy  :         -227.39028357 Eh           -6187.60419 eV
One Electron Energy:         -354.22432291 Eh           -9638.93386 eV
Two Electron Energy:          126.83403934 Eh            3451.32967 eV
Max COSX asymmetry :            0.00000093 Eh               0.00003 eV

Virial components:
Potential Energy   :         -306.37209681 Eh           -8336.80859 eV
Kinetic Energy     :          152.72112137 Eh            4155.75299 eV
Virial Ratio       :            2.00608858


DFT components:
N(Alpha)           :       11.999999909923 electrons
N(Beta)            :       11.999999909923 electrons
N(Total)           :       23.999999819846 electrons
E(X)               :      -14.906965398843 Eh       
E(C)               :       -0.785966284917 Eh       
E(XC)              :      -15.692931683760 Eh       
DFET-embed. en.    :        0.000000000000 Eh       

---------------
SCF CONVERGENCE
---------------

  Last Energy change         ...   -7.2760e-12  Tolerance :   1.0000e-08
  Last MAX-Density change    ...    1.1102e-15  Tolerance :   1.0000e-07
  Last RMS-Density change    ...    2.1517e-17  Tolerance :   5.0000e-09
  Last Orbital Gradient      ...    2.5237e-07  Tolerance :   1.0000e-05
  Last Orbital Rotation      ...    3.6125e-07  Tolerance :   1.0000e-05

             **** THE GBW FILE WAS UPDATED (ox_es1_B_orca0007.gbw) ****
             **** DENSITY ox_es1_B_orca0007.scfp WAS UPDATED ****
             **** ENERGY FILE WAS UPDATED (ox_es1_B_orca0007.en.tmp) ****
             **** THE GBW FILE WAS UPDATED (ox_es1_B_orca0007.gbw) ****
             **** DENSITY ox_es1_B_orca0007.scfp WAS UPDATED ****
----------------
ORBITAL ENERGIES
----------------

  NO   OCC          E(Eh)            E(eV) 
   0   2.0000     -19.228386      -523.2310 
   1   2.0000     -10.292606      -280.0761 
   2   2.0000     -10.278022      -279.6792 
   3   2.0000      -1.087684       -29.5974 
   4   2.0000      -0.717660       -19.5285 
   5   2.0000      -0.635756       -17.2998 
   6   2.0000      -0.517148       -14.0723 
   7   2.0000      -0.500465       -13.6184 
   8   2.0000      -0.410920       -11.1817 
   9   2.0000      -0.380293       -10.3483 
  10   2.0000      -0.339304        -9.2329 
  11   2.0000      -0.287340        -7.8189 
  12   0.0000       0.026329         0.7164 
  13   0.0000       0.061924         1.6850 
  14   0.0000       0.080602         2.1933 
  15   0.0000       0.089048         2.4231 
  16   0.0000       0.108212         2.9446 
  17   0.0000       0.151636         4.1262 
  18   0.0000       0.187550         5.1035 
  19   0.0000       0.212250         5.7756 
  20   0.0000       0.258516         7.0346 
  21   0.0000       0.270912         7.3719 
  22   0.0000       0.287058         7.8112 
  23   0.0000       0.320185         8.7127 
  24   0.0000       0.369149        10.0451 
  25   0.0000       0.390658        10.6304 
  26   0.0000       0.403809        10.9882 
  27   0.0000       0.429142        11.6776 
  28   0.0000       0.437056        11.8929 
  29   0.0000       0.466631        12.6977 
  30   0.0000       0.493741        13.4354 
  31   0.0000       0.497633        13.5413 
  32   0.0000       0.530769        14.4429 
  33   0.0000       0.679704        18.4957 
  34   0.0000       0.695736        18.9319 
  35   0.0000       0.747169        20.3315 
  36   0.0000       0.819069        22.2880 
  37   0.0000       0.869452        23.6590 
  38   0.0000       0.885120        24.0853 
  39   0.0000       0.934155        25.4196 
  40   0.0000       0.992831        27.0163 
  41   0.0000       1.043682        28.4000 
  42   0.0000       1.078650        29.3516 
  43   0.0000       1.100889        29.9567 
  44   0.0000       1.157054        31.4850 
  45   0.0000       1.369856        37.2757 
  46   0.0000       1.465840        39.8875 
  47   0.0000       1.491598        40.5885 
  48   0.0000       1.503508        40.9125 
  49   0.0000       1.525737        41.5174 
  50   0.0000       1.574033        42.8316 
  51   0.0000       1.601387        43.5760 
  52   0.0000       1.658455        45.1289 
  53   0.0000       1.667748        45.3817 
  54   0.0000       1.752421        47.6858 
  55   0.0000       1.819050        49.4989 
  56   0.0000       1.835349        49.9424 
  57   0.0000       1.874314        51.0027 
  58   0.0000       1.930428        52.5296 
  59   0.0000       1.964034        53.4441 
  60   0.0000       2.064225        56.1704 
  61   0.0000       2.122528        57.7569 
  62   0.0000       2.146971        58.4221 
  63   0.0000       2.246812        61.1389 
  64   0.0000       2.269591        61.7587 
  65   0.0000       2.376866        64.6778 
  66   0.0000       2.391821        65.0848 
  67   0.0000       2.487587        67.6907 
  68   0.0000       2.512043        68.3562 
  69   0.0000       2.519844        68.5684 
  70   0.0000       2.563280        69.7504 
  71   0.0000       2.609855        71.0178 
  72   0.0000       2.657256        72.3076 
  73   0.0000       2.690646        73.2162 
  74   0.0000       2.707745        73.6815 
  75   0.0000       2.783023        75.7299 
  76   0.0000       2.839654        77.2709 
  77   0.0000       2.941238        80.0352 
  78   0.0000       2.969125        80.7940 
  79   0.0000       3.030423        82.4620 
  80   0.0000       3.072121        83.5967 
  81   0.0000       3.093558        84.1800 
  82   0.0000       3.106025        84.5192 
  83   0.0000       3.203475        87.1710 
  84   0.0000       3.286811        89.4387 
  85   0.0000       3.330155        90.6181 
  86   0.0000       3.341159        90.9176 
  87   0.0000       3.382281        92.0365 
  88   0.0000       3.526010        95.9476 
  89   0.0000       3.595896        97.8493 
  90   0.0000       3.656778        99.5060 
  91   0.0000       3.687580       100.3442 
  92   0.0000       3.899478       106.1102 
  93   0.0000       3.983554       108.3980 
  94   0.0000       4.117559       112.0445 
  95   0.0000       4.128241       112.3351 
  96   0.0000       4.211132       114.5907 
  97   0.0000       4.246090       115.5420 
  98   0.0000       4.336153       117.9927 
  99   0.0000       4.536744       123.4511 
 100   0.0000       4.584582       124.7528 
 101   0.0000       4.836408       131.6054 
 102   0.0000       5.280810       143.6982 
 103   0.0000       5.352483       145.6485 
 104   0.0000       5.549532       151.0105 
 105   0.0000       5.718429       155.6064 
 106   0.0000       5.782963       157.3624 
 107   0.0000       5.805595       157.9783 
 108   0.0000       6.022792       163.8885 
 109   0.0000       6.545016       178.0989 
 110   0.0000       6.568203       178.7299 
 111   0.0000       6.780605       184.5096 
 112   0.0000       6.954072       189.2299 
 113   0.0000       7.150135       194.5651 
 114   0.0000      22.127865       602.1298 
 115   0.0000      22.406902       609.7228 
 116   0.0000      43.800473      1191.8715 

                    ********************************
                    * MULLIKEN POPULATION ANALYSIS *
                    ********************************

-----------------------
MULLIKEN ATOMIC CHARGES
-----------------------
   0 O :   -0.311950
   1 C :   -0.036398
   2 C :   -0.124296
   3 H :    0.107993
   4 H :    0.103285
   5 H :    0.133117
   6 H :    0.128250
Sum of atomic charges:   -0.0000000

--------------------------------
MULLIKEN REDUCED ORBITAL CHARGES
--------------------------------
  0 O s       :     3.874047  s :     3.874047
      pz      :     1.830812  p :     4.397393
      px      :     1.320917
      py      :     1.245664
      dz2     :     0.005180  d :     0.038536
      dxz     :     0.002077
      dyz     :     0.006764
      dx2y2   :     0.010803
      dxy     :     0.013712
      f0      :     0.000242  f :     0.001974
      f+1     :     0.000150
      f-1     :     0.000420
      f+2     :     0.000135
      f-2     :     0.000166
      f+3     :     0.000411
      f-3     :     0.000450
  1 C s       :     3.206300  s :     3.206300
      pz      :     1.045254  p :     2.687311
      px      :     0.910039
      py      :     0.732018
      dz2     :     0.005791  d :     0.130525
      dxz     :     0.027180
      dyz     :     0.038718
      dx2y2   :     0.031942
      dxy     :     0.026894
      f0      :     0.001594  f :     0.012262
      f+1     :     0.001225
      f-1     :     0.000929
      f+2     :     0.002114
      f-2     :     0.001225
      f+3     :     0.001819
      f-3     :     0.003355
  2 C s       :     3.255665  s :     3.255665
      pz      :     1.028061  p :     2.762601
      px      :     0.941316
      py      :     0.793224
      dz2     :     0.008232  d :     0.096433
      dxz     :     0.024731
      dyz     :     0.021363
      dx2y2   :     0.021046
      dxy     :     0.021062
      f0      :     0.001097  f :     0.009598
      f+1     :     0.001226
      f-1     :     0.000567
      f+2     :     0.000951
      f-2     :     0.001343
      f+3     :     0.002042
      f-3     :     0.002372
  3 H s       :     0.873367  s :     0.873367
      pz      :     0.008838  p :     0.018641
      px      :     0.006562
      py      :     0.003240
  4 H s       :     0.876410  s :     0.876410
      pz      :     0.010489  p :     0.020306
      px      :     0.006395
      py      :     0.003421
  5 H s       :     0.845754  s :     0.845754
      pz      :     0.010375  p :     0.021129
      px      :     0.006363
      py      :     0.004391
  6 H s       :     0.851833  s :     0.851833
      pz      :     0.010492  p :     0.019918
      px      :     0.005779
      py      :     0.003647


                     *******************************
                     * LOEWDIN POPULATION ANALYSIS *
                     *******************************

----------------------
LOEWDIN ATOMIC CHARGES
----------------------
   0 O :    0.093635
   1 C :   -0.378470
   2 C :   -0.220570
   3 H :    0.123031
   4 H :    0.115332
   5 H :    0.130481
   6 H :    0.136561

-------------------------------
LOEWDIN REDUCED ORBITAL CHARGES
-------------------------------
  0 O s       :     3.432020  s :     3.432020
      pz      :     1.731016  p :     4.386867
      px      :     1.299306
      py      :     1.356545
      dz2     :     0.011020  d :     0.081778
      dxz     :     0.005562
      dyz     :     0.014501
      dx2y2   :     0.027230
      dxy     :     0.023465
      f0      :     0.000533  f :     0.005701
      f+1     :     0.000216
      f-1     :     0.000868
      f+2     :     0.000375
      f-2     :     0.000627
      f+3     :     0.001229
      f-3     :     0.001853
  1 C s       :     2.822524  s :     2.822524
      pz      :     1.039182  p :     2.909516
      px      :     1.046792
      py      :     0.823543
      dz2     :     0.055562  d :     0.563130
      dxz     :     0.142553
      dyz     :     0.111941
      dx2y2   :     0.132066
      dxy     :     0.121007
      f0      :     0.010441  f :     0.083300
      f+1     :     0.005499
      f-1     :     0.007511
      f+2     :     0.014075
      f-2     :     0.005372
      f+3     :     0.014929
      f-3     :     0.025473
  2 C s       :     2.851126  s :     2.851126
      pz      :     1.049143  p :     2.917192
      px      :     1.071391
      py      :     0.796659
      dz2     :     0.046033  d :     0.398585
      dxz     :     0.125592
      dyz     :     0.060042
      dx2y2   :     0.081792
      dxy     :     0.085126
      f0      :     0.006755  f :     0.053667
      f+1     :     0.004891
      f-1     :     0.004111
      f+2     :     0.005706
      f-2     :     0.005192
      f+3     :     0.012208
      f-3     :     0.014805
  3 H s       :     0.825740  s :     0.825740
      pz      :     0.025953  p :     0.051229
      px      :     0.016293
      py      :     0.008983
  4 H s       :     0.826708  s :     0.826708
      pz      :     0.031406  p :     0.057960
      px      :     0.016589
      py      :     0.009965
  5 H s       :     0.809662  s :     0.809662
      pz      :     0.030796  p :     0.059857
      px      :     0.016591
      py      :     0.012470
  6 H s       :     0.808906  s :     0.808906
      pz      :     0.029892  p :     0.054533
      px      :     0.014358
      py      :     0.010284


                      *****************************
                      * MAYER POPULATION ANALYSIS *
                      *****************************

  NA   - Mulliken gross atomic population
  ZA   - Total nuclear charge
  QA   - Mulliken gross atomic charge
  VA   - Mayer's total valence
  BVA  - Mayer's bonded valence
  FA   - Mayer's free valence

  ATOM       NA         ZA         QA         VA         BVA        FA
  0 O      8.3119     8.0000    -0.3119     2.0020     2.0020     0.0000
  1 C      6.0364     6.0000    -0.0364     3.9820     3.9820    -0.0000
  2 C      6.1243     6.0000    -0.1243     3.9526     3.9526     0.0000
  3 H      0.8920     1.0000     0.1080     0.9608     0.9608    -0.0000
  4 H      0.8967     1.0000     0.1033     0.9545     0.9545    -0.0000
  5 H      0.8669     1.0000     0.1331     0.9565     0.9565    -0.0000
  6 H      0.8718     1.0000     0.1282     0.9612     0.9612     0.0000

  Mayer bond orders larger than 0.100000
B(  0-O ,  1-C ) :   0.9936 B(  0-O ,  2-C ) :   0.9727 B(  1-C ,  2-C ) :   1.0799 
B(  1-C ,  3-H ) :   0.9489 B(  1-C ,  4-H ) :   0.9461 B(  2-C ,  5-H ) :   0.9368 
B(  2-C ,  6-H ) :   0.9473 

-------
TIMINGS
-------

Total SCF time: 0 days 0 hours 0 min 1 sec 

Total time                  ....       1.016 sec
Sum of individual times     ....       0.893 sec  ( 87.9%)

Fock matrix formation       ....       0.685 sec  ( 67.4%)
  Split-RI-J                ....       0.113 sec  ( 16.5% of F)
  Chain of spheres X        ....       0.501 sec  ( 73.2% of F)
  XC integration            ....       0.061 sec  (  8.9% of F)
    Basis function eval.    ....       0.017 sec  ( 28.6% of XC)
    Density eval.           ....       0.013 sec  ( 21.9% of XC)
    XC-Functional eval.     ....       0.004 sec  (  5.9% of XC)
    XC-Potential eval.      ....       0.019 sec  ( 31.6% of XC)
Diagonalization             ....       0.002 sec  (  0.2%)
Density matrix formation    ....       0.000 sec  (  0.0%)
Population analysis         ....       0.003 sec  (  0.3%)
Initial guess               ....       0.008 sec  (  0.8%)
Orbital Transformation      ....       0.000 sec  (  0.0%)
Orbital Orthonormalization  ....       0.001 sec  (  0.1%)
DIIS solution               ....       0.001 sec  (  0.1%)
SOSCF solution              ....       0.002 sec  (  0.2%)
Grid generation             ....       0.191 sec  ( 18.8%)

Maximum memory used throughout the entire SCF-calculation: 61.1 MB


           ************************************************************
           *        Program running with 8 parallel MPI-processes     *
           *              working on a common directory               *
           ************************************************************
------------------------------------------------------------------------------
                        ORCA TD-DFT/TDA CALCULATION
------------------------------------------------------------------------------

Input orbitals are from        ... ox_es1_B_orca0007.gbw
CI-vector output               ... ox_es1_B_orca0007.cis
Tamm-Dancoff approximation     ... operative
CIS-Integral strategy          ... AO-integrals
Integral handling              ... AO integral Direct
Max. core memory used          ... 3000 MB
Reference state                ... RHF
Generation of triplets         ... off
Follow IRoot                   ... off
Number of operators            ... 1
Orbital ranges used for CIS calculation:
 Operator 0:  Orbitals   3... 11  to  12...116
XAS localization array:
 Operator 0:  Orbitals  -1... -1

-------------------
XC-INTEGRATION GRID
-------------------

General Integration Accuracy     IntAcc      ... 3.467
Radial Grid Type                 RadialGrid  ... OptM3 with GC (2021)
Angular Grid (max. ang.)         AngularGrid ... 1 (Lebedev-50)
Angular grid pruning method      GridPruning ... 4 (adaptive)
Weight generation scheme         WeightScheme... Becke
Basis function cutoff            BFCut       ... 1.0000e-11
Integration weight cutoff        WCut        ... 1.0000e-14
Angular grids for H and He will be reduced by one unit
Partially contracted basis set               ... off
Rotationally invariant grid construction     ... off

Total number of grid points                  ...     4539
Total number of batches                      ...       75
Average number of points per batch           ...       60
Average number of grid points per atom       ...      648

---------------------
COSX-INTEGRATION GRID
---------------------

General Integration Accuracy     IntAcc      ... 3.067
Radial Grid Type                 RadialGrid  ... OptM3 with GC (2021)
Angular Grid (max. ang.)         AngularGrid ... 1 (Lebedev-50)
Angular grid pruning method      GridPruning ... 4 (adaptive)
Weight generation scheme         WeightScheme... Becke
Basis function cutoff            BFCut       ... 1.0000e-11
Integration weight cutoff        WCut        ... 1.0000e-14
Angular grids for H and He will be reduced by one unit
Partially contracted basis set               ... on
Rotationally invariant grid construction     ... off

Total number of grid points                  ...     2085
Total number of batches                      ...       37
Average number of points per batch           ...       56
Average number of grid points per atom       ...      298

---------------
TD-DFT XC SETUP
---------------

DFT calculation                         ... on
Name of the grid file                   ... ox_es1_B_orca0007.grid_cis.tmp
Exchange functional (TD-DFT)            ... PBE
   PBE kappa parameter  XKappa (TD-DFT) ...  0.804000
   PBE mue parameter   XMuePBE (TD-DFT) ...  0.219520
Correlation functional (TD-DFT)         ... PBE
   PBE beta parameter CBetaPBE (TD-DFT) ...  0.066725
 LDA part of GGA corr.  LDAOpt (TD-DFT) ... PW91-LDA
Hybrid DFT                              ... on
   Exchange mixing (TD-DFT)             ...  0.250
   GGA exch. scaling (TD-DFT)           ...  0.750
   GGA corr. scaling (TD-DFT)           ...  1.000

Building densities             ... done
Calculating rho(r) on the grid ... done
Building xc-kernel on the grid ... done
                    *** TD-DFT CALCULATION INITIALIZED ***

------------------------
DAVIDSON-DIAGONALIZATION
------------------------

Dimension of the eigenvalue problem            ...    945
Number of roots to be determined               ...      1
Maximum size of the expansion space            ...     10
Maximum number of iterations                   ...    100
Convergence tolerance for the residual         ...    2.500e-07
Convergence tolerance for the energies         ...    2.500e-07
Orthogonality tolerance                        ...    1.000e-14
Level Shift                                    ...    0.000e+00
Constructing the preconditioner                ... o.k.
Building the initial guess                     ... o.k.
Number of trial vectors determined             ...     10


                       ****Iteration    0****

   Memory handling for direct AO based CIS:
   Memory per vector needed      ...     1 MB
   Memory needed                 ...     1 MB
   Memory available              ...  3000 MB
   Number of vectors per batch   ...  3000
   Number of batches             ...     1
   Time for densities:            0.001
   Time for RI-J (Direct):        0.015
   Time for K (COSX):             0.055
   Time for XC-Integration:       0.015
   Time for Sigma-Completion:     0.000
   Size of expansion space: 3
   Lowest Energy          :     0.241656433719
   Maximum Energy change  :     0.241656433719 (vector 0)
   Maximum residual norm  :     0.004256628190

                       ****Iteration    1****
   Time for densities:            0.000
   Time for RI-J (Direct):        0.012
   Time for K (COSX):             0.050
   Time for XC-Integration:       0.006
   Time for Sigma-Completion:     0.000
   Size of expansion space: 4
   Lowest Energy          :     0.237423257760
   Maximum Energy change  :     0.004233175959 (vector 0)
   Maximum residual norm  :     0.000496432248

                       ****Iteration    2****
   Time for densities:            0.000
   Time for RI-J (Direct):        0.012
   Time for K (COSX):             0.049
   Time for XC-Integration:       0.006
   Time for Sigma-Completion:     0.000
   Size of expansion space: 5
   Lowest Energy          :     0.236815343181
   Maximum Energy change  :     0.000607914579 (vector 0)
   Maximum residual norm  :     0.000094804571

                       ****Iteration    3****
   Time for densities:            0.000
   Time for RI-J (Direct):        0.012
   Time for K (COSX):             0.049
   Time for XC-Integration:       0.007
   Time for Sigma-Completion:     0.000
   Size of expansion space: 6
   Lowest Energy          :     0.236738020201
   Maximum Energy change  :     0.000077322981 (vector 0)
   Maximum residual norm  :     0.000005487404

                       ****Iteration    4****
   Time for densities:            0.000
   Time for RI-J (Direct):        0.012
   Time for K (COSX):             0.049
   Time for XC-Integration:       0.006
   Time for Sigma-Completion:     0.000
   Size of expansion space: 7
   Lowest Energy          :     0.236728898152
   Maximum Energy change  :     0.000009122048 (vector 0)
   Maximum residual norm  :     0.000001325176

                       ****Iteration    5****
   Time for densities:            0.000
   Time for RI-J (Direct):        0.012
   Time for K (COSX):             0.049
   Time for XC-Integration:       0.006
   Time for Sigma-Completion:     0.000
   Size of expansion space: 8
   Lowest Energy          :     0.236727439087
   Maximum Energy change  :     0.000001459066 (vector 0)
   Maximum residual norm  :     0.000000069655

      *** CONVERGENCE OF RESIDUAL NORM REACHED ***

Storing the converged CI vectors               ... ox_es1_B_orca0007.cis1

                 *** DAVIDSON DONE ***

Total time for solving the CIS problem:     0.430sec

------------------------------------
TD-DFT/TDA EXCITED STATES (SINGLETS)
------------------------------------

the weight of the individual excitations are printed if larger than 1.0e-02

STATE  1:  E=   0.236727 au      6.442 eV    51955.7 cm**-1 <S**2> =   0.000000
    11a ->  12a  :     0.948984 (c= -0.97415792)
    11a ->  13a  :     0.025902 (c=  0.16094251)


-----------------------------
TD-DFT/TDA-EXCITATION SPECTRA
-----------------------------

Center of mass = ( -0.1269,  0.0813,  0.0433)
Calculating the Dipole integrals                  ... done
Transforming integrals                            ... done
Calculating the Linear Momentum integrals         ... done
Transforming integrals                            ... done
Calculating angular momentum integrals            ... done
Transforming integrals                            ... done

-----------------------------------------------------------------------------
         ABSORPTION SPECTRUM VIA TRANSITION ELECTRIC DIPOLE MOMENTS
-----------------------------------------------------------------------------
State   Energy    Wavelength  fosc         T2        TX        TY        TZ  
        (cm-1)      (nm)                 (au**2)    (au)      (au)      (au) 
-----------------------------------------------------------------------------
   1   51955.7    192.5   0.007140675   0.04525   0.06242  -0.00369   0.20331

-----------------------------------------------------------------------------
         ABSORPTION SPECTRUM VIA TRANSITION VELOCITY DIPOLE MOMENTS
-----------------------------------------------------------------------------
State   Energy    Wavelength   fosc        P2         PX        PY        PZ  
        (cm-1)      (nm)                 (au**2)     (au)      (au)      (au) 
-----------------------------------------------------------------------------
   1   51955.7    192.5   0.018549668   0.00659  -0.00406   0.01356  -0.07992

-------------------------------------------------------------------
                             CD SPECTRUM
-------------------------------------------------------------------
State  Energy     Wavelength     R         MX        MY        MZ   
       (cm-1)       (nm)     (1e40*cgs)   (au)      (au)      (au)  
-------------------------------------------------------------------
   1   51955.7    192.5      4.32251   0.10788  -0.18173   0.00868

-------------------------------------------------------------------
         CD SPECTRUM VIA TRANSITION VELOCITY DIPOLE MOMENTS        
-------------------------------------------------------------------
State  Energy     Wavelength     R         MX        MY        MZ   
       (cm-1)       (nm)     (1e40*cgs)   (au)      (au)      (au)  
-------------------------------------------------------------------
   1   51955.7    192.5     -7.16246   0.10788  -0.18173   0.00868

Total run time:        0.709 sec

           *** ORCA-CIS/TD-DFT FINISHED WITHOUT ERROR ***

Maximum memory used throughout the entire CIS-calculation: 49.4 MB

-----------------------
CIS/TD-DFT TOTAL ENERGY
-----------------------

    E(SCF)  =   -153.650975443 Eh
    DE(CIS) =      0.236727439 Eh (Root  1)
    ----------------------------- ---------
    E(tot)  =   -153.414248004 Eh



-------------------------------------------------------------------------------
                          DFT DISPERSION CORRECTION                            
                                                                               
                              DFTD3 V3.1  Rev 1                                
                          USING Becke-Johnson damping                          
-------------------------------------------------------------------------------
The PBE0 functional is recognized
Active option DFTDOPT                   ...         4   

molecular C6(AA) [au] = 351.528837 


            DFT-D V3
 parameters
 s6 scaling factor         :     1.0000 
 a1 scaling factor         :     0.4145 
 s8 scaling factor         :     1.2177 
 a2 scaling factor         :     4.8593 
 ad hoc parameters k1-k3   :    16.0000     1.3333    -4.0000 

 Edisp/kcal,au: -1.504732300604  -0.002397943302 
 E6   /kcal   :  -0.985832621 
 E8   /kcal   :  -0.518899679 
 % E8         :  34.484517875 

-------------------------   ----------------
Dispersion correction           -0.002397943
-------------------------   ----------------


-------------------------   --------------------
FINAL SINGLE POINT ENERGY      -153.416645947003
-------------------------   --------------------



           ************************************************************
           *        Program running with 8 parallel MPI-processes     *
           *              working on a common directory               *
           ************************************************************
------------------------------------------------------------------------------
                         ORCA SCF GRADIENT CALCULATION
------------------------------------------------------------------------------


------------------------
TD-DFT GRADIENT XC SETUP
------------------------

Building densities                     ... done
Calculating rho(r) on the grid         ... done
Building xc-kernel on the grid         ... done
Building xc 3rd derivative on the grid      ... done
                *** TD-DFT GRADIENT CALCULATION INITIALIZED ***

-------------------
TD-DFT/TDA GRADIENT
-------------------

Reference wavefunction             ... RHF
State of interest                  ... 1
Basis dimension                    ... 117
DFT-XC contribution needed         ... YES
RI-approximation                   ... ON
CIS-vectors being read from        ... ox_es1_B_orca0007.cis

 => Number of Vectors found: 1
 => Orbital Window: 3...11 -> 12...116

Reading the CIS file                     ... done
Norm of the CI vector                    ... 1.000000000
Making the CIS (pseudo)densities         ... done
Making operators G(D) and Q(T)           ... done
Transforming the Fock operators          ... done
Making the frozen-core relaxed density   ... done
Constructing the G(H) operator           ... done
Transforming the G(H) operator           ... done
Calculating the CIS Lagrangian           ... done
Solving the Z-vector equations           ... done
Finalizing the relaxed density           ... done
Storing the relaxed density              ... done
Constructing the G(Z) operator           ... done
Transforming the G(Z) operator           ... done
Making the W-matrix                      ... done
Finalizing the W-matrix                  ... done
Transforming the W-matrix                ... done
Nuclear repulsion gradient               ... done
One-Electron gradient                    ... done
Dispersion correction                    ... done
Prescreening matrices                    ... done
COSX-gradient                            ... done
Coulomb gradient (RI)                    ... done
Exchange-Correlation gradient            ... done

                 ---------------------------
                 EXCITED STATE GRADIENT DONE
                 ---------------------------

------------------
CARTESIAN GRADIENT
------------------

   1   O   :    0.111090849   -0.120068822   -0.017739143
   2   C   :    0.008130594   -0.002302962   -0.017038268
   3   C   :   -0.117182574    0.145885355   -0.004900976
   4   H   :   -0.017107526   -0.007813238    0.022173361
   5   H   :    0.000512059   -0.007618790   -0.003300373
   6   H   :    0.001667290    0.002849777   -0.009520680
   7   H   :    0.012831261   -0.010995718    0.030378016

Difference to translation invariance:
           :   -0.0000580472   -0.0000643992    0.0000519367

Difference to rotation invariance:
           :    0.0002708582    0.0000264930    0.0002300305

Norm of the cartesian gradient     ...    0.2543558308
RMS gradient                       ...    0.0555049928
MAX gradient                       ...    0.1458853545

------------------------------------------------------------------------------
                  RELAXED CIS/TDA DENSITY POPULATION ANALYSIS
                                   IROOT 1
------------------------------------------------------------------------------
------------------------------------------------------------------------------
                           ORCA POPULATION ANALYSIS
------------------------------------------------------------------------------
Input electron density              ... ox_es1_B_orca0007.cisp
BaseName (.gbw .S,...)              ... ox_es1_B_orca0007

                    ********************************
                    * MULLIKEN POPULATION ANALYSIS *
                    ********************************

-----------------------
MULLIKEN ATOMIC CHARGES
-----------------------
   0 O :    0.049258
   1 C :   -0.075008
   2 C :   -0.551094
   3 H :    0.161802
   4 H :    0.164172
   5 H :    0.108170
   6 H :    0.142700
Sum of atomic charges:   -0.0000000

--------------------------------
MULLIKEN REDUCED ORBITAL CHARGES
--------------------------------
  0 O s       :     3.789178  s :     3.789178
      pz      :     1.135057  p :     4.124614
      px      :     1.606665
      py      :     1.382892
      dz2     :     0.003531  d :     0.035605
      dxz     :     0.002300
      dyz     :     0.006623
      dx2y2   :     0.010347
      dxy     :     0.012804
      f0      :     0.000070  f :     0.001345
      f+1     :    -0.000043
      f-1     :     0.000160
      f+2     :     0.000130
      f-2     :     0.000129
      f+3     :     0.000458
      f-3     :     0.000439
  1 C s       :     3.209290  s :     3.209290
      pz      :     1.016818  p :     2.747658
      px      :     0.978568
      py      :     0.752272
      dz2     :     0.005566  d :     0.106742
      dxz     :     0.027434
      dyz     :     0.016925
      dx2y2   :     0.029988
      dxy     :     0.026829
      f0      :     0.000998  f :     0.011317
      f+1     :     0.001327
      f-1     :     0.000742
      f+2     :     0.001307
      f-2     :     0.000983
      f+3     :     0.002770
      f-3     :     0.003190
  2 C s       :     3.347608  s :     3.347608
      pz      :     1.050683  p :     3.108612
      px      :     0.860289
      py      :     1.197640
      dz2     :     0.008104  d :     0.085785
      dxz     :     0.013351
      dyz     :     0.006131
      dx2y2   :     0.027648
      dxy     :     0.030552
      f0      :     0.000769  f :     0.009089
      f+1     :     0.001049
      f-1     :     0.000906
      f+2     :     0.000779
      f-2     :     0.000866
      f+3     :     0.002742
      f-3     :     0.001979
  3 H s       :     0.818690  s :     0.818690
      pz      :     0.009260  p :     0.019508
      px      :     0.006921
      py      :     0.003326
  4 H s       :     0.814450  s :     0.814450
      pz      :     0.010925  p :     0.021378
      px      :     0.006869
      py      :     0.003584
  5 H s       :     0.865610  s :     0.865610
      pz      :     0.009371  p :     0.026220
      px      :     0.006151
      py      :     0.010698
  6 H s       :     0.834636  s :     0.834636
      pz      :     0.009471  p :     0.022664
      px      :     0.005854
      py      :     0.007340


                     *******************************
                     * LOEWDIN POPULATION ANALYSIS *
                     *******************************

----------------------
LOEWDIN ATOMIC CHARGES
----------------------
   0 O :    0.322463
   1 C :   -0.358517
   2 C :   -0.530012
   3 H :    0.163148
   4 H :    0.160132
   5 H :    0.108459
   6 H :    0.134328

-------------------------------
LOEWDIN REDUCED ORBITAL CHARGES
-------------------------------
  0 O s       :     3.479320  s :     3.479320
      pz      :     1.083030  p :     4.092123
      px      :     1.553937
      py      :     1.455155
      dz2     :     0.013469  d :     0.100341
      dxz     :     0.006625
      dyz     :     0.014757
      dx2y2   :     0.027412
      dxy     :     0.038078
      f0      :     0.000520  f :     0.005754
      f+1     :     0.000172
      f-1     :     0.000754
      f+2     :     0.000333
      f-2     :     0.000631
      f+3     :     0.001525
      f-3     :     0.001819
  1 C s       :     2.829147  s :     2.829147
      pz      :     0.999699  p :     2.949066
      px      :     1.096956
      py      :     0.852412
      dz2     :     0.053053  d :     0.496546
      dxz     :     0.134612
      dyz     :     0.055372
      dx2y2   :     0.136533
      dxy     :     0.116976
      f0      :     0.007386  f :     0.083758
      f+1     :     0.005538
      f-1     :     0.007424
      f+2     :     0.009832
      f-2     :     0.004434
      f+3     :     0.024282
      f-3     :     0.024862
  2 C s       :     2.888443  s :     2.888443
      pz      :     1.051792  p :     3.118817
      px      :     1.030110
      py      :     1.036915
      dz2     :     0.055072  d :     0.458690
      dxz     :     0.110361
      dyz     :     0.030771
      dx2y2   :     0.104474
      dxy     :     0.158012
      f0      :     0.006084  f :     0.064062
      f+1     :     0.006276
      f-1     :     0.007923
      f+2     :     0.004571
      f-2     :     0.003871
      f+3     :     0.020751
      f-3     :     0.014586
  3 H s       :     0.783977  s :     0.783977
      pz      :     0.026739  p :     0.052875
      px      :     0.017202
      py      :     0.008935
  4 H s       :     0.779445  s :     0.779445
      pz      :     0.032183  p :     0.060424
      px      :     0.018116
      py      :     0.010125
  5 H s       :     0.816962  s :     0.816962
      pz      :     0.029223  p :     0.074580
      px      :     0.016811
      py      :     0.028546
  6 H s       :     0.804057  s :     0.804057
      pz      :     0.027653  p :     0.061615
      px      :     0.014422
      py      :     0.019540


                      *****************************
                      * MAYER POPULATION ANALYSIS *
                      *****************************

  NA   - Mulliken gross atomic population
  ZA   - Total nuclear charge
  QA   - Mulliken gross atomic charge
  VA   - Mayer's total valence
  BVA  - Mayer's bonded valence
  FA   - Mayer's free valence

  ATOM       NA         ZA         QA         VA         BVA        FA
  0 O      7.9507     8.0000     0.0493     1.8625     1.1116     0.7509
  1 C      6.0750     6.0000    -0.0750     3.9423     3.8177     0.1246
  2 C      6.5511     6.0000    -0.5511     3.9238     3.1050     0.8188
  3 H      0.8382     1.0000     0.1618     0.9533     0.9037     0.0495
  4 H      0.8358     1.0000     0.1642     0.9605     0.9009     0.0597
  5 H      0.8918     1.0000     0.1082     1.0148     0.9420     0.0728
  6 H      0.8573     1.0000     0.1427     0.9788     0.9624     0.0165

  Mayer bond orders larger than 0.100000
B(  0-O ,  1-C ) :   0.9781 B(  0-O ,  2-C ) :   0.1009 B(  1-C ,  2-C ) :   1.1007 
B(  1-C ,  3-H ) :   0.8779 B(  1-C ,  4-H ) :   0.8770 B(  2-C ,  5-H ) :   0.9283 
B(  2-C ,  6-H ) :   0.9525 


-------
TIMINGS
-------

Total TD-DFT gradient time         ...        5.030 sec

Fock matrix formation       ....       0.840 sec  ( 16.7%)
  Coulomb formation         ....       0.684 sec  ( 81.4% of F)
  RI-J                      ....       0.294 sec  ( 35.0% of F)
  Chain of spheres X        ....       0.389 sec  ( 46.3% of F)
  XC integration            ....       0.157 sec  ( 18.6% of F)
Z-vector equation           ....       1.413 sec  ( 28.1%)
One electron gradient       ....       0.032 sec  (  0.6%)
Prescreening matrices       ....       0.155 sec  (  3.1%)
RI-J Coulomb gradient       ....       0.260 sec  (  5.2%)
COSX gradient               ....       0.331 sec  (  6.6%)
XC gradient                 ....       1.677 sec  ( 33.3%)

Maximum memory used throughout the entire SCFGRAD-calculation: 130.3 MB

                            ***************************************
                            *     ORCA property calculations      *
                            ***************************************

                                    ---------------------
                                    Active property flags
                                    ---------------------
   (+) Dipole Moment


------------------------------------------------------------------------------
                       ORCA ELECTRIC PROPERTIES CALCULATION
------------------------------------------------------------------------------

Dipole Moment Calculation                       ... on
Quadrupole Moment Calculation                   ... off
Polarizability Calculation                      ... off
GBWName                                         ... ox_es1_B_orca0007.gbw
Electron density                                ... ox_es1_B_orca0007.scfp
The origin for moment calculation is the CENTER OF MASS  = (-0.126851,  0.081301  0.043256)

-------------
DIPOLE MOMENT
-------------
                                X             Y             Z
Electronic contribution:     -0.03525       1.81895       0.08113
Nuclear contribution   :      0.16165      -2.66088      -0.19255
                        -----------------------------------------
Total Dipole Moment    :      0.12640      -0.84193      -0.11143
                        -----------------------------------------
Magnitude (a.u.)       :      0.85862
Magnitude (Debye)      :      2.18245



--------------------
Rotational spectrum 
--------------------
 
Rotational constants in cm-1:     0.860996     0.681909     0.450506 
Rotational constants in MHz : 25812.003365 20443.114568 13505.838168 

 Dipole components along the rotational axes: 
x,y,z [a.u.] :    -0.618145    -0.595882     0.007510 
x,y,z [Debye]:    -1.571200    -1.514613     0.019089 

 

                        *** CIS RELAXED DENSITY ***

------------------------------------------------------------------------------
                       ORCA ELECTRIC PROPERTIES CALCULATION
------------------------------------------------------------------------------

Dipole Moment Calculation                       ... on
Quadrupole Moment Calculation                   ... off
Polarizability Calculation                      ... off
GBWName                                         ... ox_es1_B_orca0007.gbw
Electron density                                ... ox_es1_B_orca0007.cisp
The origin for moment calculation is the CENTER OF MASS  = (-0.126851,  0.081301  0.043256)

-------------
DIPOLE MOMENT
-------------
                                X             Y             Z
Electronic contribution:     -0.96636       2.40497       0.22167
Nuclear contribution   :      0.16165      -2.66088      -0.19255
                        -----------------------------------------
Total Dipole Moment    :     -0.80471      -0.25591       0.02911
                        -----------------------------------------
Magnitude (a.u.)       :      0.84493
Magnitude (Debye)      :      2.14763



--------------------
Rotational spectrum 
--------------------
 
Rotational constants in cm-1:     0.860996     0.681909     0.450506 
Rotational constants in MHz : 25812.003365 20443.114568 13505.838168 

 Dipole components along the rotational axes: 
x,y,z [a.u.] :     0.485938    -0.688795     0.057676 
x,y,z [Debye]:     1.235155    -1.750777     0.146602 

 

Timings for individual modules:

Sum of individual times         ...        7.557 sec (=   0.126 min)
GTO integral calculation        ...        0.265 sec (=   0.004 min)   3.5 %
SCF iterations                  ...        1.181 sec (=   0.020 min)  15.6 %
CIS module                      ...        0.914 sec (=   0.015 min)  12.1 %
SCF Gradient evaluation         ...        5.197 sec (=   0.087 min)  68.8 %
                             ****ORCA TERMINATED NORMALLY****
TOTAL RUN TIME: 0 days 0 hours 0 minutes 7 seconds 911 msec
