
                                 *****************
                                 * O   R   C   A *
                                 *****************

                                            #,                                       
                                            ###                                      
                                            ####                                     
                                            #####                                    
                                            ######                                   
                                           ########,                                 
                                     ,,################,,,,,                         
                               ,,#################################,,                 
                          ,,##########################################,,             
                       ,#########################################, ''#####,          
                    ,#############################################,,   '####,        
                  ,##################################################,,,,####,       
                ,###########''''           ''''###############################       
              ,#####''   ,,,,##########,,,,          '''####'''          '####       
            ,##' ,,,,###########################,,,                        '##       
           ' ,,###''''                  '''############,,,                           
         ,,##''                                '''############,,,,        ,,,,,,###''
      ,#''                                            '''#######################'''  
     '                                                          ''''####''''         
             ,#######,   #######,   ,#######,      ##                                
            ,#'     '#,  ##    ##  ,#'     '#,    #''#        ######   ,####,        
            ##       ##  ##   ,#'  ##            #'  '#       #        #'  '#        
            ##       ##  #######   ##           ,######,      #####,   #    #        
            '#,     ,#'  ##    ##  '#,     ,#' ,#      #,         ##   #,  ,#        
             '#######'   ##     ##  '#######'  #'      '#     #####' # '####'        



                  #######################################################
                  #                        -***-                        #
                  #          Department of theory and spectroscopy      #
                  #    Directorship and core code : Frank Neese         #
                  #        Max Planck Institute fuer Kohlenforschung    #
                  #                Kaiser Wilhelm Platz 1               #
                  #                 D-45470 Muelheim/Ruhr               #
                  #                      Germany                        #
                  #                                                     #
                  #                  All rights reserved                #
                  #                        -***-                        #
                  #######################################################


                         Program Version 5.0.2 -  RELEASE  -


 With contributions from (in alphabetic order):
   Daniel Aravena         : Magnetic Suceptibility
   Michael Atanasov       : Ab Initio Ligand Field Theory (pilot matlab implementation)
   Alexander A. Auer      : GIAO ZORA, VPT2 properties, NMR spectrum
   Ute Becker             : Parallelization
   Giovanni Bistoni       : ED, misc. LED, open-shell LED, HFLD
   Martin Brehm           : Molecular dynamics
   Dmytro Bykov           : SCF Hessian
   Vijay G. Chilkuri      : MRCI spin determinant printing, contributions to CSF-ICE
   Dipayan Datta          : RHF DLPNO-CCSD density
   Achintya Kumar Dutta   : EOM-CC, STEOM-CC
   Dmitry Ganyushin       : Spin-Orbit,Spin-Spin,Magnetic field MRCI
   Miquel Garcia          : C-PCM and meta-GGA Hessian, CC/C-PCM, Gaussian charge scheme
   Yang Guo               : DLPNO-NEVPT2, F12-NEVPT2, CIM, IAO-localization
   Andreas Hansen         : Spin unrestricted coupled pair/coupled cluster methods
   Benjamin Helmich-Paris : MC-RPA, TRAH-SCF, COSX integrals
   Lee Huntington         : MR-EOM, pCC
   Robert Izsak           : Overlap fitted RIJCOSX, COSX-SCS-MP3, EOM
   Marcus Kettner         : VPT2
   Christian Kollmar      : KDIIS, OOCD, Brueckner-CCSD(T), CCSD density, CASPT2, CASPT2-K
   Simone Kossmann        : Meta GGA functionals, TD-DFT gradient, OOMP2, MP2 Hessian
   Martin Krupicka        : Initial AUTO-CI
   Lucas Lang             : DCDCAS
   Marvin Lechner         : AUTO-CI (C++ implementation), FIC-MRCC
   Dagmar Lenk            : GEPOL surface, SMD
   Dimitrios Liakos       : Extrapolation schemes; Compound Job, initial MDCI parallelization
   Dimitrios Manganas     : Further ROCIS development; embedding schemes
   Dimitrios Pantazis     : SARC Basis sets
   Anastasios Papadopoulos: AUTO-CI, single reference methods and gradients
   Taras Petrenko         : DFT Hessian,TD-DFT gradient, ASA, ECA, R-Raman, ABS, FL, XAS/XES, NRVS
   Peter Pinski           : DLPNO-MP2, DLPNO-MP2 Gradient
   Christoph Reimann      : Effective Core Potentials
   Marius Retegan         : Local ZFS, SOC
   Christoph Riplinger    : Optimizer, TS searches, QM/MM, DLPNO-CCSD(T), (RO)-DLPNO pert. Triples
   Tobias Risthaus        : Range-separated hybrids, TD-DFT gradient, RPA, STAB
   Michael Roemelt        : Original ROCIS implementation
   Masaaki Saitow         : Open-shell DLPNO-CCSD energy and density
   Barbara Sandhoefer     : DKH picture change effects
   Avijit Sen             : IP-ROCIS
   Kantharuban Sivalingam : CASSCF convergence, NEVPT2, FIC-MRCI
   Bernardo de Souza      : ESD, SOC TD-DFT
   Georgi Stoychev        : AutoAux, RI-MP2 NMR, DLPNO-MP2 response
   Willem Van den Heuvel  : Paramagnetic NMR
   Boris Wezisla          : Elementary symmetry handling
   Frank Wennmohs         : Technical directorship


 We gratefully acknowledge several colleagues who have allowed us to
 interface, adapt or use parts of their codes:
   Stefan Grimme, W. Hujo, H. Kruse, P. Pracht,  : VdW corrections, initial TS optimization,
                  C. Bannwarth, S. Ehlert          DFT functionals, gCP, sTDA/sTD-DF
   Ed Valeev, F. Pavosevic, A. Kumar             : LibInt (2-el integral package), F12 methods
   Garnet Chan, S. Sharma, J. Yang, R. Olivares  : DMRG
   Ulf Ekstrom                                   : XCFun DFT Library
   Mihaly Kallay                                 : mrcc  (arbitrary order and MRCC methods)
   Jiri Pittner, Ondrej Demel                    : Mk-CCSD
   Frank Weinhold                                : gennbo (NPA and NBO analysis)
   Christopher J. Cramer and Donald G. Truhlar   : smd solvation model
   Lars Goerigk                                  : TD-DFT with DH, B97 family of functionals
   V. Asgeirsson, H. Jonsson                     : NEB implementation
   FAccTs GmbH                                   : IRC, NEB, NEB-TS, DLPNO-Multilevel, CI-OPT
                                                   MM, QMMM, 2- and 3-layer-ONIOM, Crystal-QMMM,
                                                   LR-CPCM, SF, NACMEs, symmetry and pop. for TD-DFT,
                                                   nearIR, NL-DFT gradient (VV10), updates on ESD,
                                                   ML-optimized integration grids
   S Lehtola, MJT Oliveira, MAL Marques          : LibXC Library
   Liviu Ungur et al                             : ANISO software


 Your calculation uses the libint2 library for the computation of 2-el integrals
 For citations please refer to: http://libint.valeyev.net

 Your ORCA version has been built with support for libXC version: 5.1.0
 For citations please refer to: https://tddft.org/programs/libxc/

 This ORCA versions uses:
   CBLAS   interface :  Fast vector & matrix operations
   LAPACKE interface :  Fast linear algebra routines
   SCALAPACK package :  Parallel linear algebra routines
   Shared memory     :  Shared parallel matrices
   BLAS/LAPACK       :  OpenBLAS 0.3.15  USE64BITINT DYNAMIC_ARCH NO_AFFINITY SkylakeX SINGLE_THREADED
        Core in use  :  SkylakeX
   Copyright (c) 2011-2014, The OpenBLAS Project


Your calculation utilizes the atom-pairwise dispersion correction
with the Becke-Johnson damping scheme (D3BJ)
Cite in your paper:
S.Grimme, S.Ehrlich, L.Goerigk, J Comput Chem, (2011), 32, 1456–1465 
S.Grimme, J.Antony, S.Ehrlich and H.Krieg, J.Chem.Phys., 132, (2010), 154104 
   

================================================================================

----- Orbital basis set information -----
Your calculation utilizes the basis: def2-TZVP
   F. Weigend and R. Ahlrichs, Phys. Chem. Chem. Phys. 7, 3297 (2005).

----- AuxJ basis set information -----
Your calculation utilizes the auxiliary basis: def2/J
   F. Weigend, Phys. Chem. Chem. Phys. 8, 1057 (2006).

================================================================================
                                        WARNINGS
                       Please study these warnings very carefully!
================================================================================

INFO   : Checking CIS options ...

WARNING: CIS/ROCIS methods need fully converged wavefunctions
  ===> : Setting SCFConvForced true
         You can overwrite this default with %scf ConvForced false 


INFO   : the flag for use of the SHARK integral package has been found!

================================================================================
                                       INPUT FILE
================================================================================
NAME = ox_es1_A_orca0028.inp
|  1> ! engrad PBE0 D3BJ def2-TZVP  
|  2> %pal nprocs 8 end
|  3> %maxcore 3000
|  4> 
|  5> %tddft
|  6>   nroots 1
|  7>   tda true
|  8>   Iroot 1
|  9>   end 
| 10> *xyz 0 1 
| 11> O   0.041516840827212284 0.7241201187045567 0.0035784218609696238
| 12> C   -0.7527724623382558 -0.4230714987126804 0.016683105264347416
| 13> C   0.7807665372128949 -0.47252130994273733 -0.013493746764668564
| 14> H   -1.3127611157891153 -0.6904854730038056 0.9388412446522426
| 15> H   -1.2259733391677323 -0.7143791762088814 -0.876495923994717
| 16> H   1.3316047129402475 -0.6475991148388149 -0.8261364293720967
| 17> H   1.2251334100448215 -0.7305035451655708 0.8310401575547861
| 18> *
| 19> 
| 20>                          ****END OF INPUT****
================================================================================

                     *******************************
                     * Energy+Gradient Calculation *
                     *******************************

---------------------------------
CARTESIAN COORDINATES (ANGSTROEM)
---------------------------------
  O      0.041517    0.724120    0.003578
  C     -0.752772   -0.423071    0.016683
  C      0.780767   -0.472521   -0.013494
  H     -1.312761   -0.690485    0.938841
  H     -1.225973   -0.714379   -0.876496
  H      1.331605   -0.647599   -0.826136
  H      1.225133   -0.730504    0.831040

----------------------------
CARTESIAN COORDINATES (A.U.)
----------------------------
  NO LB      ZA    FRAG     MASS         X           Y           Z
   0 O     8.0000    0    15.999    0.078455    1.368389    0.006762
   1 C     6.0000    0    12.011   -1.422534   -0.799489    0.031527
   2 C     6.0000    0    12.011    1.475435   -0.892936   -0.025499
   3 H     1.0000    0     1.008   -2.480759   -1.304828    1.774153
   4 H     1.0000    0     1.008   -2.316754   -1.349981   -1.656337
   5 H     1.0000    0     1.008    2.516368   -1.223785   -1.561172
   6 H     1.0000    0     1.008    2.315167   -1.380452    1.570438

--------------------------------
INTERNAL COORDINATES (ANGSTROEM)
--------------------------------
 O      0   0   0     0.000000000000     0.00000000     0.00000000
 C      1   0   0     1.395390926200     0.00000000     0.00000000
 C      1   2   0     1.406674191596    66.41446413     0.00000000
 H      2   1   3     1.111518402762   119.49585713   109.56873127
 H      2   1   3     1.051925858180   118.40866864   257.03302965
 H      3   1   2     0.997227688746   116.71338151   115.90123281
 H      3   1   2     0.988561716286   116.60670689   254.96976381

---------------------------
INTERNAL COORDINATES (A.U.)
---------------------------
 O      0   0   0     0.000000000000     0.00000000     0.00000000
 C      1   0   0     2.636906700278     0.00000000     0.00000000
 C      1   2   0     2.658228981772    66.41446413     0.00000000
 H      2   1   3     2.100465374034   119.49585713   109.56873127
 H      2   1   3     1.987851785151   118.40866864   257.03302965
 H      3   1   2     1.884487224893   116.71338151   115.90123281
 H      3   1   2     1.868110910259   116.60670689   254.96976381

---------------------
BASIS SET INFORMATION
---------------------
There are 3 groups of distinct atoms

 Group   1 Type O   : 11s6p2d1f contracted to 5s3p2d1f pattern {62111/411/11/1}
 Group   2 Type C   : 11s6p2d1f contracted to 5s3p2d1f pattern {62111/411/11/1}
 Group   3 Type H   : 5s1p contracted to 3s1p pattern {311/1}

Atom   0O    basis set group =>   1
Atom   1C    basis set group =>   2
Atom   2C    basis set group =>   2
Atom   3H    basis set group =>   3
Atom   4H    basis set group =>   3
Atom   5H    basis set group =>   3
Atom   6H    basis set group =>   3
---------------------------------
AUXILIARY/J BASIS SET INFORMATION
---------------------------------
There are 3 groups of distinct atoms

 Group   1 Type O   : 12s5p4d2f1g contracted to 6s4p3d1f1g pattern {711111/2111/211/2/1}
 Group   2 Type C   : 12s5p4d2f1g contracted to 6s4p3d1f1g pattern {711111/2111/211/2/1}
 Group   3 Type H   : 5s2p1d contracted to 3s1p1d pattern {311/2/1}

Atom   0O    basis set group =>   1
Atom   1C    basis set group =>   2
Atom   2C    basis set group =>   2
Atom   3H    basis set group =>   3
Atom   4H    basis set group =>   3
Atom   5H    basis set group =>   3
Atom   6H    basis set group =>   3

Checking for AutoStart:
The File: ox_es1_A_orca0028.gbw exists
Trying to determine its content:
     ... Fine, the file contains calculation information
     ... Fine, the calculation information was read
     ... Fine, the file contains a basis set
     ... Fine, the basis set was read
     ... Fine, the file contains a geometry
     ... Fine, the geometry was read
     ... Fine, the file contains a set of orbitals
     ... Fine, the orbitals can be read
     => possible old guess file was deleted
     => GBW file was renamed to GES file
     => GES file is set as startup file
     => Guess is set to MORead
     ... now leaving AutoStart



           ************************************************************
           *        Program running with 8 parallel MPI-processes     *
           *              working on a common directory               *
           ************************************************************
------------------------------------------------------------------------------
                           ORCA GTO INTEGRAL CALCULATION
                           -- RI-GTO INTEGRALS CHOSEN --
------------------------------------------------------------------------------
------------------------------------------------------------------------------
                   ___                                                        
                  /   \      - P O W E R E D   B Y -                         
                 /     \                                                     
                 |  |  |   _    _      __       _____    __    __             
                 |  |  |  | |  | |    /  \     |  _  \  |  |  /  |          
                  \  \/   | |  | |   /    \    | | | |  |  | /  /          
                 / \  \   | |__| |  /  /\  \   | |_| |  |  |/  /          
                |  |  |   |  __  | /  /__\  \  |    /   |      \           
                |  |  |   | |  | | |   __   |  |    \   |  |\   \          
                \     /   | |  | | |  |  |  |  | |\  \  |  | \   \       
                 \___/    |_|  |_| |__|  |__|  |_| \__\ |__|  \__/        
                                                                              
                      - O R C A' S   B I G   F R I E N D -                    
                                      &                                       
                       - I N T E G R A L  F E E D E R -                       
                                                                              
 v1 FN, 2020, v2 2021                                                         
------------------------------------------------------------------------------


Reading SHARK input file ox_es1_A_orca0028.SHARKINP.tmp ... ok
----------------------
SHARK INTEGRAL PACKAGE
----------------------

Number of atoms                             ...      7
Number of basis functions                   ...    117
Number of shells                            ...     49
Maximum angular momentum                    ...      3
Integral batch strategy                     ... SHARK/LIBINT Hybrid
RI-J (if used) integral strategy            ... SPLIT-RIJ (Revised 2003 algorithm where possible)
Printlevel                                  ...      1
Contraction scheme used                     ... SEGMENTED contraction
Coulomb Range Separation                    ... NOT USED
Exchange Range Separation                   ... NOT USED
Finite Nucleus Model                        ... NOT USED
Auxiliary Coulomb fitting basis             ... AVAILABLE
   # of basis functions in Aux-J            ...    191
   # of shells in Aux-J                     ...     65
   Maximum angular momentum in Aux-J        ...      4
Auxiliary J/K fitting basis                 ... NOT available
Auxiliary Correlation fitting basis         ... NOT available
Auxiliary 'external' fitting basis          ... NOT available
Integral threshold                          ...     2.500000e-11
Primitive cut-off                           ...     2.500000e-12
Primitive pair pre-selection threshold      ...     2.500000e-12

Calculating pre-screening integrals         ... done (  0.0 sec) Dimension = 49
Organizing shell pair data                  ... done (  0.0 sec)
Shell pair information
Total number of shell pairs                 ...      1225
Shell pairs after pre-screening             ...      1220
Total number of primitive shell pairs       ...      3648
Primitive shell pairs kept                  ...      3153
          la=0 lb=0:    373 shell pairs
          la=1 lb=0:    351 shell pairs
          la=1 lb=1:     91 shell pairs
          la=2 lb=0:    162 shell pairs
          la=2 lb=1:     78 shell pairs
          la=2 lb=2:     21 shell pairs
          la=3 lb=0:     81 shell pairs
          la=3 lb=1:     39 shell pairs
          la=3 lb=2:     18 shell pairs
          la=3 lb=3:      6 shell pairs

Calculating one electron integrals          ... done (  0.0 sec)
Calculating RI/J V-Matrix + Cholesky decomp.... done (  0.0 sec)
Calculating Nuclear repulsion               ... done (  0.0 sec) ENN=     76.086047005043 Eh

SHARK setup successfully completed in   0.1 seconds

Maximum memory used throughout the entire GTOINT-calculation: 14.9 MB


           ************************************************************
           *        Program running with 8 parallel MPI-processes     *
           *              working on a common directory               *
           ************************************************************
-------------------------------------------------------------------------------
                                 ORCA SCF
-------------------------------------------------------------------------------

------------
SCF SETTINGS
------------
Hamiltonian:
 Density Functional     Method          .... DFT(GTOs)
 Exchange Functional    Exchange        .... PBE
   PBE kappa parameter   XKappa         ....  0.804000
   PBE mue parameter    XMuePBE         ....  0.219520
 Correlation Functional Correlation     .... PBE
   PBE beta parameter  CBetaPBE         ....  0.066725
 LDA part of GGA corr.  LDAOpt          .... PW91-LDA
 Gradients option       PostSCFGGA      .... off
 Hybrid DFT is turned on
   Fraction HF Exchange ScalHFX         ....  0.250000
   Scaling of DF-GGA-X  ScalDFX         ....  0.750000
   Scaling of DF-GGA-C  ScalDFC         ....  1.000000
   Scaling of DF-LDA-C  ScalLDAC        ....  1.000000
   Perturbative correction              ....  0.000000
   Density functional embedding theory  .... OFF
   NL short-range parameter             ....  6.900000
 RI-approximation to the Coulomb term is turned on
   Number of AuxJ basis functions       .... 191
   RIJ-COSX (HFX calculated with COS-X)).... on


General Settings:
 Integral files         IntName         .... ox_es1_A_orca0028
 Hartree-Fock type      HFTyp           .... RHF
 Total Charge           Charge          ....    0
 Multiplicity           Mult            ....    1
 Number of Electrons    NEL             ....   24
 Basis Dimension        Dim             ....  117
 Nuclear Repulsion      ENuc            ....     76.0860470050 Eh

Convergence Acceleration:
 DIIS                   CNVDIIS         .... on
   Start iteration      DIISMaxIt       ....    12
   Startup error        DIISStart       ....  0.200000
   # of expansion vecs  DIISMaxEq       ....     5
   Bias factor          DIISBfac        ....   1.050
   Max. coefficient     DIISMaxC        ....  10.000
 Trust-Rad. Augm. Hess. CNVTRAH         .... auto
   Auto Start mean grad. ratio tolernc. ....  1.125000
   Auto Start start iteration           ....     1
   Auto Start num. interpolation iter.  ....    10
   Max. Number of Micro iterations      ....    16
   Max. Number of Macro iterations      .... Maxiter - #DIIS iter
   Number of Davidson start vectors     ....     2
   Converg. threshold I  (grad. norm)   ....   1.000e-05
   Converg. threshold II (energy diff.) ....   1.000e-08
   Grad. Scal. Fac. for Micro threshold ....   0.100
   Minimum threshold for Micro iter.    ....   0.010
   NR start threshold (gradient norm)   ....   0.001
   Initial trust radius                 ....   0.400
   Minimum AH scaling param. (alpha)    ....   1.000
   Maximum AH scaling param. (alpha)    .... 1000.000
   Orbital update algorithm             .... Taylor
   White noise on init. David. guess    .... on
   Maximum white noise                  ....   0.010
   Quad. conv. algorithm                .... NR
 SOSCF                  CNVSOSCF        .... on
   Start iteration      SOSCFMaxIt      ....   150
   Startup grad/error   SOSCFStart      ....  0.003300
 Level Shifting         CNVShift        .... on
   Level shift para.    LevelShift      ....    0.2500
   Turn off err/grad.   ShiftErr        ....    0.0010
 Zerner damping         CNVZerner       .... off
 Static damping         CNVDamp         .... on
   Fraction old density DampFac         ....    0.7000
   Max. Damping (<1)    DampMax         ....    0.9800
   Min. Damping (>=0)   DampMin         ....    0.0000
   Turn off err/grad.   DampErr         ....    0.1000
 Fernandez-Rico         CNVRico         .... off

SCF Procedure:
 Maximum # iterations   MaxIter         ....   125
 SCF integral mode      SCFMode         .... Direct
   Integral package                     .... SHARK and LIBINT hybrid scheme
 Reset frequency        DirectResetFreq ....    20
 Integral Threshold     Thresh          ....  2.500e-11 Eh
 Primitive CutOff       TCut            ....  2.500e-12 Eh

Convergence Tolerance:
 Convergence Check Mode ConvCheckMode   .... Total+1el-Energy
 Convergence forced     ConvForced      .... 1
 Energy Change          TolE            ....  1.000e-08 Eh
 1-El. energy change                    ....  1.000e-05 Eh
 Orbital Gradient       TolG            ....  1.000e-05
 Orbital Rotation angle TolX            ....  1.000e-05
 DIIS Error             TolErr          ....  5.000e-07


Diagonalization of the overlap matrix:
Smallest eigenvalue                        ... 5.714e-04
Time for diagonalization                   ...    0.001 sec
Threshold for overlap eigenvalues          ... 1.000e-08
Number of eigenvalues below threshold      ... 0
Time for construction of square roots      ...    0.001 sec
Total time needed                          ...    0.003 sec

---------------------
INITIAL GUESS: MOREAD
---------------------
Guess MOs are being read from file: ox_es1_A_orca0028.ges
Input Geometry matches current geometry (good)
Input basis set matches current basis set (good)
MOs were renormalized
MOs were reorthogonalized (Cholesky)
                      ------------------
                      INITIAL GUESS DONE (   0.0 sec)
                      ------------------
-------------------
DFT GRID GENERATION
-------------------

General Integration Accuracy     IntAcc      ... 4.388
Radial Grid Type                 RadialGrid  ... OptM3 with GC (2021)
Angular Grid (max. ang.)         AngularGrid ... 4 (Lebedev-302)
Angular grid pruning method      GridPruning ... 4 (adaptive)
Weight generation scheme         WeightScheme... Becke
Basis function cutoff            BFCut       ... 1.0000e-11
Integration weight cutoff        WCut        ... 1.0000e-14
Angular grids for H and He will be reduced by one unit
Partially contracted basis set               ... off
Rotationally invariant grid construction     ... off

Total number of grid points                  ...    31292
Total number of batches                      ...      493
Average number of points per batch           ...       63
Average number of grid points per atom       ...     4470
Time for grid setup =    0.121 sec

--------------------
COSX GRID GENERATION
--------------------

GRIDX 1
-------
General Integration Accuracy     IntAcc      ... 3.816
Radial Grid Type                 RadialGrid  ... OptM3 with GC (2021)
Angular Grid (max. ang.)         AngularGrid ... 1 (Lebedev-50)
Angular grid pruning method      GridPruning ... 4 (adaptive)
Weight generation scheme         WeightScheme... Becke
Basis function cutoff            BFCut       ... 1.0000e-11
Integration weight cutoff        WCut        ... 1.0000e-14
Angular grids for H and He will be reduced by one unit
Partially contracted basis set               ... on
Rotationally invariant grid construction     ... off

Total number of grid points                  ...     4034
Total number of batches                      ...       68
Average number of points per batch           ...       59
Average number of grid points per atom       ...      576
UseSFitting                                  ... on

GRIDX 2
-------
General Integration Accuracy     IntAcc      ... 4.020
Radial Grid Type                 RadialGrid  ... OptM3 with GC (2021)
Angular Grid (max. ang.)         AngularGrid ... 2 (Lebedev-110)
Angular grid pruning method      GridPruning ... 4 (adaptive)
Weight generation scheme         WeightScheme... Becke
Basis function cutoff            BFCut       ... 1.0000e-11
Integration weight cutoff        WCut        ... 1.0000e-14
Angular grids for H and He will be reduced by one unit
Partially contracted basis set               ... on
Rotationally invariant grid construction     ... off

Total number of grid points                  ...     8708
Total number of batches                      ...      140
Average number of points per batch           ...       62
Average number of grid points per atom       ...     1244
UseSFitting                                  ... on

GRIDX 3
-------
General Integration Accuracy     IntAcc      ... 4.338
Radial Grid Type                 RadialGrid  ... OptM3 with GC (2021)
Angular Grid (max. ang.)         AngularGrid ... 3 (Lebedev-194)
Angular grid pruning method      GridPruning ... 4 (adaptive)
Weight generation scheme         WeightScheme... Becke
Basis function cutoff            BFCut       ... 1.0000e-11
Integration weight cutoff        WCut        ... 1.0000e-14
Angular grids for H and He will be reduced by one unit
Partially contracted basis set               ... on
Rotationally invariant grid construction     ... off

Total number of grid points                  ...    19238
Total number of batches                      ...      303
Average number of points per batch           ...       63
Average number of grid points per atom       ...     2748
UseSFitting                                  ... on

Time for X-Grid setup             =    0.075 sec

--------------
SCF ITERATIONS
--------------
ITER       Energy         Delta-E        Max-DP      RMS-DP      [F,P]     Damp
               ***  Starting incremental Fock matrix formation  ***
                      *** Initiating the SOSCF procedure ***
                      *** Re-Reading the Fockian *** 
                      *** Removing any level shift *** 
ITER      Energy       Delta-E        Grad      Rot      Max-DP    RMS-DP
  0   -153.65372292 -153.6537229171  0.000007  0.000007  0.000013  0.000000
               *** Restarting incremental Fock matrix formation ***
  1   -153.65372292  -0.0000000006  0.000008  0.000011  0.000019  0.000001
  2   -153.65372292   0.0000000023  0.000013  0.000007  0.000012  0.000000
                  ***Gradient check signals convergence***
              ***Rediagonalizing the Fockian in SOSCF/NRSCF***

               *****************************************************
               *                     SUCCESS                       *
               *           SCF CONVERGED AFTER   3 CYCLES          *
               *****************************************************

Old exchange energy                            =     -5.015575895 Eh
New exchange energy                            =     -5.015573837 Eh
Exchange energy change after final integration =      0.000002058 Eh
Total energy after final integration           =   -153.653720860 Eh
Final COS-X integration done in                =     0.271 sec

----------------
TOTAL SCF ENERGY
----------------

Total Energy       :         -153.65372086 Eh           -4181.13031 eV

Components:
Nuclear Repulsion  :           76.08604701 Eh            2070.40660 eV
Electronic Energy  :         -229.73976787 Eh           -6251.53691 eV
One Electron Energy:         -358.69814826 Eh           -9760.67284 eV
Two Electron Energy:          128.95838039 Eh            3509.13593 eV
Max COSX asymmetry :            0.00000294 Eh               0.00008 eV

Virial components:
Potential Energy   :         -306.89019264 Eh           -8350.90669 eV
Kinetic Energy     :          153.23647178 Eh            4169.77638 eV
Virial Ratio       :            2.00272291


DFT components:
N(Alpha)           :       12.000001093627 electrons
N(Beta)            :       12.000001093627 electrons
N(Total)           :       24.000002187255 electrons
E(X)               :      -15.011065401081 Eh       
E(C)               :       -0.792804354343 Eh       
E(XC)              :      -15.803869755423 Eh       
DFET-embed. en.    :        0.000000000000 Eh       

---------------
SCF CONVERGENCE
---------------

  Last Energy change         ...   -3.1058e-09  Tolerance :   1.0000e-08
  Last MAX-Density change    ...    7.7716e-16  Tolerance :   1.0000e-07
  Last RMS-Density change    ...    1.8487e-17  Tolerance :   5.0000e-09
  Last Orbital Gradient      ...    6.1018e-07  Tolerance :   1.0000e-05
  Last Orbital Rotation      ...    1.0344e-06  Tolerance :   1.0000e-05

             **** THE GBW FILE WAS UPDATED (ox_es1_A_orca0028.gbw) ****
             **** DENSITY ox_es1_A_orca0028.scfp WAS UPDATED ****
             **** ENERGY FILE WAS UPDATED (ox_es1_A_orca0028.en.tmp) ****
             **** THE GBW FILE WAS UPDATED (ox_es1_A_orca0028.gbw) ****
             **** DENSITY ox_es1_A_orca0028.scfp WAS UPDATED ****
----------------
ORBITAL ENERGIES
----------------

  NO   OCC          E(Eh)            E(eV) 
   0   2.0000     -19.226275      -523.1735 
   1   2.0000     -10.277459      -279.6639 
   2   2.0000     -10.256502      -279.0936 
   3   2.0000      -1.117600       -30.4114 
   4   2.0000      -0.701032       -19.0761 
   5   2.0000      -0.672814       -18.3082 
   6   2.0000      -0.537343       -14.6219 
   7   2.0000      -0.505273       -13.7492 
   8   2.0000      -0.438230       -11.9249 
   9   2.0000      -0.412283       -11.2188 
  10   2.0000      -0.311384        -8.4732 
  11   2.0000      -0.293715        -7.9924 
  12   0.0000       0.068523         1.8646 
  13   0.0000       0.073999         2.0136 
  14   0.0000       0.089886         2.4459 
  15   0.0000       0.109955         2.9920 
  16   0.0000       0.114175         3.1069 
  17   0.0000       0.158631         4.3166 
  18   0.0000       0.196154         5.3376 
  19   0.0000       0.218209         5.9378 
  20   0.0000       0.267455         7.2778 
  21   0.0000       0.273270         7.4361 
  22   0.0000       0.291185         7.9235 
  23   0.0000       0.347047         9.4436 
  24   0.0000       0.375299        10.2124 
  25   0.0000       0.384305        10.4575 
  26   0.0000       0.404734        11.0134 
  27   0.0000       0.431574        11.7437 
  28   0.0000       0.454803        12.3758 
  29   0.0000       0.474530        12.9126 
  30   0.0000       0.529650        14.4125 
  31   0.0000       0.536309        14.5937 
  32   0.0000       0.548950        14.9377 
  33   0.0000       0.703274        19.1371 
  34   0.0000       0.714844        19.4519 
  35   0.0000       0.722022        19.6472 
  36   0.0000       0.827093        22.5063 
  37   0.0000       0.869081        23.6489 
  38   0.0000       0.917674        24.9712 
  39   0.0000       0.935816        25.4649 
  40   0.0000       1.014587        27.6083 
  41   0.0000       1.018050        27.7026 
  42   0.0000       1.074650        29.2427 
  43   0.0000       1.075861        29.2757 
  44   0.0000       1.146710        31.2036 
  45   0.0000       1.348798        36.7027 
  46   0.0000       1.442434        39.2506 
  47   0.0000       1.476797        40.1857 
  48   0.0000       1.513959        41.1969 
  49   0.0000       1.517672        41.2979 
  50   0.0000       1.590424        43.2776 
  51   0.0000       1.638380        44.5826 
  52   0.0000       1.687342        45.9149 
  53   0.0000       1.745239        47.4904 
  54   0.0000       1.791947        48.7614 
  55   0.0000       1.812490        49.3204 
  56   0.0000       1.847228        50.2656 
  57   0.0000       1.917219        52.1702 
  58   0.0000       1.949010        53.0353 
  59   0.0000       1.980380        53.8889 
  60   0.0000       2.125065        57.8260 
  61   0.0000       2.159705        58.7686 
  62   0.0000       2.198219        59.8166 
  63   0.0000       2.261934        61.5504 
  64   0.0000       2.278323        61.9963 
  65   0.0000       2.450572        66.6835 
  66   0.0000       2.469904        67.2095 
  67   0.0000       2.518544        68.5331 
  68   0.0000       2.580764        70.2262 
  69   0.0000       2.627230        71.4906 
  70   0.0000       2.656891        72.2977 
  71   0.0000       2.673945        72.7617 
  72   0.0000       2.676142        72.8215 
  73   0.0000       2.748881        74.8008 
  74   0.0000       2.800669        76.2101 
  75   0.0000       2.835420        77.1557 
  76   0.0000       2.897925        78.8566 
  77   0.0000       2.961012        80.5732 
  78   0.0000       2.982246        81.1510 
  79   0.0000       3.032800        82.5267 
  80   0.0000       3.042112        82.7801 
  81   0.0000       3.098141        84.3047 
  82   0.0000       3.180352        86.5418 
  83   0.0000       3.215634        87.5019 
  84   0.0000       3.305105        89.9365 
  85   0.0000       3.360774        91.4513 
  86   0.0000       3.379033        91.9482 
  87   0.0000       3.451733        93.9264 
  88   0.0000       3.605299        98.1052 
  89   0.0000       3.649533        99.3089 
  90   0.0000       3.669366        99.8485 
  91   0.0000       3.723888       101.3321 
  92   0.0000       3.850043       104.7650 
  93   0.0000       3.988113       108.5221 
  94   0.0000       4.085008       111.1587 
  95   0.0000       4.189691       114.0073 
  96   0.0000       4.285845       116.6238 
  97   0.0000       4.359524       118.6287 
  98   0.0000       4.462090       121.4196 
  99   0.0000       4.603443       125.2660 
 100   0.0000       4.790531       130.3570 
 101   0.0000       4.857534       132.1802 
 102   0.0000       5.338707       145.2736 
 103   0.0000       5.503170       149.7489 
 104   0.0000       5.770984       157.0365 
 105   0.0000       5.807099       158.0192 
 106   0.0000       5.842862       158.9924 
 107   0.0000       5.948160       161.8577 
 108   0.0000       6.093986       165.8258 
 109   0.0000       6.646928       180.8721 
 110   0.0000       6.659428       181.2123 
 111   0.0000       6.792769       184.8406 
 112   0.0000       6.970077       189.6654 
 113   0.0000       7.187284       195.5759 
 114   0.0000      22.381374       609.0281 
 115   0.0000      22.663452       616.7039 
 116   0.0000      43.885246      1194.1783 

                    ********************************
                    * MULLIKEN POPULATION ANALYSIS *
                    ********************************

-----------------------
MULLIKEN ATOMIC CHARGES
-----------------------
   0 O :   -0.305257
   1 C :   -0.067002
   2 C :   -0.079021
   3 H :    0.113793
   4 H :    0.110117
   5 H :    0.118841
   6 H :    0.108529
Sum of atomic charges:   -0.0000000

--------------------------------
MULLIKEN REDUCED ORBITAL CHARGES
--------------------------------
  0 O s       :     3.842358  s :     3.842358
      pz      :     1.834073  p :     4.414525
      px      :     1.284919
      py      :     1.295533
      dz2     :     0.005948  d :     0.046077
      dxz     :     0.003062
      dyz     :     0.006943
      dx2y2   :     0.013263
      dxy     :     0.016860
      f0      :     0.000281  f :     0.002298
      f+1     :     0.000236
      f-1     :     0.000472
      f+2     :     0.000069
      f-2     :     0.000243
      f+3     :     0.000340
      f-3     :     0.000656
  1 C s       :     3.221345  s :     3.221345
      pz      :     1.039180  p :     2.724952
      px      :     0.885850
      py      :     0.799922
      dz2     :     0.005194  d :     0.108908
      dxz     :     0.025880
      dyz     :     0.030700
      dx2y2   :     0.027641
      dxy     :     0.019493
      f0      :     0.001530  f :     0.011797
      f+1     :     0.001435
      f-1     :     0.000691
      f+2     :     0.000933
      f-2     :     0.002015
      f+3     :     0.002397
      f-3     :     0.002795
  2 C s       :     3.202041  s :     3.202041
      pz      :     1.068816  p :     2.759748
      px      :     0.896417
      py      :     0.794516
      dz2     :     0.004961  d :     0.105521
      dxz     :     0.024150
      dyz     :     0.030160
      dx2y2   :     0.028146
      dxy     :     0.018104
      f0      :     0.001556  f :     0.011712
      f+1     :     0.001419
      f-1     :     0.000661
      f+2     :     0.001133
      f-2     :     0.001837
      f+3     :     0.002325
      f-3     :     0.002781
  3 H s       :     0.865754  s :     0.865754
      pz      :     0.010204  p :     0.020453
      px      :     0.006419
      py      :     0.003830
  4 H s       :     0.867145  s :     0.867145
      pz      :     0.011000  p :     0.022738
      px      :     0.006723
      py      :     0.005015
  5 H s       :     0.857453  s :     0.857453
      pz      :     0.010669  p :     0.023706
      px      :     0.008001
      py      :     0.005035
  6 H s       :     0.867167  s :     0.867167
      pz      :     0.011132  p :     0.024303
      px      :     0.007356
      py      :     0.005815


                     *******************************
                     * LOEWDIN POPULATION ANALYSIS *
                     *******************************

----------------------
LOEWDIN ATOMIC CHARGES
----------------------
   0 O :    0.156466
   1 C :   -0.294493
   2 C :   -0.263418
   3 H :    0.118570
   4 H :    0.104124
   5 H :    0.090456
   6 H :    0.088295

-------------------------------
LOEWDIN REDUCED ORBITAL CHARGES
-------------------------------
  0 O s       :     3.349381  s :     3.349381
      pz      :     1.704439  p :     4.381968
      px      :     1.274978
      py      :     1.402551
      dz2     :     0.011797  d :     0.104604
      dxz     :     0.009862
      dyz     :     0.016167
      dx2y2   :     0.037667
      dxy     :     0.029111
      f0      :     0.000734  f :     0.007582
      f+1     :     0.000326
      f-1     :     0.000883
      f+2     :     0.000129
      f-2     :     0.001178
      f+3     :     0.001320
      f-3     :     0.003012
  1 C s       :     2.824769  s :     2.824769
      pz      :     1.061952  p :     2.929065
      px      :     0.998975
      py      :     0.868138
      dz2     :     0.052149  d :     0.468145
      dxz     :     0.123965
      dyz     :     0.093759
      dx2y2   :     0.101876
      dxy     :     0.096395
      f0      :     0.009968  f :     0.072515
      f+1     :     0.005911
      f-1     :     0.005589
      f+2     :     0.005966
      f-2     :     0.009436
      f+3     :     0.016233
      f-3     :     0.019412
  2 C s       :     2.791478  s :     2.791478
      pz      :     1.084149  p :     2.941643
      px      :     1.000206
      py      :     0.857288
      dz2     :     0.052585  d :     0.458277
      dxz     :     0.122086
      dyz     :     0.088146
      dx2y2   :     0.104296
      dxy     :     0.091165
      f0      :     0.009460  f :     0.072019
      f+1     :     0.006406
      f-1     :     0.006139
      f+2     :     0.007496
      f-2     :     0.008174
      f+3     :     0.014935
      f-3     :     0.019409
  3 H s       :     0.822649  s :     0.822649
      pz      :     0.030506  p :     0.058781
      px      :     0.016929
      py      :     0.011346
  4 H s       :     0.827286  s :     0.827286
      pz      :     0.034685  p :     0.068589
      px      :     0.018579
      py      :     0.015326
  5 H s       :     0.832043  s :     0.832043
      pz      :     0.036012  p :     0.077501
      px      :     0.024542
      py      :     0.016947
  6 H s       :     0.832498  s :     0.832498
      pz      :     0.037657  p :     0.079206
      px      :     0.022563
      py      :     0.018987


                      *****************************
                      * MAYER POPULATION ANALYSIS *
                      *****************************

  NA   - Mulliken gross atomic population
  ZA   - Total nuclear charge
  QA   - Mulliken gross atomic charge
  VA   - Mayer's total valence
  BVA  - Mayer's bonded valence
  FA   - Mayer's free valence

  ATOM       NA         ZA         QA         VA         BVA        FA
  0 O      8.3053     8.0000    -0.3053     2.0023     2.0023    -0.0000
  1 C      6.0670     6.0000    -0.0670     3.9595     3.9595     0.0000
  2 C      6.0790     6.0000    -0.0790     3.9686     3.9686    -0.0000
  3 H      0.8862     1.0000     0.1138     0.9612     0.9612     0.0000
  4 H      0.8899     1.0000     0.1101     0.9567     0.9567     0.0000
  5 H      0.8812     1.0000     0.1188     0.9631     0.9631     0.0000
  6 H      0.8915     1.0000     0.1085     0.9604     0.9604    -0.0000

  Mayer bond orders larger than 0.100000
B(  0-O ,  1-C ) :   1.0069 B(  0-O ,  2-C ) :   0.9782 B(  1-C ,  2-C ) :   1.0408 
B(  1-C ,  3-H ) :   0.9511 B(  1-C ,  4-H ) :   0.9556 B(  2-C ,  5-H ) :   0.9691 
B(  2-C ,  6-H ) :   0.9696 

-------
TIMINGS
-------

Total SCF time: 0 days 0 hours 0 min 1 sec 

Total time                  ....       1.371 sec
Sum of individual times     ....       1.278 sec  ( 93.2%)

Fock matrix formation       ....       1.059 sec  ( 77.2%)
  Split-RI-J                ....       0.140 sec  ( 13.2% of F)
  Chain of spheres X        ....       0.782 sec  ( 73.9% of F)
  XC integration            ....       0.129 sec  ( 12.2% of F)
    Basis function eval.    ....       0.037 sec  ( 28.5% of XC)
    Density eval.           ....       0.027 sec  ( 21.3% of XC)
    XC-Functional eval.     ....       0.008 sec  (  6.2% of XC)
    XC-Potential eval.      ....       0.042 sec  ( 32.4% of XC)
Diagonalization             ....       0.003 sec  (  0.2%)
Density matrix formation    ....       0.001 sec  (  0.0%)
Population analysis         ....       0.003 sec  (  0.2%)
Initial guess               ....       0.011 sec  (  0.8%)
Orbital Transformation      ....       0.000 sec  (  0.0%)
Orbital Orthonormalization  ....       0.002 sec  (  0.1%)
DIIS solution               ....       0.001 sec  (  0.1%)
SOSCF solution              ....       0.007 sec  (  0.5%)
Grid generation             ....       0.195 sec  ( 14.2%)

Maximum memory used throughout the entire SCF-calculation: 61.1 MB


           ************************************************************
           *        Program running with 8 parallel MPI-processes     *
           *              working on a common directory               *
           ************************************************************
------------------------------------------------------------------------------
                        ORCA TD-DFT/TDA CALCULATION
------------------------------------------------------------------------------

Input orbitals are from        ... ox_es1_A_orca0028.gbw
CI-vector output               ... ox_es1_A_orca0028.cis
Tamm-Dancoff approximation     ... operative
CIS-Integral strategy          ... AO-integrals
Integral handling              ... AO integral Direct
Max. core memory used          ... 3000 MB
Reference state                ... RHF
Generation of triplets         ... off
Follow IRoot                   ... off
Number of operators            ... 1
Orbital ranges used for CIS calculation:
 Operator 0:  Orbitals   3... 11  to  12...116
XAS localization array:
 Operator 0:  Orbitals  -1... -1

-------------------
XC-INTEGRATION GRID
-------------------

General Integration Accuracy     IntAcc      ... 3.467
Radial Grid Type                 RadialGrid  ... OptM3 with GC (2021)
Angular Grid (max. ang.)         AngularGrid ... 1 (Lebedev-50)
Angular grid pruning method      GridPruning ... 4 (adaptive)
Weight generation scheme         WeightScheme... Becke
Basis function cutoff            BFCut       ... 1.0000e-11
Integration weight cutoff        WCut        ... 1.0000e-14
Angular grids for H and He will be reduced by one unit
Partially contracted basis set               ... off
Rotationally invariant grid construction     ... off

Total number of grid points                  ...     4533
Total number of batches                      ...       75
Average number of points per batch           ...       60
Average number of grid points per atom       ...      648

---------------------
COSX-INTEGRATION GRID
---------------------

General Integration Accuracy     IntAcc      ... 3.067
Radial Grid Type                 RadialGrid  ... OptM3 with GC (2021)
Angular Grid (max. ang.)         AngularGrid ... 1 (Lebedev-50)
Angular grid pruning method      GridPruning ... 4 (adaptive)
Weight generation scheme         WeightScheme... Becke
Basis function cutoff            BFCut       ... 1.0000e-11
Integration weight cutoff        WCut        ... 1.0000e-14
Angular grids for H and He will be reduced by one unit
Partially contracted basis set               ... on
Rotationally invariant grid construction     ... off

Total number of grid points                  ...     2083
Total number of batches                      ...       38
Average number of points per batch           ...       54
Average number of grid points per atom       ...      298

---------------
TD-DFT XC SETUP
---------------

DFT calculation                         ... on
Name of the grid file                   ... ox_es1_A_orca0028.grid_cis.tmp
Exchange functional (TD-DFT)            ... PBE
   PBE kappa parameter  XKappa (TD-DFT) ...  0.804000
   PBE mue parameter   XMuePBE (TD-DFT) ...  0.219520
Correlation functional (TD-DFT)         ... PBE
   PBE beta parameter CBetaPBE (TD-DFT) ...  0.066725
 LDA part of GGA corr.  LDAOpt (TD-DFT) ... PW91-LDA
Hybrid DFT                              ... on
   Exchange mixing (TD-DFT)             ...  0.250
   GGA exch. scaling (TD-DFT)           ...  0.750
   GGA corr. scaling (TD-DFT)           ...  1.000

Building densities             ... done
Calculating rho(r) on the grid ... done
Building xc-kernel on the grid ... done
                    *** TD-DFT CALCULATION INITIALIZED ***

------------------------
DAVIDSON-DIAGONALIZATION
------------------------

Dimension of the eigenvalue problem            ...    945
Number of roots to be determined               ...      1
Maximum size of the expansion space            ...     10
Maximum number of iterations                   ...    100
Convergence tolerance for the residual         ...    2.500e-07
Convergence tolerance for the energies         ...    2.500e-07
Orthogonality tolerance                        ...    1.000e-14
Level Shift                                    ...    0.000e+00
Constructing the preconditioner                ... o.k.
Building the initial guess                     ... o.k.
Number of trial vectors determined             ...     10


                       ****Iteration    0****

   Memory handling for direct AO based CIS:
   Memory per vector needed      ...     1 MB
   Memory needed                 ...     1 MB
   Memory available              ...  3000 MB
   Number of vectors per batch   ...  3000
   Number of batches             ...     1
   Time for densities:            0.000
   Time for RI-J (Direct):        0.017
   Time for K (COSX):             0.057
   Time for XC-Integration:       0.017
   Time for Sigma-Completion:     0.000
   Size of expansion space: 3
   Lowest Energy          :     0.302018818275
   Maximum Energy change  :     0.302018818275 (vector 0)
   Maximum residual norm  :     0.001888108121

                       ****Iteration    1****
   Time for densities:            0.000
   Time for RI-J (Direct):        0.013
   Time for K (COSX):             0.052
   Time for XC-Integration:       0.007
   Time for Sigma-Completion:     0.000
   Size of expansion space: 4
   Lowest Energy          :     0.298448103439
   Maximum Energy change  :     0.003570714836 (vector 0)
   Maximum residual norm  :     0.001025948787

                       ****Iteration    2****
   Time for densities:            0.000
   Time for RI-J (Direct):        0.013
   Time for K (COSX):             0.050
   Time for XC-Integration:       0.007
   Time for Sigma-Completion:     0.000
   Size of expansion space: 5
   Lowest Energy          :     0.296335836181
   Maximum Energy change  :     0.002112267258 (vector 0)
   Maximum residual norm  :     0.000185716176

                       ****Iteration    3****
   Time for densities:            0.000
   Time for RI-J (Direct):        0.013
   Time for K (COSX):             0.050
   Time for XC-Integration:       0.007
   Time for Sigma-Completion:     0.000
   Size of expansion space: 6
   Lowest Energy          :     0.296087949055
   Maximum Energy change  :     0.000247887126 (vector 0)
   Maximum residual norm  :     0.000031043084

                       ****Iteration    4****
   Time for densities:            0.000
   Time for RI-J (Direct):        0.013
   Time for K (COSX):             0.051
   Time for XC-Integration:       0.007
   Time for Sigma-Completion:     0.000
   Size of expansion space: 7
   Lowest Energy          :     0.296047091050
   Maximum Energy change  :     0.000040858005 (vector 0)
   Maximum residual norm  :     0.000001217788

                       ****Iteration    5****
   Time for densities:            0.000
   Time for RI-J (Direct):        0.013
   Time for K (COSX):             0.052
   Time for XC-Integration:       0.007
   Time for Sigma-Completion:     0.000
   Size of expansion space: 8
   Lowest Energy          :     0.296046032228
   Maximum Energy change  :     0.000001058822 (vector 0)
   Maximum residual norm  :     0.000000024516

      *** CONVERGENCE OF RESIDUAL NORM REACHED ***

Storing the converged CI vectors               ... ox_es1_A_orca0028.cis1

                 *** DAVIDSON DONE ***

Total time for solving the CIS problem:     0.452sec

------------------------------------
TD-DFT/TDA EXCITED STATES (SINGLETS)
------------------------------------

the weight of the individual excitations are printed if larger than 1.0e-02

STATE  1:  E=   0.296046 au      8.056 eV    64974.6 cm**-1 <S**2> =   0.000000
    11a ->  12a  :     0.351266 (c=  0.59267679)
    11a ->  13a  :     0.564281 (c=  0.75118628)
    11a ->  15a  :     0.062954 (c= -0.25090555)


-----------------------------
TD-DFT/TDA-EXCITATION SPECTRA
-----------------------------

Center of mass = (  0.0437, -0.0848,  0.0070)
Calculating the Dipole integrals                  ... done
Transforming integrals                            ... done
Calculating the Linear Momentum integrals         ... done
Transforming integrals                            ... done
Calculating angular momentum integrals            ... done
Transforming integrals                            ... done

-----------------------------------------------------------------------------
         ABSORPTION SPECTRUM VIA TRANSITION ELECTRIC DIPOLE MOMENTS
-----------------------------------------------------------------------------
State   Energy    Wavelength  fosc         T2        TX        TY        TZ  
        (cm-1)      (nm)                 (au**2)    (au)      (au)      (au) 
-----------------------------------------------------------------------------
   1   64974.6    153.9   0.001107604   0.00561  -0.05446  -0.01038   0.05039

-----------------------------------------------------------------------------
         ABSORPTION SPECTRUM VIA TRANSITION VELOCITY DIPOLE MOMENTS
-----------------------------------------------------------------------------
State   Energy    Wavelength   fosc        P2         PX        PY        PZ  
        (cm-1)      (nm)                 (au**2)     (au)      (au)      (au) 
-----------------------------------------------------------------------------
   1   64974.6    153.9   0.000875483   0.00039   0.00847  -0.00536  -0.01698

-------------------------------------------------------------------
                             CD SPECTRUM
-------------------------------------------------------------------
State  Energy     Wavelength     R         MX        MY        MZ   
       (cm-1)       (nm)     (1e40*cgs)   (au)      (au)      (au)  
-------------------------------------------------------------------
   1   64974.6    153.9      1.10311  -0.01701  -0.22802  -0.01892

-------------------------------------------------------------------
         CD SPECTRUM VIA TRANSITION VELOCITY DIPOLE MOMENTS        
-------------------------------------------------------------------
State  Energy     Wavelength     R         MX        MY        MZ   
       (cm-1)       (nm)     (1e40*cgs)   (au)      (au)      (au)  
-------------------------------------------------------------------
   1   64974.6    153.9      2.22904  -0.01701  -0.22802  -0.01892

Total run time:        0.710 sec

           *** ORCA-CIS/TD-DFT FINISHED WITHOUT ERROR ***

Maximum memory used throughout the entire CIS-calculation: 49.4 MB

-----------------------
CIS/TD-DFT TOTAL ENERGY
-----------------------

    E(SCF)  =   -153.653720860 Eh
    DE(CIS) =      0.296046032 Eh (Root  1)
    ----------------------------- ---------
    E(tot)  =   -153.357674828 Eh



-------------------------------------------------------------------------------
                          DFT DISPERSION CORRECTION                            
                                                                               
                              DFTD3 V3.1  Rev 1                                
                          USING Becke-Johnson damping                          
-------------------------------------------------------------------------------
The PBE0 functional is recognized
Active option DFTDOPT                   ...         4   

molecular C6(AA) [au] = 350.692350 


            DFT-D V3
 parameters
 s6 scaling factor         :     1.0000 
 a1 scaling factor         :     0.4145 
 s8 scaling factor         :     1.2177 
 a2 scaling factor         :     4.8593 
 ad hoc parameters k1-k3   :    16.0000     1.3333    -4.0000 

 Edisp/kcal,au: -1.511186869273  -0.002408229311 
 E6   /kcal   :  -0.991015929 
 E8   /kcal   :  -0.520170940 
 % E8         :  34.421351234 

-------------------------   ----------------
Dispersion correction           -0.002408229
-------------------------   ----------------


-------------------------   --------------------
FINAL SINGLE POINT ENERGY      -153.360083057548
-------------------------   --------------------



           ************************************************************
           *        Program running with 8 parallel MPI-processes     *
           *              working on a common directory               *
           ************************************************************
------------------------------------------------------------------------------
                         ORCA SCF GRADIENT CALCULATION
------------------------------------------------------------------------------


------------------------
TD-DFT GRADIENT XC SETUP
------------------------

Building densities                     ... done
Calculating rho(r) on the grid         ... done
Building xc-kernel on the grid         ... done
Building xc 3rd derivative on the grid      ... done
                *** TD-DFT GRADIENT CALCULATION INITIALIZED ***

-------------------
TD-DFT/TDA GRADIENT
-------------------

Reference wavefunction             ... RHF
State of interest                  ... 1
Basis dimension                    ... 117
DFT-XC contribution needed         ... YES
RI-approximation                   ... ON
CIS-vectors being read from        ... ox_es1_A_orca0028.cis

 => Number of Vectors found: 1
 => Orbital Window: 3...11 -> 12...116

Reading the CIS file                     ... done
Norm of the CI vector                    ... 1.000000000
Making the CIS (pseudo)densities         ... done
Making operators G(D) and Q(T)           ... done
Transforming the Fock operators          ... done
Making the frozen-core relaxed density   ... done
Constructing the G(H) operator           ... done
Transforming the G(H) operator           ... done
Calculating the CIS Lagrangian           ... done
Solving the Z-vector equations           ... done
Finalizing the relaxed density           ... done
Storing the relaxed density              ... done
Constructing the G(Z) operator           ... done
Transforming the G(Z) operator           ... done
Making the W-matrix                      ... done
Finalizing the W-matrix                  ... done
Transforming the W-matrix                ... done
Nuclear repulsion gradient               ... done
One-Electron gradient                    ... done
Dispersion correction                    ... done
Prescreening matrices                    ... done
COSX-gradient                            ... done
Coulomb gradient (RI)                    ... done
Exchange-Correlation gradient            ... done

                 ---------------------------
                 EXCITED STATE GRADIENT DONE
                 ---------------------------

------------------
CARTESIAN GRADIENT
------------------

   1   O   :    0.009698235   -0.055697771    0.000252055
   2   C   :    0.064740366    0.043977176   -0.026197057
   3   C   :   -0.001167323    0.023077779    0.002970234
   4   H   :   -0.005862453   -0.017652670    0.010823244
   5   H   :    0.019116750   -0.006805334    0.020893385
   6   H   :   -0.043205579    0.000619725    0.066955587
   7   H   :   -0.043269472    0.012434553   -0.075699478

Difference to translation invariance:
           :    0.0000505239   -0.0000465411   -0.0000020306

Difference to rotation invariance:
           :   -0.0000659041   -0.0000706764    0.0000246989

Norm of the cartesian gradient     ...    0.1611507976
RMS gradient                       ...    0.0351659871
MAX gradient                       ...    0.0756994780

------------------------------------------------------------------------------
                  RELAXED CIS/TDA DENSITY POPULATION ANALYSIS
                                   IROOT 1
------------------------------------------------------------------------------
------------------------------------------------------------------------------
                           ORCA POPULATION ANALYSIS
------------------------------------------------------------------------------
Input electron density              ... ox_es1_A_orca0028.cisp
BaseName (.gbw .S,...)              ... ox_es1_A_orca0028

                    ********************************
                    * MULLIKEN POPULATION ANALYSIS *
                    ********************************

-----------------------
MULLIKEN ATOMIC CHARGES
-----------------------
   0 O :    0.074888
   1 C :   -0.250811
   2 C :   -0.378438
   3 H :    0.138089
   4 H :    0.131931
   5 H :    0.140075
   6 H :    0.144267
Sum of atomic charges:   -0.0000000

--------------------------------
MULLIKEN REDUCED ORBITAL CHARGES
--------------------------------
  0 O s       :     3.860750  s :     3.860750
      pz      :     1.133576  p :     4.016479
      px      :     1.485576
      py      :     1.397326
      dz2     :     0.005277  d :     0.046055
      dxz     :     0.003667
      dyz     :     0.007918
      dx2y2   :     0.014159
      dxy     :     0.015034
      f0      :     0.000146  f :     0.001829
      f+1     :    -0.000005
      f-1     :     0.000244
      f+2     :     0.000088
      f-2     :     0.000278
      f+3     :     0.000388
      f-3     :     0.000689
  1 C s       :     3.077468  s :     3.077468
      pz      :     1.051898  p :     3.087954
      px      :     1.103616
      py      :     0.932439
      dz2     :     0.004699  d :     0.074847
      dxz     :     0.014902
      dyz     :     0.006474
      dx2y2   :     0.026203
      dxy     :     0.022570
      f0      :     0.001004  f :     0.010541
      f+1     :     0.001461
      f-1     :     0.000616
      f+2     :     0.000715
      f-2     :     0.001552
      f+3     :     0.002687
      f-3     :     0.002507
  2 C s       :     3.130071  s :     3.130071
      pz      :     1.085835  p :     3.160145
      px      :     1.093870
      py      :     0.980440
      dz2     :     0.005344  d :     0.077881
      dxz     :     0.015393
      dyz     :     0.006044
      dx2y2   :     0.029793
      dxy     :     0.021308
      f0      :     0.001015  f :     0.010342
      f+1     :     0.001424
      f-1     :     0.000620
      f+2     :     0.000817
      f-2     :     0.001369
      f+3     :     0.002655
      f-3     :     0.002443
  3 H s       :     0.836291  s :     0.836291
      pz      :     0.009989  p :     0.025621
      px      :     0.009802
      py      :     0.005829
  4 H s       :     0.841151  s :     0.841151
      pz      :     0.010870  p :     0.026919
      px      :     0.009219
      py      :     0.006830
  5 H s       :     0.830069  s :     0.830069
      pz      :     0.010087  p :     0.029857
      px      :     0.011632
      py      :     0.008137
  6 H s       :     0.826757  s :     0.826757
      pz      :     0.010778  p :     0.028975
      px      :     0.009705
      py      :     0.008492


                     *******************************
                     * LOEWDIN POPULATION ANALYSIS *
                     *******************************

----------------------
LOEWDIN ATOMIC CHARGES
----------------------
   0 O :    0.471977
   1 C :   -0.458280
   2 C :   -0.473321
   3 H :    0.136438
   4 H :    0.121281
   5 H :    0.097867
   6 H :    0.104039

-------------------------------
LOEWDIN REDUCED ORBITAL CHARGES
-------------------------------
  0 O s       :     3.368334  s :     3.368334
      pz      :     1.068100  p :     4.042114
      px      :     1.488926
      py      :     1.485089
      dz2     :     0.010358  d :     0.110460
      dxz     :     0.011470
      dyz     :     0.016415
      dx2y2   :     0.041466
      dxy     :     0.030751
      f0      :     0.000752  f :     0.007116
      f+1     :     0.000153
      f-1     :     0.000593
      f+2     :     0.000129
      f-2     :     0.001298
      f+3     :     0.001115
      f-3     :     0.003076
  1 C s       :     2.826349  s :     2.826349
      pz      :     1.041707  p :     3.074001
      px      :     1.074359
      py      :     0.957935
      dz2     :     0.055207  d :     0.485253
      dxz     :     0.098901
      dyz     :     0.037376
      dx2y2   :     0.166593
      dxy     :     0.127176
      f0      :     0.007315  f :     0.072678
      f+1     :     0.006597
      f-1     :     0.006524
      f+2     :     0.004204
      f-2     :     0.007252
      f+3     :     0.020568
      f-3     :     0.020219
  2 C s       :     2.792527  s :     2.792527
      pz      :     1.069242  p :     3.102671
      px      :     1.065241
      py      :     0.968188
      dz2     :     0.055302  d :     0.504702
      dxz     :     0.100705
      dyz     :     0.035892
      dx2y2   :     0.191880
      dxy     :     0.120924
      f0      :     0.007085  f :     0.073421
      f+1     :     0.007006
      f-1     :     0.007277
      f+2     :     0.004880
      f-2     :     0.006136
      f+3     :     0.021143
      f-3     :     0.019894
  3 H s       :     0.791878  s :     0.791878
      pz      :     0.030026  p :     0.071684
      px      :     0.024585
      py      :     0.017073
  4 H s       :     0.799677  s :     0.799677
      pz      :     0.034130  p :     0.079043
      px      :     0.023805
      py      :     0.021108
  5 H s       :     0.809305  s :     0.809305
      pz      :     0.034696  p :     0.092828
      px      :     0.032916
      py      :     0.025216
  6 H s       :     0.804793  s :     0.804793
      pz      :     0.036636  p :     0.091167
      px      :     0.027546
      py      :     0.026985


                      *****************************
                      * MAYER POPULATION ANALYSIS *
                      *****************************

  NA   - Mulliken gross atomic population
  ZA   - Total nuclear charge
  QA   - Mulliken gross atomic charge
  VA   - Mayer's total valence
  BVA  - Mayer's bonded valence
  FA   - Mayer's free valence

  ATOM       NA         ZA         QA         VA         BVA        FA
  0 O      7.9251     8.0000     0.0749     2.2268     1.4896     0.7372
  1 C      6.2508     6.0000    -0.2508     3.2710     2.8996     0.3714
  2 C      6.3784     6.0000    -0.3784     3.4093     2.9031     0.5062
  3 H      0.8619     1.0000     0.1381     1.0481     0.9616     0.0864
  4 H      0.8681     1.0000     0.1319     1.0496     0.9761     0.0735
  5 H      0.8599     1.0000     0.1401     1.0319     0.9688     0.0631
  6 H      0.8557     1.0000     0.1443     1.0205     0.9688     0.0517

  Mayer bond orders larger than 0.100000
B(  0-O ,  1-C ) :   0.7693 B(  0-O ,  2-C ) :   0.7131 B(  1-C ,  2-C ) :   0.2453 
B(  1-C ,  3-H ) :   0.9101 B(  1-C ,  4-H ) :   0.9447 B(  2-C ,  5-H ) :   0.9386 
B(  2-C ,  6-H ) :   0.9561 


-------
TIMINGS
-------

Total TD-DFT gradient time         ...        5.259 sec

Fock matrix formation       ....       0.871 sec  ( 16.6%)
  Coulomb formation         ....       0.703 sec  ( 80.7% of F)
  RI-J                      ....       0.298 sec  ( 34.3% of F)
  Chain of spheres X        ....       0.404 sec  ( 46.4% of F)
  XC integration            ....       0.168 sec  ( 19.3% of F)
Z-vector equation           ....       1.407 sec  ( 26.8%)
One electron gradient       ....       0.034 sec  (  0.7%)
Prescreening matrices       ....       0.165 sec  (  3.1%)
RI-J Coulomb gradient       ....       0.256 sec  (  4.9%)
COSX gradient               ....       0.365 sec  (  6.9%)
XC gradient                 ....       1.841 sec  ( 35.0%)

Maximum memory used throughout the entire SCFGRAD-calculation: 130.3 MB

                            ***************************************
                            *     ORCA property calculations      *
                            ***************************************

                                    ---------------------
                                    Active property flags
                                    ---------------------
   (+) Dipole Moment


------------------------------------------------------------------------------
                       ORCA ELECTRIC PROPERTIES CALCULATION
------------------------------------------------------------------------------

Dipole Moment Calculation                       ... on
Quadrupole Moment Calculation                   ... off
Polarizability Calculation                      ... off
GBWName                                         ... ox_es1_A_orca0028.gbw
Electron density                                ... ox_es1_A_orca0028.scfp
The origin for moment calculation is the CENTER OF MASS  = ( 0.043695, -0.084807  0.007007)

-------------
DIPOLE MOMENT
-------------
                                X             Y             Z
Electronic contribution:      0.08620       1.74763      -0.05297
Nuclear contribution   :     -0.06961      -2.43113       0.04917
                        -----------------------------------------
Total Dipole Moment    :      0.01659      -0.68350      -0.00380
                        -----------------------------------------
Magnitude (a.u.)       :      0.68371
Magnitude (Debye)      :      1.73785



--------------------
Rotational spectrum 
--------------------
 
Rotational constants in cm-1:     0.930135     0.710186     0.471044 
Rotational constants in MHz : 27884.732402 21290.847454 14121.547408 

 Dipole components along the rotational axes: 
x,y,z [a.u.] :     0.023087     0.683290    -0.006476 
x,y,z [Debye]:     0.058682     1.736786    -0.016459 

 

                        *** CIS RELAXED DENSITY ***

------------------------------------------------------------------------------
                       ORCA ELECTRIC PROPERTIES CALCULATION
------------------------------------------------------------------------------

Dipole Moment Calculation                       ... on
Quadrupole Moment Calculation                   ... off
Polarizability Calculation                      ... off
GBWName                                         ... ox_es1_A_orca0028.gbw
Electron density                                ... ox_es1_A_orca0028.cisp
The origin for moment calculation is the CENTER OF MASS  = ( 0.043695, -0.084807  0.007007)

-------------
DIPOLE MOMENT
-------------
                                X             Y             Z
Electronic contribution:      0.02276       2.24325      -0.03402
Nuclear contribution   :     -0.06961      -2.43113       0.04917
                        -----------------------------------------
Total Dipole Moment    :     -0.04685      -0.18788       0.01516
                        -----------------------------------------
Magnitude (a.u.)       :      0.19422
Magnitude (Debye)      :      0.49368



--------------------
Rotational spectrum 
--------------------
 
Rotational constants in cm-1:     0.930135     0.710186     0.471044 
Rotational constants in MHz : 27884.732402 21290.847454 14121.547408 

 Dipole components along the rotational axes: 
x,y,z [a.u.] :    -0.045512     0.188376     0.012898 
x,y,z [Debye]:    -0.115682     0.478814     0.032783 

 

Timings for individual modules:

Sum of individual times         ...        8.309 sec (=   0.138 min)
GTO integral calculation        ...        0.326 sec (=   0.005 min)   3.9 %
SCF iterations                  ...        1.577 sec (=   0.026 min)  19.0 %
CIS module                      ...        0.941 sec (=   0.016 min)  11.3 %
SCF Gradient evaluation         ...        5.465 sec (=   0.091 min)  65.8 %
                             ****ORCA TERMINATED NORMALLY****
TOTAL RUN TIME: 0 days 0 hours 0 minutes 8 seconds 702 msec
