
                                 *****************
                                 * O   R   C   A *
                                 *****************

                                            #,                                       
                                            ###                                      
                                            ####                                     
                                            #####                                    
                                            ######                                   
                                           ########,                                 
                                     ,,################,,,,,                         
                               ,,#################################,,                 
                          ,,##########################################,,             
                       ,#########################################, ''#####,          
                    ,#############################################,,   '####,        
                  ,##################################################,,,,####,       
                ,###########''''           ''''###############################       
              ,#####''   ,,,,##########,,,,          '''####'''          '####       
            ,##' ,,,,###########################,,,                        '##       
           ' ,,###''''                  '''############,,,                           
         ,,##''                                '''############,,,,        ,,,,,,###''
      ,#''                                            '''#######################'''  
     '                                                          ''''####''''         
             ,#######,   #######,   ,#######,      ##                                
            ,#'     '#,  ##    ##  ,#'     '#,    #''#        ######   ,####,        
            ##       ##  ##   ,#'  ##            #'  '#       #        #'  '#        
            ##       ##  #######   ##           ,######,      #####,   #    #        
            '#,     ,#'  ##    ##  '#,     ,#' ,#      #,         ##   #,  ,#        
             '#######'   ##     ##  '#######'  #'      '#     #####' # '####'        



                  #######################################################
                  #                        -***-                        #
                  #          Department of theory and spectroscopy      #
                  #    Directorship and core code : Frank Neese         #
                  #        Max Planck Institute fuer Kohlenforschung    #
                  #                Kaiser Wilhelm Platz 1               #
                  #                 D-45470 Muelheim/Ruhr               #
                  #                      Germany                        #
                  #                                                     #
                  #                  All rights reserved                #
                  #                        -***-                        #
                  #######################################################


                         Program Version 5.0.2 -  RELEASE  -


 With contributions from (in alphabetic order):
   Daniel Aravena         : Magnetic Suceptibility
   Michael Atanasov       : Ab Initio Ligand Field Theory (pilot matlab implementation)
   Alexander A. Auer      : GIAO ZORA, VPT2 properties, NMR spectrum
   Ute Becker             : Parallelization
   Giovanni Bistoni       : ED, misc. LED, open-shell LED, HFLD
   Martin Brehm           : Molecular dynamics
   Dmytro Bykov           : SCF Hessian
   Vijay G. Chilkuri      : MRCI spin determinant printing, contributions to CSF-ICE
   Dipayan Datta          : RHF DLPNO-CCSD density
   Achintya Kumar Dutta   : EOM-CC, STEOM-CC
   Dmitry Ganyushin       : Spin-Orbit,Spin-Spin,Magnetic field MRCI
   Miquel Garcia          : C-PCM and meta-GGA Hessian, CC/C-PCM, Gaussian charge scheme
   Yang Guo               : DLPNO-NEVPT2, F12-NEVPT2, CIM, IAO-localization
   Andreas Hansen         : Spin unrestricted coupled pair/coupled cluster methods
   Benjamin Helmich-Paris : MC-RPA, TRAH-SCF, COSX integrals
   Lee Huntington         : MR-EOM, pCC
   Robert Izsak           : Overlap fitted RIJCOSX, COSX-SCS-MP3, EOM
   Marcus Kettner         : VPT2
   Christian Kollmar      : KDIIS, OOCD, Brueckner-CCSD(T), CCSD density, CASPT2, CASPT2-K
   Simone Kossmann        : Meta GGA functionals, TD-DFT gradient, OOMP2, MP2 Hessian
   Martin Krupicka        : Initial AUTO-CI
   Lucas Lang             : DCDCAS
   Marvin Lechner         : AUTO-CI (C++ implementation), FIC-MRCC
   Dagmar Lenk            : GEPOL surface, SMD
   Dimitrios Liakos       : Extrapolation schemes; Compound Job, initial MDCI parallelization
   Dimitrios Manganas     : Further ROCIS development; embedding schemes
   Dimitrios Pantazis     : SARC Basis sets
   Anastasios Papadopoulos: AUTO-CI, single reference methods and gradients
   Taras Petrenko         : DFT Hessian,TD-DFT gradient, ASA, ECA, R-Raman, ABS, FL, XAS/XES, NRVS
   Peter Pinski           : DLPNO-MP2, DLPNO-MP2 Gradient
   Christoph Reimann      : Effective Core Potentials
   Marius Retegan         : Local ZFS, SOC
   Christoph Riplinger    : Optimizer, TS searches, QM/MM, DLPNO-CCSD(T), (RO)-DLPNO pert. Triples
   Tobias Risthaus        : Range-separated hybrids, TD-DFT gradient, RPA, STAB
   Michael Roemelt        : Original ROCIS implementation
   Masaaki Saitow         : Open-shell DLPNO-CCSD energy and density
   Barbara Sandhoefer     : DKH picture change effects
   Avijit Sen             : IP-ROCIS
   Kantharuban Sivalingam : CASSCF convergence, NEVPT2, FIC-MRCI
   Bernardo de Souza      : ESD, SOC TD-DFT
   Georgi Stoychev        : AutoAux, RI-MP2 NMR, DLPNO-MP2 response
   Willem Van den Heuvel  : Paramagnetic NMR
   Boris Wezisla          : Elementary symmetry handling
   Frank Wennmohs         : Technical directorship


 We gratefully acknowledge several colleagues who have allowed us to
 interface, adapt or use parts of their codes:
   Stefan Grimme, W. Hujo, H. Kruse, P. Pracht,  : VdW corrections, initial TS optimization,
                  C. Bannwarth, S. Ehlert          DFT functionals, gCP, sTDA/sTD-DF
   Ed Valeev, F. Pavosevic, A. Kumar             : LibInt (2-el integral package), F12 methods
   Garnet Chan, S. Sharma, J. Yang, R. Olivares  : DMRG
   Ulf Ekstrom                                   : XCFun DFT Library
   Mihaly Kallay                                 : mrcc  (arbitrary order and MRCC methods)
   Jiri Pittner, Ondrej Demel                    : Mk-CCSD
   Frank Weinhold                                : gennbo (NPA and NBO analysis)
   Christopher J. Cramer and Donald G. Truhlar   : smd solvation model
   Lars Goerigk                                  : TD-DFT with DH, B97 family of functionals
   V. Asgeirsson, H. Jonsson                     : NEB implementation
   FAccTs GmbH                                   : IRC, NEB, NEB-TS, DLPNO-Multilevel, CI-OPT
                                                   MM, QMMM, 2- and 3-layer-ONIOM, Crystal-QMMM,
                                                   LR-CPCM, SF, NACMEs, symmetry and pop. for TD-DFT,
                                                   nearIR, NL-DFT gradient (VV10), updates on ESD,
                                                   ML-optimized integration grids
   S Lehtola, MJT Oliveira, MAL Marques          : LibXC Library
   Liviu Ungur et al                             : ANISO software


 Your calculation uses the libint2 library for the computation of 2-el integrals
 For citations please refer to: http://libint.valeyev.net

 Your ORCA version has been built with support for libXC version: 5.1.0
 For citations please refer to: https://tddft.org/programs/libxc/

 This ORCA versions uses:
   CBLAS   interface :  Fast vector & matrix operations
   LAPACKE interface :  Fast linear algebra routines
   SCALAPACK package :  Parallel linear algebra routines
   Shared memory     :  Shared parallel matrices
   BLAS/LAPACK       :  OpenBLAS 0.3.15  USE64BITINT DYNAMIC_ARCH NO_AFFINITY SkylakeX SINGLE_THREADED
        Core in use  :  SkylakeX
   Copyright (c) 2011-2014, The OpenBLAS Project


Your calculation utilizes the atom-pairwise dispersion correction
with the Becke-Johnson damping scheme (D3BJ)
Cite in your paper:
S.Grimme, S.Ehrlich, L.Goerigk, J Comput Chem, (2011), 32, 1456–1465 
S.Grimme, J.Antony, S.Ehrlich and H.Krieg, J.Chem.Phys., 132, (2010), 154104 
   

================================================================================

----- Orbital basis set information -----
Your calculation utilizes the basis: def2-TZVP
   F. Weigend and R. Ahlrichs, Phys. Chem. Chem. Phys. 7, 3297 (2005).

----- AuxJ basis set information -----
Your calculation utilizes the auxiliary basis: def2/J
   F. Weigend, Phys. Chem. Chem. Phys. 8, 1057 (2006).

================================================================================
                                        WARNINGS
                       Please study these warnings very carefully!
================================================================================

INFO   : Checking CIS options ...

WARNING: CIS/ROCIS methods need fully converged wavefunctions
  ===> : Setting SCFConvForced true
         You can overwrite this default with %scf ConvForced false 


INFO   : the flag for use of the SHARK integral package has been found!

================================================================================
                                       INPUT FILE
================================================================================
NAME = ox_es1_F_orca0005.inp
|  1> ! engrad PBE0 D3BJ def2-TZVP  
|  2> %pal nprocs 8 end
|  3> %maxcore 3000
|  4> 
|  5> %tddft
|  6>   nroots 1
|  7>   tda true
|  8>   Iroot 1
|  9>   end 
| 10> *xyz 0 1 
| 11> O   -1.20123234341973 0.9802720367824272 0.02460766694331525
| 12> C   -0.7932159336456057 -0.4950504109140164 0.04914012689307475
| 13> C   0.7104046057413897 -0.3708279639245721 -0.02198802292152841
| 14> H   -1.2763986536948981 -0.6538228363592806 0.8951614031956934
| 15> H   -1.303249881738057 -0.6693044592415459 -0.9210652661247685
| 16> H   1.3105877459406328 -0.697298731735575 -0.9599908291955497
| 17> H   1.250836793625163 -0.6990535153036572 0.8518453040452141
| 18> *
| 19> 
| 20>                          ****END OF INPUT****
================================================================================

                     *******************************
                     * Energy+Gradient Calculation *
                     *******************************

---------------------------------
CARTESIAN COORDINATES (ANGSTROEM)
---------------------------------
  O     -1.201232    0.980272    0.024608
  C     -0.793216   -0.495050    0.049140
  C      0.710405   -0.370828   -0.021988
  H     -1.276399   -0.653823    0.895161
  H     -1.303250   -0.669304   -0.921065
  H      1.310588   -0.697299   -0.959991
  H      1.250837   -0.699054    0.851845

----------------------------
CARTESIAN COORDINATES (A.U.)
----------------------------
  NO LB      ZA    FRAG     MASS         X           Y           Z
   0 O     8.0000    0    15.999   -2.270000    1.852446    0.046502
   1 C     6.0000    0    12.011   -1.498961   -0.935510    0.092861
   2 C     6.0000    0    12.011    1.342470   -0.700763   -0.041551
   3 H     1.0000    0     1.008   -2.412044   -1.235546    1.691610
   4 H     1.0000    0     1.008   -2.462785   -1.264802   -1.740561
   5 H     1.0000    0     1.008    2.476652   -1.317704   -1.814120
   6 H     1.0000    0     1.008    2.363739   -1.321020    1.609754

--------------------------------
INTERNAL COORDINATES (ANGSTROEM)
--------------------------------
 O      0   0   0     0.000000000000     0.00000000     0.00000000
 C      1   0   0     1.530900243946     0.00000000     0.00000000
 C      2   1   0     1.510418867897   100.67911367     0.00000000
 H      2   1   3     0.987130297374    92.19383240   123.91951045
 H      2   1   3     1.109863778221    90.84904119   243.91957427
 H      3   2   1     1.160453458176   121.99167801   249.06219558
 H      3   2   1     1.078602635634   115.82440311   113.94908766

---------------------------
INTERNAL COORDINATES (A.U.)
---------------------------
 O      0   0   0     0.000000000000     0.00000000     0.00000000
 C      1   0   0     2.892982199411     0.00000000     0.00000000
 C      2   1   0     2.854278007832   100.67911367     0.00000000
 H      2   1   3     1.865405920532    92.19383240   123.91951045
 H      2   1   3     2.097338586796    90.84904119   243.91957427
 H      3   2   1     2.192939227114   121.99167801   249.06219558
 H      3   2   1     2.038263588674   115.82440311   113.94908766

---------------------
BASIS SET INFORMATION
---------------------
There are 3 groups of distinct atoms

 Group   1 Type O   : 11s6p2d1f contracted to 5s3p2d1f pattern {62111/411/11/1}
 Group   2 Type C   : 11s6p2d1f contracted to 5s3p2d1f pattern {62111/411/11/1}
 Group   3 Type H   : 5s1p contracted to 3s1p pattern {311/1}

Atom   0O    basis set group =>   1
Atom   1C    basis set group =>   2
Atom   2C    basis set group =>   2
Atom   3H    basis set group =>   3
Atom   4H    basis set group =>   3
Atom   5H    basis set group =>   3
Atom   6H    basis set group =>   3
---------------------------------
AUXILIARY/J BASIS SET INFORMATION
---------------------------------
There are 3 groups of distinct atoms

 Group   1 Type O   : 12s5p4d2f1g contracted to 6s4p3d1f1g pattern {711111/2111/211/2/1}
 Group   2 Type C   : 12s5p4d2f1g contracted to 6s4p3d1f1g pattern {711111/2111/211/2/1}
 Group   3 Type H   : 5s2p1d contracted to 3s1p1d pattern {311/2/1}

Atom   0O    basis set group =>   1
Atom   1C    basis set group =>   2
Atom   2C    basis set group =>   2
Atom   3H    basis set group =>   3
Atom   4H    basis set group =>   3
Atom   5H    basis set group =>   3
Atom   6H    basis set group =>   3

Checking for AutoStart:
The File: ox_es1_F_orca0005.gbw exists
Trying to determine its content:
     ... Fine, the file contains calculation information
     ... Fine, the calculation information was read
     ... Fine, the file contains a basis set
     ... Fine, the basis set was read
     ... Fine, the file contains a geometry
     ... Fine, the geometry was read
     ... Fine, the file contains a set of orbitals
     ... Fine, the orbitals can be read
     => possible old guess file was deleted
     => GBW file was renamed to GES file
     => GES file is set as startup file
     => Guess is set to MORead
     ... now leaving AutoStart



           ************************************************************
           *        Program running with 8 parallel MPI-processes     *
           *              working on a common directory               *
           ************************************************************
------------------------------------------------------------------------------
                           ORCA GTO INTEGRAL CALCULATION
                           -- RI-GTO INTEGRALS CHOSEN --
------------------------------------------------------------------------------
------------------------------------------------------------------------------
                   ___                                                        
                  /   \      - P O W E R E D   B Y -                         
                 /     \                                                     
                 |  |  |   _    _      __       _____    __    __             
                 |  |  |  | |  | |    /  \     |  _  \  |  |  /  |          
                  \  \/   | |  | |   /    \    | | | |  |  | /  /          
                 / \  \   | |__| |  /  /\  \   | |_| |  |  |/  /          
                |  |  |   |  __  | /  /__\  \  |    /   |      \           
                |  |  |   | |  | | |   __   |  |    \   |  |\   \          
                \     /   | |  | | |  |  |  |  | |\  \  |  | \   \       
                 \___/    |_|  |_| |__|  |__|  |_| \__\ |__|  \__/        
                                                                              
                      - O R C A' S   B I G   F R I E N D -                    
                                      &                                       
                       - I N T E G R A L  F E E D E R -                       
                                                                              
 v1 FN, 2020, v2 2021                                                         
------------------------------------------------------------------------------


Reading SHARK input file ox_es1_F_orca0005.SHARKINP.tmp ... ok
----------------------
SHARK INTEGRAL PACKAGE
----------------------

Number of atoms                             ...      7
Number of basis functions                   ...    117
Number of shells                            ...     49
Maximum angular momentum                    ...      3
Integral batch strategy                     ... SHARK/LIBINT Hybrid
RI-J (if used) integral strategy            ... SPLIT-RIJ (Revised 2003 algorithm where possible)
Printlevel                                  ...      1
Contraction scheme used                     ... SEGMENTED contraction
Coulomb Range Separation                    ... NOT USED
Exchange Range Separation                   ... NOT USED
Finite Nucleus Model                        ... NOT USED
Auxiliary Coulomb fitting basis             ... AVAILABLE
   # of basis functions in Aux-J            ...    191
   # of shells in Aux-J                     ...     65
   Maximum angular momentum in Aux-J        ...      4
Auxiliary J/K fitting basis                 ... NOT available
Auxiliary Correlation fitting basis         ... NOT available
Auxiliary 'external' fitting basis          ... NOT available
Integral threshold                          ...     2.500000e-11
Primitive cut-off                           ...     2.500000e-12
Primitive pair pre-selection threshold      ...     2.500000e-12

Calculating pre-screening integrals         ... done (  0.0 sec) Dimension = 49
Organizing shell pair data                  ... done (  0.0 sec)
Shell pair information
Total number of shell pairs                 ...      1225
Shell pairs after pre-screening             ...      1212
Total number of primitive shell pairs       ...      3648
Primitive shell pairs kept                  ...      3062
          la=0 lb=0:    367 shell pairs
          la=1 lb=0:    350 shell pairs
          la=1 lb=1:     91 shell pairs
          la=2 lb=0:    161 shell pairs
          la=2 lb=1:     78 shell pairs
          la=2 lb=2:     21 shell pairs
          la=3 lb=0:     81 shell pairs
          la=3 lb=1:     39 shell pairs
          la=3 lb=2:     18 shell pairs
          la=3 lb=3:      6 shell pairs

Calculating one electron integrals          ... done (  0.0 sec)
Calculating RI/J V-Matrix + Cholesky decomp.... done (  0.0 sec)
Calculating Nuclear repulsion               ... done (  0.0 sec) ENN=     66.015108675132 Eh

SHARK setup successfully completed in   0.1 seconds

Maximum memory used throughout the entire GTOINT-calculation: 14.9 MB


           ************************************************************
           *        Program running with 8 parallel MPI-processes     *
           *              working on a common directory               *
           ************************************************************
-------------------------------------------------------------------------------
                                 ORCA SCF
-------------------------------------------------------------------------------

------------
SCF SETTINGS
------------
Hamiltonian:
 Density Functional     Method          .... DFT(GTOs)
 Exchange Functional    Exchange        .... PBE
   PBE kappa parameter   XKappa         ....  0.804000
   PBE mue parameter    XMuePBE         ....  0.219520
 Correlation Functional Correlation     .... PBE
   PBE beta parameter  CBetaPBE         ....  0.066725
 LDA part of GGA corr.  LDAOpt          .... PW91-LDA
 Gradients option       PostSCFGGA      .... off
 Hybrid DFT is turned on
   Fraction HF Exchange ScalHFX         ....  0.250000
   Scaling of DF-GGA-X  ScalDFX         ....  0.750000
   Scaling of DF-GGA-C  ScalDFC         ....  1.000000
   Scaling of DF-LDA-C  ScalLDAC        ....  1.000000
   Perturbative correction              ....  0.000000
   Density functional embedding theory  .... OFF
   NL short-range parameter             ....  6.900000
 RI-approximation to the Coulomb term is turned on
   Number of AuxJ basis functions       .... 191
   RIJ-COSX (HFX calculated with COS-X)).... on


General Settings:
 Integral files         IntName         .... ox_es1_F_orca0005
 Hartree-Fock type      HFTyp           .... RHF
 Total Charge           Charge          ....    0
 Multiplicity           Mult            ....    1
 Number of Electrons    NEL             ....   24
 Basis Dimension        Dim             ....  117
 Nuclear Repulsion      ENuc            ....     66.0151086751 Eh

Convergence Acceleration:
 DIIS                   CNVDIIS         .... on
   Start iteration      DIISMaxIt       ....    12
   Startup error        DIISStart       ....  0.200000
   # of expansion vecs  DIISMaxEq       ....     5
   Bias factor          DIISBfac        ....   1.050
   Max. coefficient     DIISMaxC        ....  10.000
 Trust-Rad. Augm. Hess. CNVTRAH         .... auto
   Auto Start mean grad. ratio tolernc. ....  1.125000
   Auto Start start iteration           ....     1
   Auto Start num. interpolation iter.  ....    10
   Max. Number of Micro iterations      ....    16
   Max. Number of Macro iterations      .... Maxiter - #DIIS iter
   Number of Davidson start vectors     ....     2
   Converg. threshold I  (grad. norm)   ....   1.000e-05
   Converg. threshold II (energy diff.) ....   1.000e-08
   Grad. Scal. Fac. for Micro threshold ....   0.100
   Minimum threshold for Micro iter.    ....   0.010
   NR start threshold (gradient norm)   ....   0.001
   Initial trust radius                 ....   0.400
   Minimum AH scaling param. (alpha)    ....   1.000
   Maximum AH scaling param. (alpha)    .... 1000.000
   Orbital update algorithm             .... Taylor
   White noise on init. David. guess    .... on
   Maximum white noise                  ....   0.010
   Quad. conv. algorithm                .... NR
 SOSCF                  CNVSOSCF        .... on
   Start iteration      SOSCFMaxIt      ....   150
   Startup grad/error   SOSCFStart      ....  0.003300
 Level Shifting         CNVShift        .... on
   Level shift para.    LevelShift      ....    0.2500
   Turn off err/grad.   ShiftErr        ....    0.0010
 Zerner damping         CNVZerner       .... off
 Static damping         CNVDamp         .... on
   Fraction old density DampFac         ....    0.7000
   Max. Damping (<1)    DampMax         ....    0.9800
   Min. Damping (>=0)   DampMin         ....    0.0000
   Turn off err/grad.   DampErr         ....    0.1000
 Fernandez-Rico         CNVRico         .... off

SCF Procedure:
 Maximum # iterations   MaxIter         ....   125
 SCF integral mode      SCFMode         .... Direct
   Integral package                     .... SHARK and LIBINT hybrid scheme
 Reset frequency        DirectResetFreq ....    20
 Integral Threshold     Thresh          ....  2.500e-11 Eh
 Primitive CutOff       TCut            ....  2.500e-12 Eh

Convergence Tolerance:
 Convergence Check Mode ConvCheckMode   .... Total+1el-Energy
 Convergence forced     ConvForced      .... 1
 Energy Change          TolE            ....  1.000e-08 Eh
 1-El. energy change                    ....  1.000e-05 Eh
 Orbital Gradient       TolG            ....  1.000e-05
 Orbital Rotation angle TolX            ....  1.000e-05
 DIIS Error             TolErr          ....  5.000e-07


Diagonalization of the overlap matrix:
Smallest eigenvalue                        ... 6.331e-04
Time for diagonalization                   ...    0.001 sec
Threshold for overlap eigenvalues          ... 1.000e-08
Number of eigenvalues below threshold      ... 0
Time for construction of square roots      ...    0.001 sec
Total time needed                          ...    0.003 sec

---------------------
INITIAL GUESS: MOREAD
---------------------
Guess MOs are being read from file: ox_es1_F_orca0005.ges
Input Geometry matches current geometry (good)
Input basis set matches current basis set (good)
MOs were renormalized
MOs were reorthogonalized (Cholesky)
                      ------------------
                      INITIAL GUESS DONE (   0.0 sec)
                      ------------------
-------------------
DFT GRID GENERATION
-------------------

General Integration Accuracy     IntAcc      ... 4.388
Radial Grid Type                 RadialGrid  ... OptM3 with GC (2021)
Angular Grid (max. ang.)         AngularGrid ... 4 (Lebedev-302)
Angular grid pruning method      GridPruning ... 4 (adaptive)
Weight generation scheme         WeightScheme... Becke
Basis function cutoff            BFCut       ... 1.0000e-11
Integration weight cutoff        WCut        ... 1.0000e-14
Angular grids for H and He will be reduced by one unit
Partially contracted basis set               ... off
Rotationally invariant grid construction     ... off

Total number of grid points                  ...    31344
Total number of batches                      ...      493
Average number of points per batch           ...       63
Average number of grid points per atom       ...     4478
Time for grid setup =    0.119 sec

--------------------
COSX GRID GENERATION
--------------------

GRIDX 1
-------
General Integration Accuracy     IntAcc      ... 3.816
Radial Grid Type                 RadialGrid  ... OptM3 with GC (2021)
Angular Grid (max. ang.)         AngularGrid ... 1 (Lebedev-50)
Angular grid pruning method      GridPruning ... 4 (adaptive)
Weight generation scheme         WeightScheme... Becke
Basis function cutoff            BFCut       ... 1.0000e-11
Integration weight cutoff        WCut        ... 1.0000e-14
Angular grids for H and He will be reduced by one unit
Partially contracted basis set               ... on
Rotationally invariant grid construction     ... off

Total number of grid points                  ...     4043
Total number of batches                      ...       67
Average number of points per batch           ...       60
Average number of grid points per atom       ...      578
UseSFitting                                  ... on

GRIDX 2
-------
General Integration Accuracy     IntAcc      ... 4.020
Radial Grid Type                 RadialGrid  ... OptM3 with GC (2021)
Angular Grid (max. ang.)         AngularGrid ... 2 (Lebedev-110)
Angular grid pruning method      GridPruning ... 4 (adaptive)
Weight generation scheme         WeightScheme... Becke
Basis function cutoff            BFCut       ... 1.0000e-11
Integration weight cutoff        WCut        ... 1.0000e-14
Angular grids for H and He will be reduced by one unit
Partially contracted basis set               ... on
Rotationally invariant grid construction     ... off

Total number of grid points                  ...     8745
Total number of batches                      ...      140
Average number of points per batch           ...       62
Average number of grid points per atom       ...     1249
UseSFitting                                  ... on

GRIDX 3
-------
General Integration Accuracy     IntAcc      ... 4.338
Radial Grid Type                 RadialGrid  ... OptM3 with GC (2021)
Angular Grid (max. ang.)         AngularGrid ... 3 (Lebedev-194)
Angular grid pruning method      GridPruning ... 4 (adaptive)
Weight generation scheme         WeightScheme... Becke
Basis function cutoff            BFCut       ... 1.0000e-11
Integration weight cutoff        WCut        ... 1.0000e-14
Angular grids for H and He will be reduced by one unit
Partially contracted basis set               ... on
Rotationally invariant grid construction     ... off

Total number of grid points                  ...    19293
Total number of batches                      ...      306
Average number of points per batch           ...       63
Average number of grid points per atom       ...     2756
UseSFitting                                  ... on

Time for X-Grid setup             =    0.072 sec

--------------
SCF ITERATIONS
--------------
ITER       Energy         Delta-E        Max-DP      RMS-DP      [F,P]     Damp
               ***  Starting incremental Fock matrix formation  ***
                      *** Initiating the SOSCF procedure ***
                      *** Re-Reading the Fockian *** 
                      *** Removing any level shift *** 
ITER      Energy       Delta-E        Grad      Rot      Max-DP    RMS-DP
  0   -153.49636806 -153.4963680557  0.000001  0.000001  0.000001  0.000000
               *** Restarting incremental Fock matrix formation ***
                  ***Gradient check signals convergence***
              ***Rediagonalizing the Fockian in SOSCF/NRSCF***

               *****************************************************
               *                     SUCCESS                       *
               *           SCF CONVERGED AFTER   1 CYCLES          *
               *****************************************************

Old exchange energy                            =     -4.938171530 Eh
New exchange energy                            =     -4.938184951 Eh
Exchange energy change after final integration =     -0.000013421 Eh
Total energy after final integration           =   -153.496381477 Eh
Final COS-X integration done in                =     0.242 sec

----------------
TOTAL SCF ENERGY
----------------

Total Energy       :         -153.49638148 Eh           -4176.84889 eV

Components:
Nuclear Repulsion  :           66.01510868 Eh            1796.36243 eV
Electronic Energy  :         -219.51149015 Eh           -5973.21132 eV
One Electron Energy:         -338.89690564 Eh           -9221.85363 eV
Two Electron Energy:          119.38541549 Eh            3248.64231 eV
Max COSX asymmetry :            0.00000296 Eh               0.00008 eV

Virial components:
Potential Energy   :         -306.12421743 Eh           -8330.06345 eV
Kinetic Energy     :          152.62783595 Eh            4153.21456 eV
Virial Ratio       :            2.00569061


DFT components:
N(Alpha)           :       12.000003871055 electrons
N(Beta)            :       12.000003871055 electrons
N(Total)           :       24.000007742111 electrons
E(X)               :      -14.843354481192 Eh       
E(C)               :       -0.765545229384 Eh       
E(XC)              :      -15.608899710576 Eh       
DFET-embed. en.    :        0.000000000000 Eh       

---------------
SCF CONVERGENCE
---------------

  Last Energy change         ...    5.1159e-12  Tolerance :   1.0000e-08
  Last MAX-Density change    ...    9.9920e-16  Tolerance :   1.0000e-07
  Last RMS-Density change    ...    2.1403e-17  Tolerance :   5.0000e-09
  Last Orbital Gradient      ...    5.9569e-07  Tolerance :   1.0000e-05
  Last Orbital Rotation      ...    2.7605e-06  Tolerance :   1.0000e-05

             **** THE GBW FILE WAS UPDATED (ox_es1_F_orca0005.gbw) ****
             **** DENSITY ox_es1_F_orca0005.scfp WAS UPDATED ****
             **** ENERGY FILE WAS UPDATED (ox_es1_F_orca0005.en.tmp) ****
             **** THE GBW FILE WAS UPDATED (ox_es1_F_orca0005.gbw) ****
             **** DENSITY ox_es1_F_orca0005.scfp WAS UPDATED ****
----------------
ORBITAL ENERGIES
----------------

  NO   OCC          E(Eh)            E(eV) 
   0   2.0000     -19.200813      -522.4807 
   1   2.0000     -10.331982      -281.1475 
   2   2.0000     -10.270911      -279.4857 
   3   2.0000      -0.960510       -26.1368 
   4   2.0000      -0.770295       -20.9608 
   5   2.0000      -0.637512       -17.3476 
   6   2.0000      -0.515409       -14.0250 
   7   2.0000      -0.472468       -12.8565 
   8   2.0000      -0.424543       -11.5524 
   9   2.0000      -0.377868       -10.2823 
  10   2.0000      -0.268131        -7.2962 
  11   2.0000      -0.257408        -7.0044 
  12   0.0000      -0.162078        -4.4104 
  13   0.0000       0.044745         1.2176 
  14   0.0000       0.079600         2.1660 
  15   0.0000       0.082486         2.2446 
  16   0.0000       0.102142         2.7794 
  17   0.0000       0.148380         4.0376 
  18   0.0000       0.185806         5.0560 
  19   0.0000       0.196803         5.3553 
  20   0.0000       0.227385         6.1875 
  21   0.0000       0.237311         6.4576 
  22   0.0000       0.265327         7.2199 
  23   0.0000       0.308232         8.3874 
  24   0.0000       0.328022         8.9259 
  25   0.0000       0.354641         9.6503 
  26   0.0000       0.398401        10.8410 
  27   0.0000       0.415976        11.3193 
  28   0.0000       0.446044        12.1375 
  29   0.0000       0.467299        12.7159 
  30   0.0000       0.516207        14.0467 
  31   0.0000       0.543040        14.7769 
  32   0.0000       0.555238        15.1088 
  33   0.0000       0.591294        16.0899 
  34   0.0000       0.681987        18.5578 
  35   0.0000       0.700135        19.0516 
  36   0.0000       0.772111        21.0102 
  37   0.0000       0.840376        22.8678 
  38   0.0000       0.888352        24.1733 
  39   0.0000       0.909074        24.7372 
  40   0.0000       0.937081        25.4993 
  41   0.0000       1.020477        27.7686 
  42   0.0000       1.069464        29.1016 
  43   0.0000       1.076142        29.2833 
  44   0.0000       1.152209        31.3532 
  45   0.0000       1.324370        36.0379 
  46   0.0000       1.404061        38.2064 
  47   0.0000       1.435251        39.0552 
  48   0.0000       1.497738        40.7555 
  49   0.0000       1.517835        41.3024 
  50   0.0000       1.568269        42.6748 
  51   0.0000       1.582953        43.0743 
  52   0.0000       1.607522        43.7429 
  53   0.0000       1.649469        44.8843 
  54   0.0000       1.714566        46.6557 
  55   0.0000       1.735398        47.2226 
  56   0.0000       1.799013        48.9536 
  57   0.0000       1.816727        49.4357 
  58   0.0000       1.865308        50.7576 
  59   0.0000       1.909169        51.9511 
  60   0.0000       1.989638        54.1408 
  61   0.0000       2.014513        54.8177 
  62   0.0000       2.110471        57.4288 
  63   0.0000       2.188575        59.5541 
  64   0.0000       2.308940        62.8295 
  65   0.0000       2.317908        63.0735 
  66   0.0000       2.341481        63.7149 
  67   0.0000       2.417356        65.7796 
  68   0.0000       2.456136        66.8349 
  69   0.0000       2.524667        68.6997 
  70   0.0000       2.550563        69.4043 
  71   0.0000       2.595223        70.6196 
  72   0.0000       2.609184        70.9995 
  73   0.0000       2.620956        71.3198 
  74   0.0000       2.734189        74.4011 
  75   0.0000       2.794449        76.0408 
  76   0.0000       2.884323        78.4864 
  77   0.0000       2.945887        80.1617 
  78   0.0000       2.962223        80.6062 
  79   0.0000       2.981333        81.1262 
  80   0.0000       3.063236        83.3549 
  81   0.0000       3.080788        83.8325 
  82   0.0000       3.101925        84.4077 
  83   0.0000       3.118258        84.8521 
  84   0.0000       3.182658        86.6045 
  85   0.0000       3.229372        87.8757 
  86   0.0000       3.281334        89.2896 
  87   0.0000       3.312056        90.1256 
  88   0.0000       3.386933        92.1631 
  89   0.0000       3.409865        92.7871 
  90   0.0000       3.476019        94.5873 
  91   0.0000       3.641099        99.0793 
  92   0.0000       3.708214       100.9056 
  93   0.0000       3.782496       102.9269 
  94   0.0000       3.997369       108.7739 
  95   0.0000       4.088705       111.2593 
  96   0.0000       4.102284       111.6288 
  97   0.0000       4.202807       114.3642 
  98   0.0000       4.358299       118.5953 
  99   0.0000       4.486722       122.0899 
 100   0.0000       4.565581       124.2358 
 101   0.0000       4.711934       128.2182 
 102   0.0000       5.195123       141.3665 
 103   0.0000       5.221722       142.0903 
 104   0.0000       5.320892       144.7888 
 105   0.0000       5.340657       145.3267 
 106   0.0000       5.594614       152.2372 
 107   0.0000       5.616695       152.8380 
 108   0.0000       5.805292       157.9700 
 109   0.0000       6.341353       172.5570 
 110   0.0000       6.350683       172.8109 
 111   0.0000       6.696502       182.2211 
 112   0.0000       6.732030       183.1879 
 113   0.0000       6.994435       190.3283 
 114   0.0000      21.936608       596.9255 
 115   0.0000      22.352664       608.2469 
 116   0.0000      43.682638      1188.6650 

                    ********************************
                    * MULLIKEN POPULATION ANALYSIS *
                    ********************************

-----------------------
MULLIKEN ATOMIC CHARGES
-----------------------
   0 O :   -0.394664
   1 C :   -0.087009
   2 C :   -0.141271
   3 H :    0.145099
   4 H :    0.142371
   5 H :    0.173510
   6 H :    0.161963
Sum of atomic charges:   -0.0000000

--------------------------------
MULLIKEN REDUCED ORBITAL CHARGES
--------------------------------
  0 O s       :     3.928946  s :     3.928946
      pz      :     1.947637  p :     4.447246
      px      :     1.147015
      py      :     1.352593
      dz2     :     0.002521  d :     0.017584
      dxz     :     0.000189
      dyz     :     0.003892
      dx2y2   :     0.006578
      dxy     :     0.004403
      f0      :     0.000103  f :     0.000888
      f+1     :     0.000056
      f-1     :     0.000208
      f+2     :     0.000100
      f-2     :     0.000030
      f+3     :     0.000215
      f-3     :     0.000176
  1 C s       :     3.207798  s :     3.207798
      pz      :     1.086821  p :     2.734731
      px      :     0.893284
      py      :     0.754627
      dz2     :     0.014452  d :     0.136493
      dxz     :     0.018366
      dyz     :     0.034491
      dx2y2   :     0.020684
      dxy     :     0.048499
      f0      :     0.001471  f :     0.007986
      f+1     :     0.001254
      f-1     :     0.000510
      f+2     :     0.001826
      f-2     :     0.000409
      f+3     :     0.002234
      f-3     :     0.000282
  2 C s       :     3.302597  s :     3.302597
      pz      :     1.052925  p :     2.789070
      px      :     1.008404
      py      :     0.727740
      dz2     :     0.003787  d :     0.045812
      dxz     :     0.021820
      dyz     :     0.004161
      dx2y2   :     0.004221
      dxy     :     0.011823
      f0      :     0.000337  f :     0.003792
      f+1     :     0.000917
      f-1     :     0.000135
      f+2     :     0.000592
      f-2     :     0.000249
      f+3     :     0.000623
      f-3     :     0.000939
  3 H s       :     0.829470  s :     0.829470
      pz      :     0.011141  p :     0.025431
      px      :     0.007456
      py      :     0.006834
  4 H s       :     0.836036  s :     0.836036
      pz      :     0.010717  p :     0.021593
      px      :     0.005836
      py      :     0.005041
  5 H s       :     0.806189  s :     0.806189
      pz      :     0.009626  p :     0.020301
      px      :     0.006512
      py      :     0.004162
  6 H s       :     0.814833  s :     0.814833
      pz      :     0.010521  p :     0.023203
      px      :     0.007467
      py      :     0.005215


                     *******************************
                     * LOEWDIN POPULATION ANALYSIS *
                     *******************************

----------------------
LOEWDIN ATOMIC CHARGES
----------------------
   0 O :   -0.135095
   1 C :   -0.356280
   2 C :   -0.020991
   3 H :    0.096822
   4 H :    0.137601
   5 H :    0.151912
   6 H :    0.126032

-------------------------------
LOEWDIN REDUCED ORBITAL CHARGES
-------------------------------
  0 O s       :     3.651281  s :     3.651281
      pz      :     1.891402  p :     4.441740
      px      :     1.118192
      py      :     1.432146
      dz2     :     0.005360  d :     0.039773
      dxz     :     0.000357
      dyz     :     0.010001
      dx2y2   :     0.014264
      dxy     :     0.009792
      f0      :     0.000234  f :     0.002301
      f+1     :     0.000079
      f-1     :     0.000389
      f+2     :     0.000374
      f-2     :     0.000079
      f+3     :     0.000577
      f-3     :     0.000568
  1 C s       :     2.845699  s :     2.845699
      pz      :     1.084022  p :     2.960859
      px      :     1.031524
      py      :     0.845313
      dz2     :     0.071890  d :     0.497577
      dxz     :     0.087385
      dyz     :     0.087373
      dx2y2   :     0.105668
      dxy     :     0.145261
      f0      :     0.008193  f :     0.052145
      f+1     :     0.006356
      f-1     :     0.005150
      f+2     :     0.009418
      f-2     :     0.002902
      f+3     :     0.015816
      f-3     :     0.004310
  2 C s       :     2.938787  s :     2.938787
      pz      :     1.088002  p :     2.861979
      px      :     1.107796
      py      :     0.666181
      dz2     :     0.024100  d :     0.200463
      dxz     :     0.097672
      dyz     :     0.012599
      dx2y2   :     0.031468
      dxy     :     0.034625
      f0      :     0.002241  f :     0.019762
      f+1     :     0.002697
      f-1     :     0.001145
      f+2     :     0.003264
      f-2     :     0.002626
      f+3     :     0.003532
      f-3     :     0.004257
  3 H s       :     0.820239  s :     0.820239
      pz      :     0.038149  p :     0.082939
      px      :     0.023981
      py      :     0.020810
  4 H s       :     0.802217  s :     0.802217
      pz      :     0.031011  p :     0.060182
      px      :     0.015807
      py      :     0.013364
  5 H s       :     0.791609  s :     0.791609
      pz      :     0.028565  p :     0.056480
      px      :     0.016594
      py      :     0.011321
  6 H s       :     0.804962  s :     0.804962
      pz      :     0.033309  p :     0.069006
      px      :     0.020594
      py      :     0.015104


                      *****************************
                      * MAYER POPULATION ANALYSIS *
                      *****************************

  NA   - Mulliken gross atomic population
  ZA   - Total nuclear charge
  QA   - Mulliken gross atomic charge
  VA   - Mayer's total valence
  BVA  - Mayer's bonded valence
  FA   - Mayer's free valence

  ATOM       NA         ZA         QA         VA         BVA        FA
  0 O      8.3947     8.0000    -0.3947     1.7243     1.7243    -0.0000
  1 C      6.0870     6.0000    -0.0870     3.9801     3.9801    -0.0000
  2 C      6.1413     6.0000    -0.1413     3.7777     3.7777    -0.0000
  3 H      0.8549     1.0000     0.1451     0.9891     0.9891    -0.0000
  4 H      0.8576     1.0000     0.1424     0.9783     0.9783    -0.0000
  5 H      0.8265     1.0000     0.1735     0.9579     0.9579    -0.0000
  6 H      0.8380     1.0000     0.1620     0.9592     0.9592     0.0000

  Mayer bond orders larger than 0.100000
B(  0-O ,  1-C ) :   0.9070 B(  0-O ,  2-C ) :   0.8028 B(  1-C ,  2-C ) :   1.1011 
B(  1-C ,  3-H ) :   0.9835 B(  1-C ,  4-H ) :   0.9749 B(  2-C ,  5-H ) :   0.9387 
B(  2-C ,  6-H ) :   0.9455 

-------
TIMINGS
-------

Total SCF time: 0 days 0 hours 0 min 0 sec 

Total time                  ....       0.926 sec
Sum of individual times     ....       0.861 sec  ( 93.0%)

Fock matrix formation       ....       0.658 sec  ( 71.1%)
  Split-RI-J                ....       0.111 sec  ( 16.9% of F)
  Chain of spheres X        ....       0.487 sec  ( 74.0% of F)
  XC integration            ....       0.058 sec  (  8.8% of F)
    Basis function eval.    ....       0.017 sec  ( 29.3% of XC)
    Density eval.           ....       0.013 sec  ( 21.9% of XC)
    XC-Functional eval.     ....       0.004 sec  (  6.3% of XC)
    XC-Potential eval.      ....       0.018 sec  ( 31.7% of XC)
Diagonalization             ....       0.002 sec  (  0.2%)
Density matrix formation    ....       0.000 sec  (  0.1%)
Population analysis         ....       0.002 sec  (  0.3%)
Initial guess               ....       0.003 sec  (  0.4%)
Orbital Transformation      ....       0.000 sec  (  0.0%)
Orbital Orthonormalization  ....       0.001 sec  (  0.1%)
DIIS solution               ....       0.001 sec  (  0.1%)
SOSCF solution              ....       0.002 sec  (  0.2%)
Grid generation             ....       0.191 sec  ( 20.6%)

Maximum memory used throughout the entire SCF-calculation: 61.1 MB


           ************************************************************
           *        Program running with 8 parallel MPI-processes     *
           *              working on a common directory               *
           ************************************************************
------------------------------------------------------------------------------
                        ORCA TD-DFT/TDA CALCULATION
------------------------------------------------------------------------------

Input orbitals are from        ... ox_es1_F_orca0005.gbw
CI-vector output               ... ox_es1_F_orca0005.cis
Tamm-Dancoff approximation     ... operative
CIS-Integral strategy          ... AO-integrals
Integral handling              ... AO integral Direct
Max. core memory used          ... 3000 MB
Reference state                ... RHF
Generation of triplets         ... off
Follow IRoot                   ... off
Number of operators            ... 1
Orbital ranges used for CIS calculation:
 Operator 0:  Orbitals   3... 11  to  12...116
XAS localization array:
 Operator 0:  Orbitals  -1... -1

-------------------
XC-INTEGRATION GRID
-------------------

General Integration Accuracy     IntAcc      ... 3.467
Radial Grid Type                 RadialGrid  ... OptM3 with GC (2021)
Angular Grid (max. ang.)         AngularGrid ... 1 (Lebedev-50)
Angular grid pruning method      GridPruning ... 4 (adaptive)
Weight generation scheme         WeightScheme... Becke
Basis function cutoff            BFCut       ... 1.0000e-11
Integration weight cutoff        WCut        ... 1.0000e-14
Angular grids for H and He will be reduced by one unit
Partially contracted basis set               ... off
Rotationally invariant grid construction     ... off

Total number of grid points                  ...     4551
Total number of batches                      ...       74
Average number of points per batch           ...       61
Average number of grid points per atom       ...      650

---------------------
COSX-INTEGRATION GRID
---------------------

General Integration Accuracy     IntAcc      ... 3.067
Radial Grid Type                 RadialGrid  ... OptM3 with GC (2021)
Angular Grid (max. ang.)         AngularGrid ... 1 (Lebedev-50)
Angular grid pruning method      GridPruning ... 4 (adaptive)
Weight generation scheme         WeightScheme... Becke
Basis function cutoff            BFCut       ... 1.0000e-11
Integration weight cutoff        WCut        ... 1.0000e-14
Angular grids for H and He will be reduced by one unit
Partially contracted basis set               ... on
Rotationally invariant grid construction     ... off

Total number of grid points                  ...     2089
Total number of batches                      ...       37
Average number of points per batch           ...       56
Average number of grid points per atom       ...      298

---------------
TD-DFT XC SETUP
---------------

DFT calculation                         ... on
Name of the grid file                   ... ox_es1_F_orca0005.grid_cis.tmp
Exchange functional (TD-DFT)            ... PBE
   PBE kappa parameter  XKappa (TD-DFT) ...  0.804000
   PBE mue parameter   XMuePBE (TD-DFT) ...  0.219520
Correlation functional (TD-DFT)         ... PBE
   PBE beta parameter CBetaPBE (TD-DFT) ...  0.066725
 LDA part of GGA corr.  LDAOpt (TD-DFT) ... PW91-LDA
Hybrid DFT                              ... on
   Exchange mixing (TD-DFT)             ...  0.250
   GGA exch. scaling (TD-DFT)           ...  0.750
   GGA corr. scaling (TD-DFT)           ...  1.000

Building densities             ... done
Calculating rho(r) on the grid ... done
Building xc-kernel on the grid ... done
                    *** TD-DFT CALCULATION INITIALIZED ***

------------------------
DAVIDSON-DIAGONALIZATION
------------------------

Dimension of the eigenvalue problem            ...    945
Number of roots to be determined               ...      1
Maximum size of the expansion space            ...     10
Maximum number of iterations                   ...    100
Convergence tolerance for the residual         ...    2.500e-07
Convergence tolerance for the energies         ...    2.500e-07
Orthogonality tolerance                        ...    1.000e-14
Level Shift                                    ...    0.000e+00
Constructing the preconditioner                ... o.k.
Building the initial guess                     ... o.k.
Number of trial vectors determined             ...     10


                       ****Iteration    0****

   Memory handling for direct AO based CIS:
   Memory per vector needed      ...     1 MB
   Memory needed                 ...     1 MB
   Memory available              ...  3000 MB
   Number of vectors per batch   ...  3000
   Number of batches             ...     1
   Time for densities:            0.000
   Time for RI-J (Direct):        0.015
   Time for K (COSX):             0.054
   Time for XC-Integration:       0.014
   Time for Sigma-Completion:     0.000
   Size of expansion space: 3
   Lowest Energy          :     0.014266116930
   Maximum Energy change  :     0.014266116930 (vector 0)
   Maximum residual norm  :     0.002651677929

                       ****Iteration    1****
   Time for densities:            0.000
   Time for RI-J (Direct):        0.012
   Time for K (COSX):             0.048
   Time for XC-Integration:       0.006
   Time for Sigma-Completion:     0.000
   Size of expansion space: 4
   Lowest Energy          :     0.012432305929
   Maximum Energy change  :     0.001833811001 (vector 0)
   Maximum residual norm  :     0.000050913222

                       ****Iteration    2****
   Time for densities:            0.000
   Time for RI-J (Direct):        0.012
   Time for K (COSX):             0.048
   Time for XC-Integration:       0.006
   Time for Sigma-Completion:     0.000
   Size of expansion space: 5
   Lowest Energy          :     0.012395974126
   Maximum Energy change  :     0.000036331804 (vector 0)
   Maximum residual norm  :     0.000004006875

                       ****Iteration    3****
   Time for densities:            0.000
   Time for RI-J (Direct):        0.012
   Time for K (COSX):             0.048
   Time for XC-Integration:       0.006
   Time for Sigma-Completion:     0.000
   Size of expansion space: 6
   Lowest Energy          :     0.012393193564
   Maximum Energy change  :     0.000002780562 (vector 0)
   Maximum residual norm  :     0.000000124703

      *** CONVERGENCE OF RESIDUAL NORM REACHED ***

Storing the converged CI vectors               ... ox_es1_F_orca0005.cis1

                 *** DAVIDSON DONE ***

Total time for solving the CIS problem:     0.287sec

------------------------------------
TD-DFT/TDA EXCITED STATES (SINGLETS)
------------------------------------

the weight of the individual excitations are printed if larger than 1.0e-02

STATE  1:  E=   0.012393 au      0.337 eV     2720.0 cm**-1 <S**2> =   0.000000
    10a ->  12a  :     0.037916 (c=  0.19472144)
    11a ->  12a  :     0.958360 (c=  0.97895878)


-----------------------------
TD-DFT/TDA-EXCITATION SPECTRA
-----------------------------

Center of mass = ( -0.8679,  0.1090,  0.0251)
Calculating the Dipole integrals                  ... done
Transforming integrals                            ... done
Calculating the Linear Momentum integrals         ... done
Transforming integrals                            ... done
Calculating angular momentum integrals            ... done
Transforming integrals                            ... done

-----------------------------------------------------------------------------
         ABSORPTION SPECTRUM VIA TRANSITION ELECTRIC DIPOLE MOMENTS
-----------------------------------------------------------------------------
State   Energy    Wavelength  fosc         T2        TX        TY        TZ  
        (cm-1)      (nm)                 (au**2)    (au)      (au)      (au) 
-----------------------------------------------------------------------------
   1    2720.0   3676.5   0.000022220   0.00269  -0.01287   0.01519  -0.04788

-----------------------------------------------------------------------------
         ABSORPTION SPECTRUM VIA TRANSITION VELOCITY DIPOLE MOMENTS
-----------------------------------------------------------------------------
State   Energy    Wavelength   fosc        P2         PX        PY        PZ  
        (cm-1)      (nm)                 (au**2)     (au)      (au)      (au) 
-----------------------------------------------------------------------------
   1    2720.0   3676.5   0.025691662   0.00048  -0.00377   0.00835   0.01984

-------------------------------------------------------------------
                             CD SPECTRUM
-------------------------------------------------------------------
State  Energy     Wavelength     R         MX        MY        MZ   
       (cm-1)       (nm)     (1e40*cgs)   (au)      (au)      (au)  
-------------------------------------------------------------------
   1    2720.0   3676.5      2.55369   0.02320   0.32662  -0.01576

-------------------------------------------------------------------
         CD SPECTRUM VIA TRANSITION VELOCITY DIPOLE MOMENTS        
-------------------------------------------------------------------
State  Energy     Wavelength     R         MX        MY        MZ   
       (cm-1)       (nm)     (1e40*cgs)   (au)      (au)      (au)  
-------------------------------------------------------------------
   1    2720.0   3676.5     88.48255   0.02320   0.32662  -0.01576

Total run time:        0.517 sec

           *** ORCA-CIS/TD-DFT FINISHED WITHOUT ERROR ***

Maximum memory used throughout the entire CIS-calculation: 49.4 MB

-----------------------
CIS/TD-DFT TOTAL ENERGY
-----------------------

    E(SCF)  =   -153.496381477 Eh
    DE(CIS) =      0.012393194 Eh (Root  1)
    ----------------------------- ---------
    E(tot)  =   -153.483988283 Eh



-------------------------------------------------------------------------------
                          DFT DISPERSION CORRECTION                            
                                                                               
                              DFTD3 V3.1  Rev 1                                
                          USING Becke-Johnson damping                          
-------------------------------------------------------------------------------
The PBE0 functional is recognized
Active option DFTDOPT                   ...         4   

molecular C6(AA) [au] = 395.434859 


            DFT-D V3
 parameters
 s6 scaling factor         :     1.0000 
 a1 scaling factor         :     0.4145 
 s8 scaling factor         :     1.2177 
 a2 scaling factor         :     4.8593 
 ad hoc parameters k1-k3   :    16.0000     1.3333    -4.0000 

 Edisp/kcal,au: -1.630355120136  -0.002598135986 
 E6   /kcal   :  -1.063288343 
 E8   /kcal   :  -0.567066777 
 % E8         :  34.781795104 

-------------------------   ----------------
Dispersion correction           -0.002598136
-------------------------   ----------------


-------------------------   --------------------
FINAL SINGLE POINT ENERGY      -153.486586418990
-------------------------   --------------------



           ************************************************************
           *        Program running with 8 parallel MPI-processes     *
           *              working on a common directory               *
           ************************************************************
------------------------------------------------------------------------------
                         ORCA SCF GRADIENT CALCULATION
------------------------------------------------------------------------------


------------------------
TD-DFT GRADIENT XC SETUP
------------------------

Building densities                     ... done
Calculating rho(r) on the grid         ... done
Building xc-kernel on the grid         ... done
Building xc 3rd derivative on the grid      ... done
                *** TD-DFT GRADIENT CALCULATION INITIALIZED ***

-------------------
TD-DFT/TDA GRADIENT
-------------------

Reference wavefunction             ... RHF
State of interest                  ... 1
Basis dimension                    ... 117
DFT-XC contribution needed         ... YES
RI-approximation                   ... ON
CIS-vectors being read from        ... ox_es1_F_orca0005.cis

 => Number of Vectors found: 1
 => Orbital Window: 3...11 -> 12...116

Reading the CIS file                     ... done
Norm of the CI vector                    ... 1.000000000
Making the CIS (pseudo)densities         ... done
Making operators G(D) and Q(T)           ... done
Transforming the Fock operators          ... done
Making the frozen-core relaxed density   ... done
Constructing the G(H) operator           ... done
Transforming the G(H) operator           ... done
Calculating the CIS Lagrangian           ... done
Solving the Z-vector equations           ... done
Finalizing the relaxed density           ... done
Storing the relaxed density              ... done
Constructing the G(Z) operator           ... done
Transforming the G(Z) operator           ... done
Making the W-matrix                      ... done
Finalizing the W-matrix                  ... done
Transforming the W-matrix                ... done
Nuclear repulsion gradient               ... done
One-Electron gradient                    ... done
Dispersion correction                    ... done
Prescreening matrices                    ... done
COSX-gradient                            ... done
Coulomb gradient (RI)                    ... done
Exchange-Correlation gradient            ... done

                 ---------------------------
                 EXCITED STATE GRADIENT DONE
                 ---------------------------

------------------
CARTESIAN GRADIENT
------------------

   1   O   :   -0.015112397    0.025539780    0.002023929
   2   C   :   -0.069100279   -0.114116442    0.095665935
   3   C   :    0.022216965    0.061701391    0.025320104
   4   H   :    0.040752080    0.045182683   -0.076502359
   5   H   :   -0.001672555    0.020459052   -0.010349989
   6   H   :    0.027203610   -0.024970604   -0.024571595
   7   H   :   -0.004226675   -0.013781239   -0.011610153

Difference to translation invariance:
           :    0.0000607479    0.0000146209   -0.0000241269

Difference to rotation invariance:
           :   -0.0001257495   -0.0000652165   -0.0004564152

Norm of the cartesian gradient     ...    0.2125303037
RMS gradient                       ...    0.0463779145
MAX gradient                       ...    0.1141164416

------------------------------------------------------------------------------
                  RELAXED CIS/TDA DENSITY POPULATION ANALYSIS
                                   IROOT 1
------------------------------------------------------------------------------
------------------------------------------------------------------------------
                           ORCA POPULATION ANALYSIS
------------------------------------------------------------------------------
Input electron density              ... ox_es1_F_orca0005.cisp
BaseName (.gbw .S,...)              ... ox_es1_F_orca0005

                    ********************************
                    * MULLIKEN POPULATION ANALYSIS *
                    ********************************

-----------------------
MULLIKEN ATOMIC CHARGES
-----------------------
   0 O :   -0.306121
   1 C :   -0.109218
   2 C :   -0.204594
   3 H :    0.162526
   4 H :    0.168247
   5 H :    0.148778
   6 H :    0.140382
Sum of atomic charges:   -0.0000000

--------------------------------
MULLIKEN REDUCED ORBITAL CHARGES
--------------------------------
  0 O s       :     3.921588  s :     3.921588
      pz      :     1.071607  p :     4.366428
      px      :     1.947852
      py      :     1.346970
      dz2     :     0.002232  d :     0.017436
      dxz     :     0.000214
      dyz     :     0.004552
      dx2y2   :     0.006279
      dxy     :     0.004159
      f0      :     0.000002  f :     0.000669
      f+1     :     0.000006
      f-1     :     0.000033
      f+2     :     0.000101
      f-2     :     0.000032
      f+3     :     0.000235
      f-3     :     0.000260
  1 C s       :     3.213298  s :     3.213298
      pz      :     1.048314  p :     2.763316
      px      :     0.948446
      py      :     0.766556
      dz2     :     0.012974  d :     0.124440
      dxz     :     0.021756
      dyz     :     0.017194
      dx2y2   :     0.024549
      dxy     :     0.047967
      f0      :     0.000810  f :     0.008165
      f+1     :     0.001352
      f-1     :     0.000345
      f+2     :     0.001051
      f-2     :     0.000206
      f+3     :     0.002313
      f-3     :     0.002087
  2 C s       :     3.314618  s :     3.314618
      pz      :     1.032201  p :     2.843875
      px      :     0.957802
      py      :     0.853872
      dz2     :     0.003560  d :     0.042404
      dxz     :     0.016685
      dyz     :     0.004188
      dx2y2   :     0.005110
      dxy     :     0.012860
      f0      :     0.000312  f :     0.003697
      f+1     :     0.000838
      f-1     :     0.000199
      f+2     :     0.000570
      f-2     :     0.000184
      f+3     :     0.000687
      f-3     :     0.000907
  3 H s       :     0.811719  s :     0.811719
      pz      :     0.011422  p :     0.025755
      px      :     0.007637
      py      :     0.006696
  4 H s       :     0.809797  s :     0.809797
      pz      :     0.010943  p :     0.021957
      px      :     0.006059
      py      :     0.004955
  5 H s       :     0.830893  s :     0.830893
      pz      :     0.009177  p :     0.020329
      px      :     0.006234
      py      :     0.004918
  6 H s       :     0.836364  s :     0.836364
      pz      :     0.010110  p :     0.023254
      px      :     0.007116
      py      :     0.006027


                     *******************************
                     * LOEWDIN POPULATION ANALYSIS *
                     *******************************

----------------------
LOEWDIN ATOMIC CHARGES
----------------------
   0 O :   -0.067536
   1 C :   -0.326664
   2 C :   -0.133360
   3 H :    0.111402
   4 H :    0.165585
   5 H :    0.136970
   6 H :    0.113603

-------------------------------
LOEWDIN REDUCED ORBITAL CHARGES
-------------------------------
  0 O s       :     3.655516  s :     3.655516
      pz      :     1.050513  p :     4.370339
      px      :     1.893971
      py      :     1.425855
      dz2     :     0.005427  d :     0.039593
      dxz     :     0.000370
      dyz     :     0.009542
      dx2y2   :     0.014235
      dxy     :     0.010020
      f0      :     0.000235  f :     0.002087
      f+1     :     0.000041
      f-1     :     0.000233
      f+2     :     0.000269
      f-2     :     0.000085
      f+3     :     0.000574
      f-3     :     0.000651
  1 C s       :     2.849095  s :     2.849095
      pz      :     1.040710  p :     2.952023
      px      :     1.063245
      py      :     0.848068
      dz2     :     0.070202  d :     0.469418
      dxz     :     0.093001
      dyz     :     0.043527
      dx2y2   :     0.129134
      dxy     :     0.133554
      f0      :     0.005266  f :     0.056128
      f+1     :     0.006334
      f-1     :     0.004959
      f+2     :     0.006322
      f-2     :     0.001630
      f+3     :     0.016156
      f-3     :     0.015462
  2 C s       :     2.954126  s :     2.954126
      pz      :     1.079118  p :     2.957266
      px      :     1.079862
      py      :     0.798286
      dz2     :     0.024949  d :     0.201751
      dxz     :     0.089704
      dyz     :     0.012177
      dx2y2   :     0.032425
      dxy     :     0.042495
      f0      :     0.002134  f :     0.020217
      f+1     :     0.003112
      f-1     :     0.001403
      f+2     :     0.003061
      f-2     :     0.002411
      f+3     :     0.003787
      f-3     :     0.004309
  3 H s       :     0.805514  s :     0.805514
      pz      :     0.038430  p :     0.083084
      px      :     0.024088
      py      :     0.020566
  4 H s       :     0.774170  s :     0.774170
      pz      :     0.031161  p :     0.060244
      px      :     0.016183
      py      :     0.012900
  5 H s       :     0.806060  s :     0.806060
      pz      :     0.027118  p :     0.056970
      px      :     0.015868
      py      :     0.013984
  6 H s       :     0.816581  s :     0.816581
      pz      :     0.031822  p :     0.069816
      px      :     0.019590
      py      :     0.018404


                      *****************************
                      * MAYER POPULATION ANALYSIS *
                      *****************************

  NA   - Mulliken gross atomic population
  ZA   - Total nuclear charge
  QA   - Mulliken gross atomic charge
  VA   - Mayer's total valence
  BVA  - Mayer's bonded valence
  FA   - Mayer's free valence

  ATOM       NA         ZA         QA         VA         BVA        FA
  0 O      8.3061     8.0000    -0.3061     1.7256     1.1016     0.6240
  1 C      6.1092     6.0000    -0.1092     4.0502     3.9803     0.0699
  2 C      6.2046     6.0000    -0.2046     3.8201     3.0977     0.7225
  3 H      0.8375     1.0000     0.1625     0.9740     0.9505     0.0235
  4 H      0.8318     1.0000     0.1682     0.9676     0.9247     0.0428
  5 H      0.8512     1.0000     0.1488     0.9659     0.9546     0.0113
  6 H      0.8596     1.0000     0.1404     0.9664     0.9571     0.0093

  Mayer bond orders larger than 0.100000
B(  0-O ,  1-C ) :   0.9837 B(  1-C ,  2-C ) :   1.1279 B(  1-C ,  3-H ) :   0.9464 
B(  1-C ,  4-H ) :   0.9075 B(  2-C ,  5-H ) :   0.9402 B(  2-C ,  6-H ) :   0.9479 



-------
TIMINGS
-------

Total TD-DFT gradient time         ...        5.680 sec

Fock matrix formation       ....       0.788 sec  ( 13.9%)
  Coulomb formation         ....       0.645 sec  ( 81.9% of F)
  RI-J                      ....       0.287 sec  ( 36.4% of F)
  Chain of spheres X        ....       0.358 sec  ( 45.4% of F)
  XC integration            ....       0.143 sec  ( 18.1% of F)
Z-vector equation           ....       2.386 sec  ( 42.0%)
One electron gradient       ....       0.031 sec  (  0.5%)
Prescreening matrices       ....       0.146 sec  (  2.6%)
RI-J Coulomb gradient       ....       0.239 sec  (  4.2%)
COSX gradient               ....       0.326 sec  (  5.7%)
XC gradient                 ....       1.469 sec  ( 25.9%)

Maximum memory used throughout the entire SCFGRAD-calculation: 130.2 MB

                            ***************************************
                            *     ORCA property calculations      *
                            ***************************************

                                    ---------------------
                                    Active property flags
                                    ---------------------
   (+) Dipole Moment


------------------------------------------------------------------------------
                       ORCA ELECTRIC PROPERTIES CALCULATION
------------------------------------------------------------------------------

Dipole Moment Calculation                       ... on
Quadrupole Moment Calculation                   ... off
Polarizability Calculation                      ... off
GBWName                                         ... ox_es1_F_orca0005.gbw
Electron density                                ... ox_es1_F_orca0005.scfp
The origin for moment calculation is the CENTER OF MASS  = (-0.867865,  0.109046  0.025082)

-------------
DIPOLE MOMENT
-------------
                                X             Y             Z
Electronic contribution:     -0.84462       1.47258       0.17322
Nuclear contribution   :      1.69538      -2.75426      -0.17540
                        -----------------------------------------
Total Dipole Moment    :      0.85076      -1.28167      -0.00219
                        -----------------------------------------
Magnitude (a.u.)       :      1.53834
Magnitude (Debye)      :      3.91014



--------------------
Rotational spectrum 
--------------------
 
Rotational constants in cm-1:     1.215048     0.347075     0.302092 
Rotational constants in MHz : 36426.217406 10405.048313  9056.492181 

 Dipole components along the rotational axes: 
x,y,z [a.u.] :    -1.427003    -0.574573     0.003250 
x,y,z [Debye]:    -3.627154    -1.460449     0.008262 

 

                        *** CIS RELAXED DENSITY ***

------------------------------------------------------------------------------
                       ORCA ELECTRIC PROPERTIES CALCULATION
------------------------------------------------------------------------------

Dipole Moment Calculation                       ... on
Quadrupole Moment Calculation                   ... off
Polarizability Calculation                      ... off
GBWName                                         ... ox_es1_F_orca0005.gbw
Electron density                                ... ox_es1_F_orca0005.cisp
The origin for moment calculation is the CENTER OF MASS  = (-0.867865,  0.109046  0.025082)

-------------
DIPOLE MOMENT
-------------
                                X             Y             Z
Electronic contribution:     -1.29143       1.66594       0.17396
Nuclear contribution   :      1.69538      -2.75426      -0.17540
                        -----------------------------------------
Total Dipole Moment    :      0.40395      -1.08831      -0.00145
                        -----------------------------------------
Magnitude (a.u.)       :      1.16086
Magnitude (Debye)      :      2.95068



--------------------
Rotational spectrum 
--------------------
 
Rotational constants in cm-1:     1.215048     0.347075     0.302092 
Rotational constants in MHz : 36426.217406 10405.048313  9056.492181 

 Dipole components along the rotational axes: 
x,y,z [a.u.] :    -0.949407    -0.667904    -0.011574 
x,y,z [Debye]:    -2.413200    -1.697676    -0.029420 

 

Timings for individual modules:

Sum of individual times         ...        7.887 sec (=   0.131 min)
GTO integral calculation        ...        0.249 sec (=   0.004 min)   3.2 %
SCF iterations                  ...        1.091 sec (=   0.018 min)  13.8 %
CIS module                      ...        0.698 sec (=   0.012 min)   8.8 %
SCF Gradient evaluation         ...        5.849 sec (=   0.097 min)  74.2 %
                             ****ORCA TERMINATED NORMALLY****
TOTAL RUN TIME: 0 days 0 hours 0 minutes 8 seconds 173 msec
