
                                 *****************
                                 * O   R   C   A *
                                 *****************

                                            #,                                       
                                            ###                                      
                                            ####                                     
                                            #####                                    
                                            ######                                   
                                           ########,                                 
                                     ,,################,,,,,                         
                               ,,#################################,,                 
                          ,,##########################################,,             
                       ,#########################################, ''#####,          
                    ,#############################################,,   '####,        
                  ,##################################################,,,,####,       
                ,###########''''           ''''###############################       
              ,#####''   ,,,,##########,,,,          '''####'''          '####       
            ,##' ,,,,###########################,,,                        '##       
           ' ,,###''''                  '''############,,,                           
         ,,##''                                '''############,,,,        ,,,,,,###''
      ,#''                                            '''#######################'''  
     '                                                          ''''####''''         
             ,#######,   #######,   ,#######,      ##                                
            ,#'     '#,  ##    ##  ,#'     '#,    #''#        ######   ,####,        
            ##       ##  ##   ,#'  ##            #'  '#       #        #'  '#        
            ##       ##  #######   ##           ,######,      #####,   #    #        
            '#,     ,#'  ##    ##  '#,     ,#' ,#      #,         ##   #,  ,#        
             '#######'   ##     ##  '#######'  #'      '#     #####' # '####'        



                  #######################################################
                  #                        -***-                        #
                  #          Department of theory and spectroscopy      #
                  #    Directorship and core code : Frank Neese         #
                  #        Max Planck Institute fuer Kohlenforschung    #
                  #                Kaiser Wilhelm Platz 1               #
                  #                 D-45470 Muelheim/Ruhr               #
                  #                      Germany                        #
                  #                                                     #
                  #                  All rights reserved                #
                  #                        -***-                        #
                  #######################################################


                         Program Version 5.0.2 -  RELEASE  -


 With contributions from (in alphabetic order):
   Daniel Aravena         : Magnetic Suceptibility
   Michael Atanasov       : Ab Initio Ligand Field Theory (pilot matlab implementation)
   Alexander A. Auer      : GIAO ZORA, VPT2 properties, NMR spectrum
   Ute Becker             : Parallelization
   Giovanni Bistoni       : ED, misc. LED, open-shell LED, HFLD
   Martin Brehm           : Molecular dynamics
   Dmytro Bykov           : SCF Hessian
   Vijay G. Chilkuri      : MRCI spin determinant printing, contributions to CSF-ICE
   Dipayan Datta          : RHF DLPNO-CCSD density
   Achintya Kumar Dutta   : EOM-CC, STEOM-CC
   Dmitry Ganyushin       : Spin-Orbit,Spin-Spin,Magnetic field MRCI
   Miquel Garcia          : C-PCM and meta-GGA Hessian, CC/C-PCM, Gaussian charge scheme
   Yang Guo               : DLPNO-NEVPT2, F12-NEVPT2, CIM, IAO-localization
   Andreas Hansen         : Spin unrestricted coupled pair/coupled cluster methods
   Benjamin Helmich-Paris : MC-RPA, TRAH-SCF, COSX integrals
   Lee Huntington         : MR-EOM, pCC
   Robert Izsak           : Overlap fitted RIJCOSX, COSX-SCS-MP3, EOM
   Marcus Kettner         : VPT2
   Christian Kollmar      : KDIIS, OOCD, Brueckner-CCSD(T), CCSD density, CASPT2, CASPT2-K
   Simone Kossmann        : Meta GGA functionals, TD-DFT gradient, OOMP2, MP2 Hessian
   Martin Krupicka        : Initial AUTO-CI
   Lucas Lang             : DCDCAS
   Marvin Lechner         : AUTO-CI (C++ implementation), FIC-MRCC
   Dagmar Lenk            : GEPOL surface, SMD
   Dimitrios Liakos       : Extrapolation schemes; Compound Job, initial MDCI parallelization
   Dimitrios Manganas     : Further ROCIS development; embedding schemes
   Dimitrios Pantazis     : SARC Basis sets
   Anastasios Papadopoulos: AUTO-CI, single reference methods and gradients
   Taras Petrenko         : DFT Hessian,TD-DFT gradient, ASA, ECA, R-Raman, ABS, FL, XAS/XES, NRVS
   Peter Pinski           : DLPNO-MP2, DLPNO-MP2 Gradient
   Christoph Reimann      : Effective Core Potentials
   Marius Retegan         : Local ZFS, SOC
   Christoph Riplinger    : Optimizer, TS searches, QM/MM, DLPNO-CCSD(T), (RO)-DLPNO pert. Triples
   Tobias Risthaus        : Range-separated hybrids, TD-DFT gradient, RPA, STAB
   Michael Roemelt        : Original ROCIS implementation
   Masaaki Saitow         : Open-shell DLPNO-CCSD energy and density
   Barbara Sandhoefer     : DKH picture change effects
   Avijit Sen             : IP-ROCIS
   Kantharuban Sivalingam : CASSCF convergence, NEVPT2, FIC-MRCI
   Bernardo de Souza      : ESD, SOC TD-DFT
   Georgi Stoychev        : AutoAux, RI-MP2 NMR, DLPNO-MP2 response
   Willem Van den Heuvel  : Paramagnetic NMR
   Boris Wezisla          : Elementary symmetry handling
   Frank Wennmohs         : Technical directorship


 We gratefully acknowledge several colleagues who have allowed us to
 interface, adapt or use parts of their codes:
   Stefan Grimme, W. Hujo, H. Kruse, P. Pracht,  : VdW corrections, initial TS optimization,
                  C. Bannwarth, S. Ehlert          DFT functionals, gCP, sTDA/sTD-DF
   Ed Valeev, F. Pavosevic, A. Kumar             : LibInt (2-el integral package), F12 methods
   Garnet Chan, S. Sharma, J. Yang, R. Olivares  : DMRG
   Ulf Ekstrom                                   : XCFun DFT Library
   Mihaly Kallay                                 : mrcc  (arbitrary order and MRCC methods)
   Jiri Pittner, Ondrej Demel                    : Mk-CCSD
   Frank Weinhold                                : gennbo (NPA and NBO analysis)
   Christopher J. Cramer and Donald G. Truhlar   : smd solvation model
   Lars Goerigk                                  : TD-DFT with DH, B97 family of functionals
   V. Asgeirsson, H. Jonsson                     : NEB implementation
   FAccTs GmbH                                   : IRC, NEB, NEB-TS, DLPNO-Multilevel, CI-OPT
                                                   MM, QMMM, 2- and 3-layer-ONIOM, Crystal-QMMM,
                                                   LR-CPCM, SF, NACMEs, symmetry and pop. for TD-DFT,
                                                   nearIR, NL-DFT gradient (VV10), updates on ESD,
                                                   ML-optimized integration grids
   S Lehtola, MJT Oliveira, MAL Marques          : LibXC Library
   Liviu Ungur et al                             : ANISO software


 Your calculation uses the libint2 library for the computation of 2-el integrals
 For citations please refer to: http://libint.valeyev.net

 Your ORCA version has been built with support for libXC version: 5.1.0
 For citations please refer to: https://tddft.org/programs/libxc/

 This ORCA versions uses:
   CBLAS   interface :  Fast vector & matrix operations
   LAPACKE interface :  Fast linear algebra routines
   SCALAPACK package :  Parallel linear algebra routines
   Shared memory     :  Shared parallel matrices
   BLAS/LAPACK       :  OpenBLAS 0.3.15  USE64BITINT DYNAMIC_ARCH NO_AFFINITY SkylakeX SINGLE_THREADED
        Core in use  :  SkylakeX
   Copyright (c) 2011-2014, The OpenBLAS Project


Your calculation utilizes the atom-pairwise dispersion correction
with the Becke-Johnson damping scheme (D3BJ)
Cite in your paper:
S.Grimme, S.Ehrlich, L.Goerigk, J Comput Chem, (2011), 32, 1456–1465 
S.Grimme, J.Antony, S.Ehrlich and H.Krieg, J.Chem.Phys., 132, (2010), 154104 
   

================================================================================

----- Orbital basis set information -----
Your calculation utilizes the basis: def2-TZVP
   F. Weigend and R. Ahlrichs, Phys. Chem. Chem. Phys. 7, 3297 (2005).

----- AuxJ basis set information -----
Your calculation utilizes the auxiliary basis: def2/J
   F. Weigend, Phys. Chem. Chem. Phys. 8, 1057 (2006).

================================================================================
                                        WARNINGS
                       Please study these warnings very carefully!
================================================================================

INFO   : Checking CIS options ...

WARNING: CIS/ROCIS methods need fully converged wavefunctions
  ===> : Setting SCFConvForced true
         You can overwrite this default with %scf ConvForced false 


INFO   : the flag for use of the SHARK integral package has been found!

================================================================================
                                       INPUT FILE
================================================================================
NAME = ox_es1_A_orca0001.inp
|  1> ! engrad PBE0 D3BJ def2-TZVP  
|  2> %pal nprocs 8 end
|  3> %maxcore 3000
|  4> 
|  5> %tddft
|  6>   nroots 1
|  7>   tda true
|  8>   Iroot 1
|  9>   end 
| 10> *xyz 0 1 
| 11> O   -0.011288765024326785 0.7703007202343962 -0.07123729931067284
| 12> C   -0.7561087262262591 -0.44147436051450667 -0.057549678871115145
| 13> C   0.7476744409172835 -0.47705242449594026 -0.01458468748966384
| 14> H   -1.2939082606114698 -0.5756569007745531 0.9193013587631033
| 15> H   -1.316708316447795 -0.6271436643948406 -0.9810184024985511
| 16> H   1.2742659997502377 -0.7662543661939888 -0.9863855224449215
| 17> H   1.2736659317934562 -0.6313474810002295 0.9285445840594985
| 18> *
| 19> 
| 20>                          ****END OF INPUT****
================================================================================

                     *******************************
                     * Energy+Gradient Calculation *
                     *******************************

---------------------------------
CARTESIAN COORDINATES (ANGSTROEM)
---------------------------------
  O     -0.011289    0.770301   -0.071237
  C     -0.756109   -0.441474   -0.057550
  C      0.747674   -0.477052   -0.014585
  H     -1.293908   -0.575657    0.919301
  H     -1.316708   -0.627144   -0.981018
  H      1.274266   -0.766254   -0.986386
  H      1.273666   -0.631347    0.928545

----------------------------
CARTESIAN COORDINATES (A.U.)
----------------------------
  NO LB      ZA    FRAG     MASS         X           Y           Z
   0 O     8.0000    0    15.999   -0.021333    1.455657   -0.134619
   1 C     6.0000    0    12.011   -1.428838   -0.834266   -0.108753
   2 C     6.0000    0    12.011    1.412900   -0.901498   -0.027561
   3 H     1.0000    0     1.008   -2.445132   -1.087834    1.737228
   4 H     1.0000    0     1.008   -2.488218   -1.185130   -1.853856
   5 H     1.0000    0     1.008    2.408014   -1.448011   -1.863998
   6 H     1.0000    0     1.008    2.406880   -1.193074    1.754695

--------------------------------
INTERNAL COORDINATES (ANGSTROEM)
--------------------------------
 O      0   0   0     0.000000000000     0.00000000     0.00000000
 C      1   0   0     1.422442607588     0.00000000     0.00000000
 C      1   2   0     1.461206533680    62.89523535     0.00000000
 H      2   1   3     1.123152368569   111.15365845   109.52188535
 H      2   1   3     1.096147560540   113.82749240   245.49327459
 H      3   1   2     1.142511836147   114.99270107   106.29545006
 H      3   1   2     1.090856010566   113.87316768   247.76256684

---------------------------
INTERNAL COORDINATES (A.U.)
---------------------------
 O      0   0   0     0.000000000000     0.00000000     0.00000000
 C      1   0   0     2.688026969562     0.00000000     0.00000000
 C      1   2   0     2.761280173751    62.89523535     0.00000000
 H      2   1   3     2.122450383261   111.15365845   109.52188535
 H      2   1   3     2.071418691787   113.82749240   245.49327459
 H      3   1   2     2.159034475081   114.99270107   106.29545006
 H      3   1   2     2.061419111512   113.87316768   247.76256684

---------------------
BASIS SET INFORMATION
---------------------
There are 3 groups of distinct atoms

 Group   1 Type O   : 11s6p2d1f contracted to 5s3p2d1f pattern {62111/411/11/1}
 Group   2 Type C   : 11s6p2d1f contracted to 5s3p2d1f pattern {62111/411/11/1}
 Group   3 Type H   : 5s1p contracted to 3s1p pattern {311/1}

Atom   0O    basis set group =>   1
Atom   1C    basis set group =>   2
Atom   2C    basis set group =>   2
Atom   3H    basis set group =>   3
Atom   4H    basis set group =>   3
Atom   5H    basis set group =>   3
Atom   6H    basis set group =>   3
---------------------------------
AUXILIARY/J BASIS SET INFORMATION
---------------------------------
There are 3 groups of distinct atoms

 Group   1 Type O   : 12s5p4d2f1g contracted to 6s4p3d1f1g pattern {711111/2111/211/2/1}
 Group   2 Type C   : 12s5p4d2f1g contracted to 6s4p3d1f1g pattern {711111/2111/211/2/1}
 Group   3 Type H   : 5s2p1d contracted to 3s1p1d pattern {311/2/1}

Atom   0O    basis set group =>   1
Atom   1C    basis set group =>   2
Atom   2C    basis set group =>   2
Atom   3H    basis set group =>   3
Atom   4H    basis set group =>   3
Atom   5H    basis set group =>   3
Atom   6H    basis set group =>   3

Checking for AutoStart:
The File: ox_es1_A_orca0001.gbw exists
Trying to determine its content:
     ... Fine, the file contains calculation information
     ... Fine, the calculation information was read
     ... Fine, the file contains a basis set
     ... Fine, the basis set was read
     ... Fine, the file contains a geometry
     ... Fine, the geometry was read
     ... Fine, the file contains a set of orbitals
     ... Fine, the orbitals can be read
     => possible old guess file was deleted
     => GBW file was renamed to GES file
     => GES file is set as startup file
     => Guess is set to MORead
     ... now leaving AutoStart



           ************************************************************
           *        Program running with 8 parallel MPI-processes     *
           *              working on a common directory               *
           ************************************************************
------------------------------------------------------------------------------
                           ORCA GTO INTEGRAL CALCULATION
                           -- RI-GTO INTEGRALS CHOSEN --
------------------------------------------------------------------------------
------------------------------------------------------------------------------
                   ___                                                        
                  /   \      - P O W E R E D   B Y -                         
                 /     \                                                     
                 |  |  |   _    _      __       _____    __    __             
                 |  |  |  | |  | |    /  \     |  _  \  |  |  /  |          
                  \  \/   | |  | |   /    \    | | | |  |  | /  /          
                 / \  \   | |__| |  /  /\  \   | |_| |  |  |/  /          
                |  |  |   |  __  | /  /__\  \  |    /   |      \           
                |  |  |   | |  | | |   __   |  |    \   |  |\   \          
                \     /   | |  | | |  |  |  |  | |\  \  |  | \   \       
                 \___/    |_|  |_| |__|  |__|  |_| \__\ |__|  \__/        
                                                                              
                      - O R C A' S   B I G   F R I E N D -                    
                                      &                                       
                       - I N T E G R A L  F E E D E R -                       
                                                                              
 v1 FN, 2020, v2 2021                                                         
------------------------------------------------------------------------------


Reading SHARK input file ox_es1_A_orca0001.SHARKINP.tmp ... ok
----------------------
SHARK INTEGRAL PACKAGE
----------------------

Number of atoms                             ...      7
Number of basis functions                   ...    117
Number of shells                            ...     49
Maximum angular momentum                    ...      3
Integral batch strategy                     ... SHARK/LIBINT Hybrid
RI-J (if used) integral strategy            ... SPLIT-RIJ (Revised 2003 algorithm where possible)
Printlevel                                  ...      1
Contraction scheme used                     ... SEGMENTED contraction
Coulomb Range Separation                    ... NOT USED
Exchange Range Separation                   ... NOT USED
Finite Nucleus Model                        ... NOT USED
Auxiliary Coulomb fitting basis             ... AVAILABLE
   # of basis functions in Aux-J            ...    191
   # of shells in Aux-J                     ...     65
   Maximum angular momentum in Aux-J        ...      4
Auxiliary J/K fitting basis                 ... NOT available
Auxiliary Correlation fitting basis         ... NOT available
Auxiliary 'external' fitting basis          ... NOT available
Integral threshold                          ...     2.500000e-11
Primitive cut-off                           ...     2.500000e-12
Primitive pair pre-selection threshold      ...     2.500000e-12

Calculating pre-screening integrals         ... done (  0.0 sec) Dimension = 49
Organizing shell pair data                  ... done (  0.0 sec)
Shell pair information
Total number of shell pairs                 ...      1225
Shell pairs after pre-screening             ...      1220
Total number of primitive shell pairs       ...      3648
Primitive shell pairs kept                  ...      3142
          la=0 lb=0:    373 shell pairs
          la=1 lb=0:    351 shell pairs
          la=1 lb=1:     91 shell pairs
          la=2 lb=0:    162 shell pairs
          la=2 lb=1:     78 shell pairs
          la=2 lb=2:     21 shell pairs
          la=3 lb=0:     81 shell pairs
          la=3 lb=1:     39 shell pairs
          la=3 lb=2:     18 shell pairs
          la=3 lb=3:      6 shell pairs

Calculating one electron integrals          ... done (  0.0 sec)
Calculating RI/J V-Matrix + Cholesky decomp.... done (  0.0 sec)
Calculating Nuclear repulsion               ... done (  0.0 sec) ENN=     74.119900617807 Eh

SHARK setup successfully completed in   0.2 seconds

Maximum memory used throughout the entire GTOINT-calculation: 14.9 MB


           ************************************************************
           *        Program running with 8 parallel MPI-processes     *
           *              working on a common directory               *
           ************************************************************
-------------------------------------------------------------------------------
                                 ORCA SCF
-------------------------------------------------------------------------------

------------
SCF SETTINGS
------------
Hamiltonian:
 Density Functional     Method          .... DFT(GTOs)
 Exchange Functional    Exchange        .... PBE
   PBE kappa parameter   XKappa         ....  0.804000
   PBE mue parameter    XMuePBE         ....  0.219520
 Correlation Functional Correlation     .... PBE
   PBE beta parameter  CBetaPBE         ....  0.066725
 LDA part of GGA corr.  LDAOpt          .... PW91-LDA
 Gradients option       PostSCFGGA      .... off
 Hybrid DFT is turned on
   Fraction HF Exchange ScalHFX         ....  0.250000
   Scaling of DF-GGA-X  ScalDFX         ....  0.750000
   Scaling of DF-GGA-C  ScalDFC         ....  1.000000
   Scaling of DF-LDA-C  ScalLDAC        ....  1.000000
   Perturbative correction              ....  0.000000
   Density functional embedding theory  .... OFF
   NL short-range parameter             ....  6.900000
 RI-approximation to the Coulomb term is turned on
   Number of AuxJ basis functions       .... 191
   RIJ-COSX (HFX calculated with COS-X)).... on


General Settings:
 Integral files         IntName         .... ox_es1_A_orca0001
 Hartree-Fock type      HFTyp           .... RHF
 Total Charge           Charge          ....    0
 Multiplicity           Mult            ....    1
 Number of Electrons    NEL             ....   24
 Basis Dimension        Dim             ....  117
 Nuclear Repulsion      ENuc            ....     74.1199006178 Eh

Convergence Acceleration:
 DIIS                   CNVDIIS         .... on
   Start iteration      DIISMaxIt       ....    12
   Startup error        DIISStart       ....  0.200000
   # of expansion vecs  DIISMaxEq       ....     5
   Bias factor          DIISBfac        ....   1.050
   Max. coefficient     DIISMaxC        ....  10.000
 Trust-Rad. Augm. Hess. CNVTRAH         .... auto
   Auto Start mean grad. ratio tolernc. ....  1.125000
   Auto Start start iteration           ....     1
   Auto Start num. interpolation iter.  ....    10
   Max. Number of Micro iterations      ....    16
   Max. Number of Macro iterations      .... Maxiter - #DIIS iter
   Number of Davidson start vectors     ....     2
   Converg. threshold I  (grad. norm)   ....   1.000e-05
   Converg. threshold II (energy diff.) ....   1.000e-08
   Grad. Scal. Fac. for Micro threshold ....   0.100
   Minimum threshold for Micro iter.    ....   0.010
   NR start threshold (gradient norm)   ....   0.001
   Initial trust radius                 ....   0.400
   Minimum AH scaling param. (alpha)    ....   1.000
   Maximum AH scaling param. (alpha)    .... 1000.000
   Orbital update algorithm             .... Taylor
   White noise on init. David. guess    .... on
   Maximum white noise                  ....   0.010
   Quad. conv. algorithm                .... NR
 SOSCF                  CNVSOSCF        .... on
   Start iteration      SOSCFMaxIt      ....   150
   Startup grad/error   SOSCFStart      ....  0.003300
 Level Shifting         CNVShift        .... on
   Level shift para.    LevelShift      ....    0.2500
   Turn off err/grad.   ShiftErr        ....    0.0010
 Zerner damping         CNVZerner       .... off
 Static damping         CNVDamp         .... on
   Fraction old density DampFac         ....    0.7000
   Max. Damping (<1)    DampMax         ....    0.9800
   Min. Damping (>=0)   DampMin         ....    0.0000
   Turn off err/grad.   DampErr         ....    0.1000
 Fernandez-Rico         CNVRico         .... off

SCF Procedure:
 Maximum # iterations   MaxIter         ....   125
 SCF integral mode      SCFMode         .... Direct
   Integral package                     .... SHARK and LIBINT hybrid scheme
 Reset frequency        DirectResetFreq ....    20
 Integral Threshold     Thresh          ....  2.500e-11 Eh
 Primitive CutOff       TCut            ....  2.500e-12 Eh

Convergence Tolerance:
 Convergence Check Mode ConvCheckMode   .... Total+1el-Energy
 Convergence forced     ConvForced      .... 1
 Energy Change          TolE            ....  1.000e-08 Eh
 1-El. energy change                    ....  1.000e-05 Eh
 Orbital Gradient       TolG            ....  1.000e-05
 Orbital Rotation angle TolX            ....  1.000e-05
 DIIS Error             TolErr          ....  5.000e-07


Diagonalization of the overlap matrix:
Smallest eigenvalue                        ... 4.951e-04
Time for diagonalization                   ...    0.021 sec
Threshold for overlap eigenvalues          ... 1.000e-08
Number of eigenvalues below threshold      ... 0
Time for construction of square roots      ...    0.003 sec
Total time needed                          ...    0.024 sec

---------------------
INITIAL GUESS: MOREAD
---------------------
Guess MOs are being read from file: ox_es1_A_orca0001.ges
Input Geometry matches current geometry (good)
Input basis set matches current basis set (good)
MOs were renormalized
MOs were reorthogonalized (Cholesky)
                      ------------------
                      INITIAL GUESS DONE (   0.0 sec)
                      ------------------
-------------------
DFT GRID GENERATION
-------------------

General Integration Accuracy     IntAcc      ... 4.388
Radial Grid Type                 RadialGrid  ... OptM3 with GC (2021)
Angular Grid (max. ang.)         AngularGrid ... 4 (Lebedev-302)
Angular grid pruning method      GridPruning ... 4 (adaptive)
Weight generation scheme         WeightScheme... Becke
Basis function cutoff            BFCut       ... 1.0000e-11
Integration weight cutoff        WCut        ... 1.0000e-14
Angular grids for H and He will be reduced by one unit
Partially contracted basis set               ... off
Rotationally invariant grid construction     ... off

Total number of grid points                  ...    31327
Total number of batches                      ...      493
Average number of points per batch           ...       63
Average number of grid points per atom       ...     4475
Time for grid setup =    0.135 sec

--------------------
COSX GRID GENERATION
--------------------

GRIDX 1
-------
General Integration Accuracy     IntAcc      ... 3.816
Radial Grid Type                 RadialGrid  ... OptM3 with GC (2021)
Angular Grid (max. ang.)         AngularGrid ... 1 (Lebedev-50)
Angular grid pruning method      GridPruning ... 4 (adaptive)
Weight generation scheme         WeightScheme... Becke
Basis function cutoff            BFCut       ... 1.0000e-11
Integration weight cutoff        WCut        ... 1.0000e-14
Angular grids for H and He will be reduced by one unit
Partially contracted basis set               ... on
Rotationally invariant grid construction     ... off

Total number of grid points                  ...     4038
Total number of batches                      ...       67
Average number of points per batch           ...       60
Average number of grid points per atom       ...      577
UseSFitting                                  ... on

GRIDX 2
-------
General Integration Accuracy     IntAcc      ... 4.020
Radial Grid Type                 RadialGrid  ... OptM3 with GC (2021)
Angular Grid (max. ang.)         AngularGrid ... 2 (Lebedev-110)
Angular grid pruning method      GridPruning ... 4 (adaptive)
Weight generation scheme         WeightScheme... Becke
Basis function cutoff            BFCut       ... 1.0000e-11
Integration weight cutoff        WCut        ... 1.0000e-14
Angular grids for H and He will be reduced by one unit
Partially contracted basis set               ... on
Rotationally invariant grid construction     ... off

Total number of grid points                  ...     8715
Total number of batches                      ...      140
Average number of points per batch           ...       62
Average number of grid points per atom       ...     1245
UseSFitting                                  ... on

GRIDX 3
-------
General Integration Accuracy     IntAcc      ... 4.338
Radial Grid Type                 RadialGrid  ... OptM3 with GC (2021)
Angular Grid (max. ang.)         AngularGrid ... 3 (Lebedev-194)
Angular grid pruning method      GridPruning ... 4 (adaptive)
Weight generation scheme         WeightScheme... Becke
Basis function cutoff            BFCut       ... 1.0000e-11
Integration weight cutoff        WCut        ... 1.0000e-14
Angular grids for H and He will be reduced by one unit
Partially contracted basis set               ... on
Rotationally invariant grid construction     ... off

Total number of grid points                  ...    19263
Total number of batches                      ...      305
Average number of points per batch           ...       63
Average number of grid points per atom       ...     2752
UseSFitting                                  ... on

Time for X-Grid setup             =    0.077 sec

--------------
SCF ITERATIONS
--------------
ITER       Energy         Delta-E        Max-DP      RMS-DP      [F,P]     Damp
               ***  Starting incremental Fock matrix formation  ***
                      *** Initiating the SOSCF procedure ***
                      *** Re-Reading the Fockian *** 
                      *** Removing any level shift *** 
ITER      Energy       Delta-E        Grad      Rot      Max-DP    RMS-DP
  0   -153.66826264 -153.6682626399  0.000001  0.000001  0.000001  0.000000
               *** Restarting incremental Fock matrix formation ***
                  ***Gradient check signals convergence***
              ***Rediagonalizing the Fockian in SOSCF/NRSCF***

               *****************************************************
               *                     SUCCESS                       *
               *           SCF CONVERGED AFTER   1 CYCLES          *
               *****************************************************

Old exchange energy                            =     -4.980047391 Eh
New exchange energy                            =     -4.980043314 Eh
Exchange energy change after final integration =      0.000004077 Eh
Total energy after final integration           =   -153.668258562 Eh
Final COS-X integration done in                =     0.249 sec

----------------
TOTAL SCF ENERGY
----------------

Total Energy       :         -153.66825856 Eh           -4181.52590 eV

Components:
Nuclear Repulsion  :           74.11990062 Eh            2016.90503 eV
Electronic Energy  :         -227.78815918 Eh           -6198.43093 eV
One Electron Energy:         -355.02823633 Eh           -9660.80946 eV
Two Electron Energy:          127.24007715 Eh            3462.37852 eV
Max COSX asymmetry :            0.00000347 Eh               0.00009 eV

Virial components:
Potential Energy   :         -306.39346591 Eh           -8337.39007 eV
Kinetic Energy     :          152.72520735 Eh            4155.86417 eV
Virial Ratio       :            2.00617482


DFT components:
N(Alpha)           :       12.000004531589 electrons
N(Beta)            :       12.000004531589 electrons
N(Total)           :       24.000009063179 electrons
E(X)               :      -14.915663624659 Eh       
E(C)               :       -0.787438708112 Eh       
E(XC)              :      -15.703102332771 Eh       
DFET-embed. en.    :        0.000000000000 Eh       

---------------
SCF CONVERGENCE
---------------

  Last Energy change         ...   -2.4727e-12  Tolerance :   1.0000e-08
  Last MAX-Density change    ...    1.2212e-15  Tolerance :   1.0000e-07
  Last RMS-Density change    ...    2.6550e-17  Tolerance :   5.0000e-09
  Last Orbital Gradient      ...    3.5181e-07  Tolerance :   1.0000e-05
  Last Orbital Rotation      ...    7.9703e-07  Tolerance :   1.0000e-05

             **** THE GBW FILE WAS UPDATED (ox_es1_A_orca0001.gbw) ****
             **** DENSITY ox_es1_A_orca0001.scfp WAS UPDATED ****
             **** ENERGY FILE WAS UPDATED (ox_es1_A_orca0001.en.tmp) ****
             **** THE GBW FILE WAS UPDATED (ox_es1_A_orca0001.gbw) ****
             **** DENSITY ox_es1_A_orca0001.scfp WAS UPDATED ****
----------------
ORBITAL ENERGIES
----------------

  NO   OCC          E(Eh)            E(eV) 
   0   2.0000     -19.221709      -523.0493 
   1   2.0000     -10.287193      -279.9287 
   2   2.0000     -10.282462      -279.8000 
   3   2.0000      -1.094700       -29.7883 
   4   2.0000      -0.691582       -18.8189 
   5   2.0000      -0.650522       -17.7016 
   6   2.0000      -0.524191       -14.2640 
   7   2.0000      -0.492479       -13.4010 
   8   2.0000      -0.408766       -11.1231 
   9   2.0000      -0.399855       -10.8806 
  10   2.0000      -0.326086        -8.8732 
  11   2.0000      -0.288524        -7.8512 
  12   0.0000       0.059224         1.6116 
  13   0.0000       0.071583         1.9479 
  14   0.0000       0.076458         2.0805 
  15   0.0000       0.095127         2.5885 
  16   0.0000       0.104541         2.8447 
  17   0.0000       0.147730         4.0199 
  18   0.0000       0.191818         5.2196 
  19   0.0000       0.201292         5.4774 
  20   0.0000       0.266492         7.2516 
  21   0.0000       0.273204         7.4343 
  22   0.0000       0.289976         7.8907 
  23   0.0000       0.327570         8.9136 
  24   0.0000       0.390106        10.6153 
  25   0.0000       0.399127        10.8608 
  26   0.0000       0.415742        11.3129 
  27   0.0000       0.419461        11.4141 
  28   0.0000       0.433614        11.7992 
  29   0.0000       0.464695        12.6450 
  30   0.0000       0.478226        13.0132 
  31   0.0000       0.508954        13.8493 
  32   0.0000       0.518073        14.0975 
  33   0.0000       0.704560        19.1720 
  34   0.0000       0.709552        19.3079 
  35   0.0000       0.719164        19.5694 
  36   0.0000       0.821217        22.3464 
  37   0.0000       0.840806        22.8795 
  38   0.0000       0.896564        24.3967 
  39   0.0000       0.928885        25.2762 
  40   0.0000       1.012216        27.5438 
  41   0.0000       1.029826        28.0230 
  42   0.0000       1.045672        28.4542 
  43   0.0000       1.080496        29.4018 
  44   0.0000       1.162806        31.6416 
  45   0.0000       1.361576        37.0504 
  46   0.0000       1.473501        40.0960 
  47   0.0000       1.498406        40.7737 
  48   0.0000       1.506068        40.9822 
  49   0.0000       1.516031        41.2533 
  50   0.0000       1.581646        43.0388 
  51   0.0000       1.636440        44.5298 
  52   0.0000       1.640599        44.6430 
  53   0.0000       1.673485        45.5378 
  54   0.0000       1.750140        47.6237 
  55   0.0000       1.826795        49.7096 
  56   0.0000       1.832572        49.8668 
  57   0.0000       1.890377        51.4398 
  58   0.0000       1.906954        51.8909 
  59   0.0000       1.960657        53.3522 
  60   0.0000       2.145655        58.3862 
  61   0.0000       2.156598        58.6840 
  62   0.0000       2.189901        59.5902 
  63   0.0000       2.197377        59.7937 
  64   0.0000       2.260336        61.5069 
  65   0.0000       2.389045        65.0092 
  66   0.0000       2.415516        65.7295 
  67   0.0000       2.437789        66.3356 
  68   0.0000       2.523571        68.6699 
  69   0.0000       2.562168        69.7201 
  70   0.0000       2.572485        70.0009 
  71   0.0000       2.683277        73.0157 
  72   0.0000       2.687382        73.1274 
  73   0.0000       2.698317        73.4249 
  74   0.0000       2.716740        73.9263 
  75   0.0000       2.790149        75.9238 
  76   0.0000       2.835491        77.1576 
  77   0.0000       2.955592        80.4258 
  78   0.0000       3.014776        82.0362 
  79   0.0000       3.021122        82.2089 
  80   0.0000       3.054632        83.1208 
  81   0.0000       3.080720        83.8306 
  82   0.0000       3.126245        85.0694 
  83   0.0000       3.231474        87.9329 
  84   0.0000       3.281222        89.2866 
  85   0.0000       3.303618        89.8960 
  86   0.0000       3.318863        90.3108 
  87   0.0000       3.391747        92.2941 
  88   0.0000       3.512836        95.5891 
  89   0.0000       3.577281        97.3428 
  90   0.0000       3.601800        98.0100 
  91   0.0000       3.693896       100.5160 
  92   0.0000       3.855865       104.9234 
  93   0.0000       3.969485       108.0152 
  94   0.0000       4.036695       109.8440 
  95   0.0000       4.054390       110.3256 
  96   0.0000       4.235237       115.2467 
  97   0.0000       4.254442       115.7692 
  98   0.0000       4.296729       116.9200 
  99   0.0000       4.586087       124.7938 
 100   0.0000       4.666577       126.9840 
 101   0.0000       4.814484       131.0088 
 102   0.0000       5.294347       144.0665 
 103   0.0000       5.445320       148.1747 
 104   0.0000       5.665177       154.1573 
 105   0.0000       5.740971       156.2198 
 106   0.0000       5.762081       156.7942 
 107   0.0000       5.873045       159.8137 
 108   0.0000       6.029601       164.0738 
 109   0.0000       6.607097       179.7883 
 110   0.0000       6.631495       180.4522 
 111   0.0000       6.786238       184.6629 
 112   0.0000       6.962239       189.4522 
 113   0.0000       7.181508       195.4188 
 114   0.0000      22.187347       603.7484 
 115   0.0000      22.283476       606.3642 
 116   0.0000      43.854218      1193.3339 

                    ********************************
                    * MULLIKEN POPULATION ANALYSIS *
                    ********************************

-----------------------
MULLIKEN ATOMIC CHARGES
-----------------------
   0 O :   -0.312773
   1 C :   -0.075008
   2 C :   -0.093688
   3 H :    0.113466
   4 H :    0.123161
   5 H :    0.118580
   6 H :    0.126262
Sum of atomic charges:    0.0000000

--------------------------------
MULLIKEN REDUCED ORBITAL CHARGES
--------------------------------
  0 O s       :     3.856909  s :     3.856909
      pz      :     1.844294  p :     4.411887
      px      :     1.308444
      py      :     1.259149
      dz2     :     0.005710  d :     0.041880
      dxz     :     0.002629
      dyz     :     0.006342
      dx2y2   :     0.011898
      dxy     :     0.015301
      f0      :     0.000243  f :     0.002098
      f+1     :     0.000200
      f-1     :     0.000458
      f+2     :     0.000075
      f-2     :     0.000197
      f+3     :     0.000361
      f-3     :     0.000564
  1 C s       :     3.238932  s :     3.238932
      pz      :     1.039950  p :     2.711793
      px      :     0.889288
      py      :     0.782555
      dz2     :     0.006738  d :     0.112767
      dxz     :     0.026801
      dyz     :     0.029822
      dx2y2   :     0.030095
      dxy     :     0.019310
      f0      :     0.001600  f :     0.011517
      f+1     :     0.001481
      f-1     :     0.000524
      f+2     :     0.001210
      f-2     :     0.001672
      f+3     :     0.002116
      f-3     :     0.002914
  2 C s       :     3.250713  s :     3.250713
      pz      :     1.032479  p :     2.727008
      px      :     0.909024
      py      :     0.785505
      dz2     :     0.007231  d :     0.105080
      dxz     :     0.023885
      dyz     :     0.027937
      dx2y2   :     0.026799
      dxy     :     0.019228
      f0      :     0.001422  f :     0.010887
      f+1     :     0.001386
      f-1     :     0.000595
      f+2     :     0.001124
      f-2     :     0.001524
      f+3     :     0.002142
      f-3     :     0.002694
  3 H s       :     0.866298  s :     0.866298
      pz      :     0.011004  p :     0.020236
      px      :     0.005735
      py      :     0.003497
  4 H s       :     0.855796  s :     0.855796
      pz      :     0.010809  p :     0.021043
      px      :     0.006428
      py      :     0.003806
  5 H s       :     0.861713  s :     0.861713
      pz      :     0.010440  p :     0.019706
      px      :     0.005537
      py      :     0.003729
  6 H s       :     0.852249  s :     0.852249
      pz      :     0.011391  p :     0.021490
      px      :     0.006312
      py      :     0.003788


                     *******************************
                     * LOEWDIN POPULATION ANALYSIS *
                     *******************************

----------------------
LOEWDIN ATOMIC CHARGES
----------------------
   0 O :    0.100526
   1 C :   -0.308636
   2 C :   -0.277179
   3 H :    0.122474
   4 H :    0.116790
   5 H :    0.128553
   6 H :    0.117473

-------------------------------
LOEWDIN REDUCED ORBITAL CHARGES
-------------------------------
  0 O s       :     3.398430  s :     3.398430
      pz      :     1.732992  p :     4.403500
      px      :     1.300616
      py      :     1.369892
      dz2     :     0.011556  d :     0.091203
      dxz     :     0.007868
      dyz     :     0.014154
      dx2y2   :     0.031546
      dxy     :     0.026079
      f0      :     0.000597  f :     0.006342
      f+1     :     0.000262
      f-1     :     0.000864
      f+2     :     0.000150
      f-2     :     0.000923
      f+3     :     0.001180
      f-3     :     0.002367
  1 C s       :     2.847652  s :     2.847652
      pz      :     1.052352  p :     2.916886
      px      :     1.015360
      py      :     0.849175
      dz2     :     0.055781  d :     0.472051
      dxz     :     0.130119
      dyz     :     0.080286
      dx2y2   :     0.108773
      dxy     :     0.097093
      f0      :     0.010198  f :     0.072046
      f+1     :     0.005802
      f-1     :     0.005535
      f+2     :     0.007710
      f-2     :     0.007443
      f+3     :     0.015592
      f-3     :     0.019766
  2 C s       :     2.855570  s :     2.855570
      pz      :     1.053726  p :     2.920781
      px      :     1.028906
      py      :     0.838150
      dz2     :     0.053422  d :     0.436480
      dxz     :     0.117327
      dyz     :     0.077772
      dx2y2   :     0.097924
      dxy     :     0.090035
      f0      :     0.008888  f :     0.064348
      f+1     :     0.005234
      f-1     :     0.005281
      f+2     :     0.006865
      f-2     :     0.006075
      f+3     :     0.014301
      f-3     :     0.017705
  3 H s       :     0.820906  s :     0.820906
      pz      :     0.031638  p :     0.056620
      px      :     0.014996
      py      :     0.009986
  4 H s       :     0.822196  s :     0.822196
      pz      :     0.032342  p :     0.061014
      px      :     0.017378
      py      :     0.011293
  5 H s       :     0.816937  s :     0.816937
      pz      :     0.029844  p :     0.054511
      px      :     0.014270
      py      :     0.010397
  6 H s       :     0.819981  s :     0.819981
      pz      :     0.034065  p :     0.062546
      px      :     0.017136
      py      :     0.011344


                      *****************************
                      * MAYER POPULATION ANALYSIS *
                      *****************************

  NA   - Mulliken gross atomic population
  ZA   - Total nuclear charge
  QA   - Mulliken gross atomic charge
  VA   - Mayer's total valence
  BVA  - Mayer's bonded valence
  FA   - Mayer's free valence

  ATOM       NA         ZA         QA         VA         BVA        FA
  0 O      8.3128     8.0000    -0.3128     1.9888     1.9888     0.0000
  1 C      6.0750     6.0000    -0.0750     3.9737     3.9737    -0.0000
  2 C      6.0937     6.0000    -0.0937     3.9660     3.9660     0.0000
  3 H      0.8865     1.0000     0.1135     0.9624     0.9624     0.0000
  4 H      0.8768     1.0000     0.1232     0.9604     0.9604     0.0000
  5 H      0.8814     1.0000     0.1186     0.9609     0.9609     0.0000
  6 H      0.8737     1.0000     0.1263     0.9601     0.9601     0.0000

  Mayer bond orders larger than 0.100000
B(  0-O ,  1-C ) :   0.9856 B(  0-O ,  2-C ) :   0.9860 B(  1-C ,  2-C ) :   1.0686 
B(  1-C ,  3-H ) :   0.9523 B(  1-C ,  4-H ) :   0.9499 B(  2-C ,  5-H ) :   0.9455 
B(  2-C ,  6-H ) :   0.9492 

-------
TIMINGS
-------

Total SCF time: 0 days 0 hours 0 min 1 sec 

Total time                  ....       1.207 sec
Sum of individual times     ....       1.076 sec  ( 89.1%)

Fock matrix formation       ....       0.846 sec  ( 70.1%)
  Split-RI-J                ....       0.246 sec  ( 29.0% of F)
  Chain of spheres X        ....       0.512 sec  ( 60.5% of F)
  XC integration            ....       0.064 sec  (  7.6% of F)
    Basis function eval.    ....       0.017 sec  ( 26.3% of XC)
    Density eval.           ....       0.013 sec  ( 20.4% of XC)
    XC-Functional eval.     ....       0.006 sec  (  9.2% of XC)
    XC-Potential eval.      ....       0.020 sec  ( 30.9% of XC)
Diagonalization             ....       0.002 sec  (  0.2%)
Density matrix formation    ....       0.000 sec  (  0.0%)
Population analysis         ....       0.003 sec  (  0.2%)
Initial guess               ....       0.009 sec  (  0.7%)
Orbital Transformation      ....       0.000 sec  (  0.0%)
Orbital Orthonormalization  ....       0.001 sec  (  0.1%)
DIIS solution               ....       0.001 sec  (  0.1%)
SOSCF solution              ....       0.002 sec  (  0.2%)
Grid generation             ....       0.213 sec  ( 17.6%)

Maximum memory used throughout the entire SCF-calculation: 61.1 MB


           ************************************************************
           *        Program running with 8 parallel MPI-processes     *
           *              working on a common directory               *
           ************************************************************
------------------------------------------------------------------------------
                        ORCA TD-DFT/TDA CALCULATION
------------------------------------------------------------------------------

Input orbitals are from        ... ox_es1_A_orca0001.gbw
CI-vector output               ... ox_es1_A_orca0001.cis
Tamm-Dancoff approximation     ... operative
CIS-Integral strategy          ... AO-integrals
Integral handling              ... AO integral Direct
Max. core memory used          ... 3000 MB
Reference state                ... RHF
Generation of triplets         ... off
Follow IRoot                   ... off
Number of operators            ... 1
Orbital ranges used for CIS calculation:
 Operator 0:  Orbitals   3... 11  to  12...116
XAS localization array:
 Operator 0:  Orbitals  -1... -1

-------------------
XC-INTEGRATION GRID
-------------------

General Integration Accuracy     IntAcc      ... 3.467
Radial Grid Type                 RadialGrid  ... OptM3 with GC (2021)
Angular Grid (max. ang.)         AngularGrid ... 1 (Lebedev-50)
Angular grid pruning method      GridPruning ... 4 (adaptive)
Weight generation scheme         WeightScheme... Becke
Basis function cutoff            BFCut       ... 1.0000e-11
Integration weight cutoff        WCut        ... 1.0000e-14
Angular grids for H and He will be reduced by one unit
Partially contracted basis set               ... off
Rotationally invariant grid construction     ... off

Total number of grid points                  ...     4538
Total number of batches                      ...       75
Average number of points per batch           ...       60
Average number of grid points per atom       ...      648

---------------------
COSX-INTEGRATION GRID
---------------------

General Integration Accuracy     IntAcc      ... 3.067
Radial Grid Type                 RadialGrid  ... OptM3 with GC (2021)
Angular Grid (max. ang.)         AngularGrid ... 1 (Lebedev-50)
Angular grid pruning method      GridPruning ... 4 (adaptive)
Weight generation scheme         WeightScheme... Becke
Basis function cutoff            BFCut       ... 1.0000e-11
Integration weight cutoff        WCut        ... 1.0000e-14
Angular grids for H and He will be reduced by one unit
Partially contracted basis set               ... on
Rotationally invariant grid construction     ... off

Total number of grid points                  ...     2085
Total number of batches                      ...       38
Average number of points per batch           ...       54
Average number of grid points per atom       ...      298

---------------
TD-DFT XC SETUP
---------------

DFT calculation                         ... on
Name of the grid file                   ... ox_es1_A_orca0001.grid_cis.tmp
Exchange functional (TD-DFT)            ... PBE
   PBE kappa parameter  XKappa (TD-DFT) ...  0.804000
   PBE mue parameter   XMuePBE (TD-DFT) ...  0.219520
Correlation functional (TD-DFT)         ... PBE
   PBE beta parameter CBetaPBE (TD-DFT) ...  0.066725
 LDA part of GGA corr.  LDAOpt (TD-DFT) ... PW91-LDA
Hybrid DFT                              ... on
   Exchange mixing (TD-DFT)             ...  0.250
   GGA exch. scaling (TD-DFT)           ...  0.750
   GGA corr. scaling (TD-DFT)           ...  1.000

Building densities             ... done
Calculating rho(r) on the grid ... done
Building xc-kernel on the grid ... done
                    *** TD-DFT CALCULATION INITIALIZED ***

------------------------
DAVIDSON-DIAGONALIZATION
------------------------

Dimension of the eigenvalue problem            ...    945
Number of roots to be determined               ...      1
Maximum size of the expansion space            ...     10
Maximum number of iterations                   ...    100
Convergence tolerance for the residual         ...    2.500e-07
Convergence tolerance for the energies         ...    2.500e-07
Orthogonality tolerance                        ...    1.000e-14
Level Shift                                    ...    0.000e+00
Constructing the preconditioner                ... o.k.
Building the initial guess                     ... o.k.
Number of trial vectors determined             ...     10


                       ****Iteration    0****

   Memory handling for direct AO based CIS:
   Memory per vector needed      ...     1 MB
   Memory needed                 ...     1 MB
   Memory available              ...  3000 MB
   Number of vectors per batch   ...  3000
   Number of batches             ...     1
   Time for densities:            0.001
   Time for RI-J (Direct):        0.058
   Time for K (COSX):             0.070
   Time for XC-Integration:       0.015
   Time for Sigma-Completion:     0.000
   Size of expansion space: 3
   Lowest Energy          :     0.294678495235
   Maximum Energy change  :     0.294678495235 (vector 0)
   Maximum residual norm  :     0.003134522795

                       ****Iteration    1****
   Time for densities:            0.000
   Time for RI-J (Direct):        0.052
   Time for K (COSX):             0.048
   Time for XC-Integration:       0.006
   Time for Sigma-Completion:     0.000
   Size of expansion space: 4
   Lowest Energy          :     0.290818411714
   Maximum Energy change  :     0.003860083521 (vector 0)
   Maximum residual norm  :     0.000757772576

                       ****Iteration    2****
   Time for densities:            0.000
   Time for RI-J (Direct):        0.012
   Time for K (COSX):             0.048
   Time for XC-Integration:       0.006
   Time for Sigma-Completion:     0.000
   Size of expansion space: 5
   Lowest Energy          :     0.289780885252
   Maximum Energy change  :     0.001037526462 (vector 0)
   Maximum residual norm  :     0.000439045960

                       ****Iteration    3****
   Time for densities:            0.000
   Time for RI-J (Direct):        0.012
   Time for K (COSX):             0.048
   Time for XC-Integration:       0.006
   Time for Sigma-Completion:     0.000
   Size of expansion space: 6
   Lowest Energy          :     0.289204254676
   Maximum Energy change  :     0.000576630576 (vector 0)
   Maximum residual norm  :     0.000078069818

                       ****Iteration    4****
   Time for densities:            0.000
   Time for RI-J (Direct):        0.012
   Time for K (COSX):             0.048
   Time for XC-Integration:       0.006
   Time for Sigma-Completion:     0.000
   Size of expansion space: 7
   Lowest Energy          :     0.289033989099
   Maximum Energy change  :     0.000170265577 (vector 0)
   Maximum residual norm  :     0.000024125312

                       ****Iteration    5****
   Time for densities:            0.000
   Time for RI-J (Direct):        0.012
   Time for K (COSX):             0.048
   Time for XC-Integration:       0.006
   Time for Sigma-Completion:     0.000
   Size of expansion space: 8
   Lowest Energy          :     0.289006177857
   Maximum Energy change  :     0.000027811242 (vector 0)
   Maximum residual norm  :     0.000002750880

                       ****Iteration    6****
   Time for densities:            0.000
   Time for RI-J (Direct):        0.012
   Time for K (COSX):             0.048
   Time for XC-Integration:       0.006
   Time for Sigma-Completion:     0.000
   Size of expansion space: 9
   Lowest Energy          :     0.289001797601
   Maximum Energy change  :     0.000004380256 (vector 0)
   Maximum residual norm  :     0.000000542674

                       ****Iteration    7****
   Time for densities:            0.000
   Time for RI-J (Direct):        0.012
   Time for K (COSX):             0.048
   Time for XC-Integration:       0.006
   Time for Sigma-Completion:     0.000
   Size of expansion space: 10
   Lowest Energy          :     0.289001135413
   Maximum Energy change  :     0.000000662188 (vector 0)
   Maximum residual norm  :     0.000000061665

      *** CONVERGENCE OF RESIDUAL NORM REACHED ***

Storing the converged CI vectors               ... ox_es1_A_orca0001.cis1

                 *** DAVIDSON DONE ***

Total time for solving the CIS problem:     0.663sec

------------------------------------
TD-DFT/TDA EXCITED STATES (SINGLETS)
------------------------------------

the weight of the individual excitations are printed if larger than 1.0e-02

STATE  1:  E=   0.289001 au      7.864 eV    63428.4 cm**-1 <S**2> =   0.000000
    11a ->  12a  :     0.076867 (c= -0.27724972)
    11a ->  13a  :     0.697668 (c=  0.83526504)
    11a ->  14a  :     0.132240 (c=  0.36364786)
    11a ->  16a  :     0.082241 (c= -0.28677771)


-----------------------------
TD-DFT/TDA-EXCITATION SPECTRA
-----------------------------

Center of mass = ( -0.0148, -0.0570, -0.0912)
Calculating the Dipole integrals                  ... done
Transforming integrals                            ... done
Calculating the Linear Momentum integrals         ... done
Transforming integrals                            ... done
Calculating angular momentum integrals            ... done
Transforming integrals                            ... done

-----------------------------------------------------------------------------
         ABSORPTION SPECTRUM VIA TRANSITION ELECTRIC DIPOLE MOMENTS
-----------------------------------------------------------------------------
State   Energy    Wavelength  fosc         T2        TX        TY        TZ  
        (cm-1)      (nm)                 (au**2)    (au)      (au)      (au) 
-----------------------------------------------------------------------------
   1   63428.4    157.7   0.006488716   0.03368   0.00271  -0.02483  -0.18181

-----------------------------------------------------------------------------
         ABSORPTION SPECTRUM VIA TRANSITION VELOCITY DIPOLE MOMENTS
-----------------------------------------------------------------------------
State   Energy    Wavelength   fosc        P2         PX        PY        PZ  
        (cm-1)      (nm)                 (au**2)     (au)      (au)      (au) 
-----------------------------------------------------------------------------
   1   63428.4    157.7   0.013968880   0.00606  -0.00255   0.00216   0.07775

-------------------------------------------------------------------
                             CD SPECTRUM
-------------------------------------------------------------------
State  Energy     Wavelength     R         MX        MY        MZ   
       (cm-1)       (nm)     (1e40*cgs)   (au)      (au)      (au)  
-------------------------------------------------------------------
   1   63428.4    157.7     -0.98066  -0.12594   0.19179  -0.01663

-------------------------------------------------------------------
         CD SPECTRUM VIA TRANSITION VELOCITY DIPOLE MOMENTS        
-------------------------------------------------------------------
State  Energy     Wavelength     R         MX        MY        MZ   
       (cm-1)       (nm)     (1e40*cgs)   (au)      (au)      (au)  
-------------------------------------------------------------------
   1   63428.4    157.7     -0.91040  -0.12594   0.19179  -0.01663

Total run time:        1.081 sec

           *** ORCA-CIS/TD-DFT FINISHED WITHOUT ERROR ***

Maximum memory used throughout the entire CIS-calculation: 49.4 MB

-----------------------
CIS/TD-DFT TOTAL ENERGY
-----------------------

    E(SCF)  =   -153.668258562 Eh
    DE(CIS) =      0.289001135 Eh (Root  1)
    ----------------------------- ---------
    E(tot)  =   -153.379257427 Eh



-------------------------------------------------------------------------------
                          DFT DISPERSION CORRECTION                            
                                                                               
                              DFTD3 V3.1  Rev 1                                
                          USING Becke-Johnson damping                          
-------------------------------------------------------------------------------
The PBE0 functional is recognized
Active option DFTDOPT                   ...         4   

molecular C6(AA) [au] = 351.081362 


            DFT-D V3
 parameters
 s6 scaling factor         :     1.0000 
 a1 scaling factor         :     0.4145 
 s8 scaling factor         :     1.2177 
 a2 scaling factor         :     4.8593 
 ad hoc parameters k1-k3   :    16.0000     1.3333    -4.0000 

 Edisp/kcal,au: -1.502804580290  -0.002394871284 
 E6   /kcal   :  -0.984716001 
 E8   /kcal   :  -0.518088580 
 % E8         :  34.474780444 

-------------------------   ----------------
Dispersion correction           -0.002394871
-------------------------   ----------------


-------------------------   --------------------
FINAL SINGLE POINT ENERGY      -153.381652298273
-------------------------   --------------------



           ************************************************************
           *        Program running with 8 parallel MPI-processes     *
           *              working on a common directory               *
           ************************************************************
------------------------------------------------------------------------------
                         ORCA SCF GRADIENT CALCULATION
------------------------------------------------------------------------------


------------------------
TD-DFT GRADIENT XC SETUP
------------------------

Building densities                     ... done
Calculating rho(r) on the grid         ... done
Building xc-kernel on the grid         ... done
Building xc 3rd derivative on the grid      ... done
                *** TD-DFT GRADIENT CALCULATION INITIALIZED ***

-------------------
TD-DFT/TDA GRADIENT
-------------------

Reference wavefunction             ... RHF
State of interest                  ... 1
Basis dimension                    ... 117
DFT-XC contribution needed         ... YES
RI-approximation                   ... ON
CIS-vectors being read from        ... ox_es1_A_orca0001.cis

 => Number of Vectors found: 1
 => Orbital Window: 3...11 -> 12...116

Reading the CIS file                     ... done
Norm of the CI vector                    ... 1.000000000
Making the CIS (pseudo)densities         ... done
Making operators G(D) and Q(T)           ... done
Transforming the Fock operators          ... done
Making the frozen-core relaxed density   ... done
Constructing the G(H) operator           ... done
Transforming the G(H) operator           ... done
Calculating the CIS Lagrangian           ... done
Solving the Z-vector equations           ... done
Finalizing the relaxed density           ... done
Storing the relaxed density              ... done
Constructing the G(Z) operator           ... done
Transforming the G(Z) operator           ... done
Making the W-matrix                      ... done
Finalizing the W-matrix                  ... done
Transforming the W-matrix                ... done
Nuclear repulsion gradient               ... done
One-Electron gradient                    ... done
Dispersion correction                    ... done
Prescreening matrices                    ... done
COSX-gradient                            ... done
Coulomb gradient (RI)                    ... done
Exchange-Correlation gradient            ... done

                 ---------------------------
                 EXCITED STATE GRADIENT DONE
                 ---------------------------

------------------
CARTESIAN GRADIENT
------------------

   1   O   :    0.064501397   -0.088636625    0.002340412
   2   C   :    0.013223123    0.001590570   -0.018038788
   3   C   :   -0.089446563    0.119365174    0.024997570
   4   H   :   -0.000166201   -0.006578799    0.020745385
   5   H   :    0.003780253   -0.005092583   -0.005344240
   6   H   :    0.009674508   -0.013104029   -0.032919335
   7   H   :   -0.001614524   -0.007518353    0.008213962

Difference to translation invariance:
           :   -0.0000480074    0.0000253556   -0.0000050345

Difference to rotation invariance:
           :   -0.0001603932    0.0000651518    0.0002618342

Norm of the cartesian gradient     ...    0.1934342508
RMS gradient                       ...    0.0422108141
MAX gradient                       ...    0.1193651742

------------------------------------------------------------------------------
                  RELAXED CIS/TDA DENSITY POPULATION ANALYSIS
                                   IROOT 1
------------------------------------------------------------------------------
------------------------------------------------------------------------------
                           ORCA POPULATION ANALYSIS
------------------------------------------------------------------------------
Input electron density              ... ox_es1_A_orca0001.cisp
BaseName (.gbw .S,...)              ... ox_es1_A_orca0001

                    ********************************
                    * MULLIKEN POPULATION ANALYSIS *
                    ********************************

-----------------------
MULLIKEN ATOMIC CHARGES
-----------------------
   0 O :    0.119772
   1 C :   -0.070159
   2 C :   -0.678519
   3 H :    0.128771
   4 H :    0.124663
   5 H :    0.188569
   6 H :    0.186903
Sum of atomic charges:    0.0000000

--------------------------------
MULLIKEN REDUCED ORBITAL CHARGES
--------------------------------
  0 O s       :     3.792628  s :     3.792628
      pz      :     1.111396  p :     4.046326
      px      :     1.522252
      py      :     1.412679
      dz2     :     0.004259  d :     0.039756
      dxz     :     0.003089
      dyz     :     0.006912
      dx2y2   :     0.011905
      dxy     :     0.013590
      f0      :     0.000099  f :     0.001518
      f+1     :    -0.000028
      f-1     :     0.000194
      f+2     :     0.000090
      f-2     :     0.000219
      f+3     :     0.000357
      f-3     :     0.000588
  1 C s       :     3.175658  s :     3.175658
      pz      :     1.033510  p :     2.801401
      px      :     1.048873
      py      :     0.719018
      dz2     :     0.005265  d :     0.082883
      dxz     :     0.020544
      dyz     :     0.009469
      dx2y2   :     0.029963
      dxy     :     0.017643
      f0      :     0.000954  f :     0.010217
      f+1     :     0.001651
      f-1     :     0.000443
      f+2     :     0.000769
      f-2     :     0.001099
      f+3     :     0.002621
      f-3     :     0.002680
  2 C s       :     3.292257  s :     3.292257
      pz      :     1.067791  p :     3.292784
      px      :     0.904343
      py      :     1.320651
      dz2     :     0.010267  d :     0.083656
      dxz     :     0.012262
      dyz     :     0.005004
      dx2y2   :     0.031025
      dxy     :     0.025097
      f0      :     0.000963  f :     0.009822
      f+1     :     0.001314
      f-1     :     0.000790
      f+2     :     0.000799
      f-2     :     0.001087
      f+3     :     0.002591
      f-3     :     0.002278
  3 H s       :     0.849048  s :     0.849048
      pz      :     0.011200  p :     0.022181
      px      :     0.007467
      py      :     0.003513
  4 H s       :     0.851664  s :     0.851664
      pz      :     0.010996  p :     0.023673
      px      :     0.008741
      py      :     0.003937
  5 H s       :     0.786936  s :     0.786936
      pz      :     0.009625  p :     0.024495
      px      :     0.005948
      py      :     0.008922
  6 H s       :     0.786159  s :     0.786159
      pz      :     0.010469  p :     0.026938
      px      :     0.007132
      py      :     0.009338


                     *******************************
                     * LOEWDIN POPULATION ANALYSIS *
                     *******************************

----------------------
LOEWDIN ATOMIC CHARGES
----------------------
   0 O :    0.398851
   1 C :   -0.318643
   2 C :   -0.639477
   3 H :    0.142319
   4 H :    0.127271
   5 H :    0.154067
   6 H :    0.135611

-------------------------------
LOEWDIN REDUCED ORBITAL CHARGES
-------------------------------
  0 O s       :     3.434695  s :     3.434695
      pz      :     1.056495  p :     4.056689
      px      :     1.515627
      py      :     1.484567
      dz2     :     0.011990  d :     0.103680
      dxz     :     0.009105
      dyz     :     0.014382
      dx2y2   :     0.034907
      dxy     :     0.033297
      f0      :     0.000618  f :     0.006084
      f+1     :     0.000136
      f-1     :     0.000656
      f+2     :     0.000148
      f-2     :     0.001007
      f+3     :     0.001076
      f-3     :     0.002444
  1 C s       :     2.862709  s :     2.862709
      pz      :     1.028586  p :     2.954884
      px      :     1.082312
      py      :     0.843986
      dz2     :     0.058700  d :     0.432575
      dxz     :     0.114041
      dyz     :     0.034832
      dx2y2   :     0.127741
      dxy     :     0.097260
      f0      :     0.007435  f :     0.068475
      f+1     :     0.007096
      f-1     :     0.005900
      f+2     :     0.005259
      f-2     :     0.004930
      f+3     :     0.017723
      f-3     :     0.020132
  2 C s       :     2.848566  s :     2.848566
      pz      :     1.045179  p :     3.187794
      px      :     1.017018
      py      :     1.125597
      dz2     :     0.061357  d :     0.531225
      dxz     :     0.094587
      dyz     :     0.029877
      dx2y2   :     0.186772
      dxy     :     0.158632
      f0      :     0.006681  f :     0.071892
      f+1     :     0.005177
      f-1     :     0.008169
      f+2     :     0.004537
      f-2     :     0.004437
      f+3     :     0.025281
      f-3     :     0.017611
  3 H s       :     0.795926  s :     0.795926
      pz      :     0.031911  p :     0.061754
      px      :     0.019455
      py      :     0.010388
  4 H s       :     0.804449  s :     0.804449
      pz      :     0.032855  p :     0.068279
      px      :     0.023511
      py      :     0.011914
  5 H s       :     0.779825  s :     0.779825
      pz      :     0.027912  p :     0.066108
      px      :     0.014765
      py      :     0.023431
  6 H s       :     0.788815  s :     0.788815
      pz      :     0.032075  p :     0.075574
      px      :     0.018760
      py      :     0.024739


                      *****************************
                      * MAYER POPULATION ANALYSIS *
                      *****************************

  NA   - Mulliken gross atomic population
  ZA   - Total nuclear charge
  QA   - Mulliken gross atomic charge
  VA   - Mayer's total valence
  BVA  - Mayer's bonded valence
  FA   - Mayer's free valence

  ATOM       NA         ZA         QA         VA         BVA        FA
  0 O      7.8802     8.0000     0.1198     1.9432     1.2361     0.7071
  1 C      6.0702     6.0000    -0.0702     3.3791     3.2627     0.1164
  2 C      6.6785     6.0000    -0.6785     3.8938     3.0188     0.8750
  3 H      0.8712     1.0000     0.1288     1.0133     0.9515     0.0618
  4 H      0.8753     1.0000     0.1247     1.0239     0.9557     0.0682
  5 H      0.8114     1.0000     0.1886     0.9697     0.9412     0.0285
  6 H      0.8131     1.0000     0.1869     0.9770     0.9485     0.0285

  Mayer bond orders larger than 0.100000
B(  0-O ,  1-C ) :   0.8231 B(  0-O ,  2-C ) :   0.3943 B(  1-C ,  2-C ) :   0.6649 
B(  1-C ,  3-H ) :   0.8955 B(  1-C ,  4-H ) :   0.8891 B(  2-C ,  5-H ) :   0.9378 
B(  2-C ,  6-H ) :   0.9437 


-------
TIMINGS
-------

Total TD-DFT gradient time         ...        5.236 sec

Fock matrix formation       ....       0.869 sec  ( 16.6%)
  Coulomb formation         ....       0.716 sec  ( 82.3% of F)
  RI-J                      ....       0.322 sec  ( 37.1% of F)
  Chain of spheres X        ....       0.393 sec  ( 45.2% of F)
  XC integration            ....       0.154 sec  ( 17.7% of F)
Z-vector equation           ....       1.395 sec  ( 26.6%)
One electron gradient       ....       0.033 sec  (  0.6%)
Prescreening matrices       ....       0.157 sec  (  3.0%)
RI-J Coulomb gradient       ....       0.266 sec  (  5.1%)
COSX gradient               ....       0.351 sec  (  6.7%)
XC gradient                 ....       1.647 sec  ( 31.5%)

Maximum memory used throughout the entire SCFGRAD-calculation: 130.3 MB

                            ***************************************
                            *     ORCA property calculations      *
                            ***************************************

                                    ---------------------
                                    Active property flags
                                    ---------------------
   (+) Dipole Moment


------------------------------------------------------------------------------
                       ORCA ELECTRIC PROPERTIES CALCULATION
------------------------------------------------------------------------------

Dipole Moment Calculation                       ... on
Quadrupole Moment Calculation                   ... off
Polarizability Calculation                      ... off
GBWName                                         ... ox_es1_A_orca0001.gbw
Electron density                                ... ox_es1_A_orca0001.scfp
The origin for moment calculation is the CENTER OF MASS  = (-0.014804, -0.057035 -0.091226)

-------------
DIPOLE MOMENT
-------------
                                X             Y             Z
Electronic contribution:      0.02957       1.59495      -0.04651
Nuclear contribution   :     -0.02946      -2.31454       0.06865
                        -----------------------------------------
Total Dipole Moment    :      0.00011      -0.71958       0.02214
                        -----------------------------------------
Magnitude (a.u.)       :      0.71992
Magnitude (Debye)      :      1.82990



--------------------
Rotational spectrum 
--------------------
 
Rotational constants in cm-1:     0.849938     0.700248     0.461149 
Rotational constants in MHz : 25480.499527 20992.910095 13824.889959 

 Dipole components along the rotational axes: 
x,y,z [a.u.] :    -0.111131    -0.711267     0.006098 
x,y,z [Debye]:    -0.282473    -1.807897     0.015500 

 

                        *** CIS RELAXED DENSITY ***

------------------------------------------------------------------------------
                       ORCA ELECTRIC PROPERTIES CALCULATION
------------------------------------------------------------------------------

Dipole Moment Calculation                       ... on
Quadrupole Moment Calculation                   ... off
Polarizability Calculation                      ... off
GBWName                                         ... ox_es1_A_orca0001.gbw
Electron density                                ... ox_es1_A_orca0001.cisp
The origin for moment calculation is the CENTER OF MASS  = (-0.014804, -0.057035 -0.091226)

-------------
DIPOLE MOMENT
-------------
                                X             Y             Z
Electronic contribution:     -0.56920       2.28458      -0.07852
Nuclear contribution   :     -0.02946      -2.31454       0.06865
                        -----------------------------------------
Total Dipole Moment    :     -0.59867      -0.02996      -0.00987
                        -----------------------------------------
Magnitude (a.u.)       :      0.59950
Magnitude (Debye)      :      1.52380



--------------------
Rotational spectrum 
--------------------
 
Rotational constants in cm-1:     0.849938     0.700248     0.461149 
Rotational constants in MHz : 25480.499527 20992.910095 13824.889959 

 Dipole components along the rotational axes: 
x,y,z [a.u.] :     0.587023    -0.121593     0.003944 
x,y,z [Debye]:     1.492094    -0.309066     0.010024 

 

Timings for individual modules:

Sum of individual times         ...        9.087 sec (=   0.151 min)
GTO integral calculation        ...        0.634 sec (=   0.011 min)   7.0 %
SCF iterations                  ...        1.560 sec (=   0.026 min)  17.2 %
CIS module                      ...        1.345 sec (=   0.022 min)  14.8 %
SCF Gradient evaluation         ...        5.548 sec (=   0.092 min)  61.1 %
                             ****ORCA TERMINATED NORMALLY****
TOTAL RUN TIME: 0 days 0 hours 0 minutes 9 seconds 737 msec
