
                                 *****************
                                 * O   R   C   A *
                                 *****************

                                            #,                                       
                                            ###                                      
                                            ####                                     
                                            #####                                    
                                            ######                                   
                                           ########,                                 
                                     ,,################,,,,,                         
                               ,,#################################,,                 
                          ,,##########################################,,             
                       ,#########################################, ''#####,          
                    ,#############################################,,   '####,        
                  ,##################################################,,,,####,       
                ,###########''''           ''''###############################       
              ,#####''   ,,,,##########,,,,          '''####'''          '####       
            ,##' ,,,,###########################,,,                        '##       
           ' ,,###''''                  '''############,,,                           
         ,,##''                                '''############,,,,        ,,,,,,###''
      ,#''                                            '''#######################'''  
     '                                                          ''''####''''         
             ,#######,   #######,   ,#######,      ##                                
            ,#'     '#,  ##    ##  ,#'     '#,    #''#        ######   ,####,        
            ##       ##  ##   ,#'  ##            #'  '#       #        #'  '#        
            ##       ##  #######   ##           ,######,      #####,   #    #        
            '#,     ,#'  ##    ##  '#,     ,#' ,#      #,         ##   #,  ,#        
             '#######'   ##     ##  '#######'  #'      '#     #####' # '####'        



                  #######################################################
                  #                        -***-                        #
                  #          Department of theory and spectroscopy      #
                  #    Directorship and core code : Frank Neese         #
                  #        Max Planck Institute fuer Kohlenforschung    #
                  #                Kaiser Wilhelm Platz 1               #
                  #                 D-45470 Muelheim/Ruhr               #
                  #                      Germany                        #
                  #                                                     #
                  #                  All rights reserved                #
                  #                        -***-                        #
                  #######################################################


                         Program Version 5.0.2 -  RELEASE  -


 With contributions from (in alphabetic order):
   Daniel Aravena         : Magnetic Suceptibility
   Michael Atanasov       : Ab Initio Ligand Field Theory (pilot matlab implementation)
   Alexander A. Auer      : GIAO ZORA, VPT2 properties, NMR spectrum
   Ute Becker             : Parallelization
   Giovanni Bistoni       : ED, misc. LED, open-shell LED, HFLD
   Martin Brehm           : Molecular dynamics
   Dmytro Bykov           : SCF Hessian
   Vijay G. Chilkuri      : MRCI spin determinant printing, contributions to CSF-ICE
   Dipayan Datta          : RHF DLPNO-CCSD density
   Achintya Kumar Dutta   : EOM-CC, STEOM-CC
   Dmitry Ganyushin       : Spin-Orbit,Spin-Spin,Magnetic field MRCI
   Miquel Garcia          : C-PCM and meta-GGA Hessian, CC/C-PCM, Gaussian charge scheme
   Yang Guo               : DLPNO-NEVPT2, F12-NEVPT2, CIM, IAO-localization
   Andreas Hansen         : Spin unrestricted coupled pair/coupled cluster methods
   Benjamin Helmich-Paris : MC-RPA, TRAH-SCF, COSX integrals
   Lee Huntington         : MR-EOM, pCC
   Robert Izsak           : Overlap fitted RIJCOSX, COSX-SCS-MP3, EOM
   Marcus Kettner         : VPT2
   Christian Kollmar      : KDIIS, OOCD, Brueckner-CCSD(T), CCSD density, CASPT2, CASPT2-K
   Simone Kossmann        : Meta GGA functionals, TD-DFT gradient, OOMP2, MP2 Hessian
   Martin Krupicka        : Initial AUTO-CI
   Lucas Lang             : DCDCAS
   Marvin Lechner         : AUTO-CI (C++ implementation), FIC-MRCC
   Dagmar Lenk            : GEPOL surface, SMD
   Dimitrios Liakos       : Extrapolation schemes; Compound Job, initial MDCI parallelization
   Dimitrios Manganas     : Further ROCIS development; embedding schemes
   Dimitrios Pantazis     : SARC Basis sets
   Anastasios Papadopoulos: AUTO-CI, single reference methods and gradients
   Taras Petrenko         : DFT Hessian,TD-DFT gradient, ASA, ECA, R-Raman, ABS, FL, XAS/XES, NRVS
   Peter Pinski           : DLPNO-MP2, DLPNO-MP2 Gradient
   Christoph Reimann      : Effective Core Potentials
   Marius Retegan         : Local ZFS, SOC
   Christoph Riplinger    : Optimizer, TS searches, QM/MM, DLPNO-CCSD(T), (RO)-DLPNO pert. Triples
   Tobias Risthaus        : Range-separated hybrids, TD-DFT gradient, RPA, STAB
   Michael Roemelt        : Original ROCIS implementation
   Masaaki Saitow         : Open-shell DLPNO-CCSD energy and density
   Barbara Sandhoefer     : DKH picture change effects
   Avijit Sen             : IP-ROCIS
   Kantharuban Sivalingam : CASSCF convergence, NEVPT2, FIC-MRCI
   Bernardo de Souza      : ESD, SOC TD-DFT
   Georgi Stoychev        : AutoAux, RI-MP2 NMR, DLPNO-MP2 response
   Willem Van den Heuvel  : Paramagnetic NMR
   Boris Wezisla          : Elementary symmetry handling
   Frank Wennmohs         : Technical directorship


 We gratefully acknowledge several colleagues who have allowed us to
 interface, adapt or use parts of their codes:
   Stefan Grimme, W. Hujo, H. Kruse, P. Pracht,  : VdW corrections, initial TS optimization,
                  C. Bannwarth, S. Ehlert          DFT functionals, gCP, sTDA/sTD-DF
   Ed Valeev, F. Pavosevic, A. Kumar             : LibInt (2-el integral package), F12 methods
   Garnet Chan, S. Sharma, J. Yang, R. Olivares  : DMRG
   Ulf Ekstrom                                   : XCFun DFT Library
   Mihaly Kallay                                 : mrcc  (arbitrary order and MRCC methods)
   Jiri Pittner, Ondrej Demel                    : Mk-CCSD
   Frank Weinhold                                : gennbo (NPA and NBO analysis)
   Christopher J. Cramer and Donald G. Truhlar   : smd solvation model
   Lars Goerigk                                  : TD-DFT with DH, B97 family of functionals
   V. Asgeirsson, H. Jonsson                     : NEB implementation
   FAccTs GmbH                                   : IRC, NEB, NEB-TS, DLPNO-Multilevel, CI-OPT
                                                   MM, QMMM, 2- and 3-layer-ONIOM, Crystal-QMMM,
                                                   LR-CPCM, SF, NACMEs, symmetry and pop. for TD-DFT,
                                                   nearIR, NL-DFT gradient (VV10), updates on ESD,
                                                   ML-optimized integration grids
   S Lehtola, MJT Oliveira, MAL Marques          : LibXC Library
   Liviu Ungur et al                             : ANISO software


 Your calculation uses the libint2 library for the computation of 2-el integrals
 For citations please refer to: http://libint.valeyev.net

 Your ORCA version has been built with support for libXC version: 5.1.0
 For citations please refer to: https://tddft.org/programs/libxc/

 This ORCA versions uses:
   CBLAS   interface :  Fast vector & matrix operations
   LAPACKE interface :  Fast linear algebra routines
   SCALAPACK package :  Parallel linear algebra routines
   Shared memory     :  Shared parallel matrices
   BLAS/LAPACK       :  OpenBLAS 0.3.15  USE64BITINT DYNAMIC_ARCH NO_AFFINITY SkylakeX SINGLE_THREADED
        Core in use  :  SkylakeX
   Copyright (c) 2011-2014, The OpenBLAS Project


Your calculation utilizes the atom-pairwise dispersion correction
with the Becke-Johnson damping scheme (D3BJ)
Cite in your paper:
S.Grimme, S.Ehrlich, L.Goerigk, J Comput Chem, (2011), 32, 1456–1465 
S.Grimme, J.Antony, S.Ehrlich and H.Krieg, J.Chem.Phys., 132, (2010), 154104 
   

================================================================================

----- Orbital basis set information -----
Your calculation utilizes the basis: def2-TZVP
   F. Weigend and R. Ahlrichs, Phys. Chem. Chem. Phys. 7, 3297 (2005).

----- AuxJ basis set information -----
Your calculation utilizes the auxiliary basis: def2/J
   F. Weigend, Phys. Chem. Chem. Phys. 8, 1057 (2006).

================================================================================
                                        WARNINGS
                       Please study these warnings very carefully!
================================================================================

INFO   : Checking CIS options ...

WARNING: CIS/ROCIS methods need fully converged wavefunctions
  ===> : Setting SCFConvForced true
         You can overwrite this default with %scf ConvForced false 


INFO   : the flag for use of the SHARK integral package has been found!

================================================================================
                                       INPUT FILE
================================================================================
NAME = ox_es1_A_orca0044.inp
|  1> ! engrad PBE0 D3BJ def2-TZVP  
|  2> %pal nprocs 8 end
|  3> %maxcore 3000
|  4> 
|  5> %tddft
|  6>   nroots 1
|  7>   tda true
|  8>   Iroot 1
|  9>   end 
| 10> *xyz 0 1 
| 11> O   0.05975238144624213 0.6907649647608113 -0.027945982363579418
| 12> C   -0.710028996246774 -0.36874428853828295 -0.00328751305364939
| 13> C   0.7011295636653401 -0.3529626365279705 -0.0724006950208122
| 14> H   -1.373763227831004 -0.6462700874973334 0.8948735087823695
| 15> H   -1.3148844108565356 -0.6328530876350323 -0.9077861843114401
| 16> H   1.2356188884631636 -0.7322860799335448 -0.8763533535859928
| 17> H   1.296332928897933 -0.6732296031889692 1.0123080198023833
| 18> *
| 19> 
| 20>                          ****END OF INPUT****
================================================================================

                     *******************************
                     * Energy+Gradient Calculation *
                     *******************************

---------------------------------
CARTESIAN COORDINATES (ANGSTROEM)
---------------------------------
  O      0.059752    0.690765   -0.027946
  C     -0.710029   -0.368744   -0.003288
  C      0.701130   -0.352963   -0.072401
  H     -1.373763   -0.646270    0.894874
  H     -1.314884   -0.632853   -0.907786
  H      1.235619   -0.732286   -0.876353
  H      1.296333   -0.673230    1.012308

----------------------------
CARTESIAN COORDINATES (A.U.)
----------------------------
  NO LB      ZA    FRAG     MASS         X           Y           Z
   0 O     8.0000    0    15.999    0.112916    1.305357   -0.052810
   1 C     6.0000    0    12.011   -1.341760   -0.696826   -0.006212
   2 C     6.0000    0    12.011    1.324943   -0.667003   -0.136817
   3 H     1.0000    0     1.008   -2.596036   -1.221273    1.691066
   4 H     1.0000    0     1.008   -2.484771   -1.195919   -1.715467
   5 H     1.0000    0     1.008    2.334981   -1.383820   -1.656068
   6 H     1.0000    0     1.008    2.449714   -1.272220    1.912985

--------------------------------
INTERNAL COORDINATES (ANGSTROEM)
--------------------------------
 O      0   0   0     0.000000000000     0.00000000     0.00000000
 C      1   0   0     1.309859254797     0.00000000     0.00000000
 C      1   2   0     1.225849997773    67.63313399     0.00000000
 H      2   1   3     1.150763624907   123.27978771   115.55936853
 H      2   1   3     1.119697002162   119.54120420   252.63434375
 H      3   1   2     1.037258400908   127.52299552   110.21131381
 H      3   1   2     1.278057499462   115.22949265   254.95010271

---------------------------
INTERNAL COORDINATES (A.U.)
---------------------------
 O      0   0   0     0.000000000000     0.00000000     0.00000000
 C      1   0   0     2.475275265549     0.00000000     0.00000000
 C      1   2   0     2.316520777059    67.63313399     0.00000000
 H      2   1   3     2.174628095954   123.27978771   115.55936853
 H      2   1   3     2.115920687058   119.54120420   252.63434375
 H      3   1   2     1.960134307825   127.52299552   110.21131381
 H      3   1   2     2.415178657388   115.22949265   254.95010271

---------------------
BASIS SET INFORMATION
---------------------
There are 3 groups of distinct atoms

 Group   1 Type O   : 11s6p2d1f contracted to 5s3p2d1f pattern {62111/411/11/1}
 Group   2 Type C   : 11s6p2d1f contracted to 5s3p2d1f pattern {62111/411/11/1}
 Group   3 Type H   : 5s1p contracted to 3s1p pattern {311/1}

Atom   0O    basis set group =>   1
Atom   1C    basis set group =>   2
Atom   2C    basis set group =>   2
Atom   3H    basis set group =>   3
Atom   4H    basis set group =>   3
Atom   5H    basis set group =>   3
Atom   6H    basis set group =>   3
---------------------------------
AUXILIARY/J BASIS SET INFORMATION
---------------------------------
There are 3 groups of distinct atoms

 Group   1 Type O   : 12s5p4d2f1g contracted to 6s4p3d1f1g pattern {711111/2111/211/2/1}
 Group   2 Type C   : 12s5p4d2f1g contracted to 6s4p3d1f1g pattern {711111/2111/211/2/1}
 Group   3 Type H   : 5s2p1d contracted to 3s1p1d pattern {311/2/1}

Atom   0O    basis set group =>   1
Atom   1C    basis set group =>   2
Atom   2C    basis set group =>   2
Atom   3H    basis set group =>   3
Atom   4H    basis set group =>   3
Atom   5H    basis set group =>   3
Atom   6H    basis set group =>   3

Checking for AutoStart:
The File: ox_es1_A_orca0044.gbw exists
Trying to determine its content:
     ... Fine, the file contains calculation information
     ... Fine, the calculation information was read
     ... Fine, the file contains a basis set
     ... Fine, the basis set was read
     ... Fine, the file contains a geometry
     ... Fine, the geometry was read
     ... Fine, the file contains a set of orbitals
     ... Fine, the orbitals can be read
     => possible old guess file was deleted
     => GBW file was renamed to GES file
     => GES file is set as startup file
     => Guess is set to MORead
     ... now leaving AutoStart



           ************************************************************
           *        Program running with 8 parallel MPI-processes     *
           *              working on a common directory               *
           ************************************************************
------------------------------------------------------------------------------
                           ORCA GTO INTEGRAL CALCULATION
                           -- RI-GTO INTEGRALS CHOSEN --
------------------------------------------------------------------------------
------------------------------------------------------------------------------
                   ___                                                        
                  /   \      - P O W E R E D   B Y -                         
                 /     \                                                     
                 |  |  |   _    _      __       _____    __    __             
                 |  |  |  | |  | |    /  \     |  _  \  |  |  /  |          
                  \  \/   | |  | |   /    \    | | | |  |  | /  /          
                 / \  \   | |__| |  /  /\  \   | |_| |  |  |/  /          
                |  |  |   |  __  | /  /__\  \  |    /   |      \           
                |  |  |   | |  | | |   __   |  |    \   |  |\   \          
                \     /   | |  | | |  |  |  |  | |\  \  |  | \   \       
                 \___/    |_|  |_| |__|  |__|  |_| \__\ |__|  \__/        
                                                                              
                      - O R C A' S   B I G   F R I E N D -                    
                                      &                                       
                       - I N T E G R A L  F E E D E R -                       
                                                                              
 v1 FN, 2020, v2 2021                                                         
------------------------------------------------------------------------------


Reading SHARK input file ox_es1_A_orca0044.SHARKINP.tmp ... ok
----------------------
SHARK INTEGRAL PACKAGE
----------------------

Number of atoms                             ...      7
Number of basis functions                   ...    117
Number of shells                            ...     49
Maximum angular momentum                    ...      3
Integral batch strategy                     ... SHARK/LIBINT Hybrid
RI-J (if used) integral strategy            ... SPLIT-RIJ (Revised 2003 algorithm where possible)
Printlevel                                  ...      1
Contraction scheme used                     ... SEGMENTED contraction
Coulomb Range Separation                    ... NOT USED
Exchange Range Separation                   ... NOT USED
Finite Nucleus Model                        ... NOT USED
Auxiliary Coulomb fitting basis             ... AVAILABLE
   # of basis functions in Aux-J            ...    191
   # of shells in Aux-J                     ...     65
   Maximum angular momentum in Aux-J        ...      4
Auxiliary J/K fitting basis                 ... NOT available
Auxiliary Correlation fitting basis         ... NOT available
Auxiliary 'external' fitting basis          ... NOT available
Integral threshold                          ...     2.500000e-11
Primitive cut-off                           ...     2.500000e-12
Primitive pair pre-selection threshold      ...     2.500000e-12

Calculating pre-screening integrals         ... done (  0.0 sec) Dimension = 49
Organizing shell pair data                  ... done (  0.0 sec)
Shell pair information
Total number of shell pairs                 ...      1225
Shell pairs after pre-screening             ...      1222
Total number of primitive shell pairs       ...      3648
Primitive shell pairs kept                  ...      3167
          la=0 lb=0:    375 shell pairs
          la=1 lb=0:    351 shell pairs
          la=1 lb=1:     91 shell pairs
          la=2 lb=0:    162 shell pairs
          la=2 lb=1:     78 shell pairs
          la=2 lb=2:     21 shell pairs
          la=3 lb=0:     81 shell pairs
          la=3 lb=1:     39 shell pairs
          la=3 lb=2:     18 shell pairs
          la=3 lb=3:      6 shell pairs

Calculating one electron integrals          ... done (  0.0 sec)
Calculating RI/J V-Matrix + Cholesky decomp.... done (  0.0 sec)
Calculating Nuclear repulsion               ... done (  0.0 sec) ENN=     79.784820605795 Eh

SHARK setup successfully completed in   0.1 seconds

Maximum memory used throughout the entire GTOINT-calculation: 14.9 MB


           ************************************************************
           *        Program running with 8 parallel MPI-processes     *
           *              working on a common directory               *
           ************************************************************
-------------------------------------------------------------------------------
                                 ORCA SCF
-------------------------------------------------------------------------------

------------
SCF SETTINGS
------------
Hamiltonian:
 Density Functional     Method          .... DFT(GTOs)
 Exchange Functional    Exchange        .... PBE
   PBE kappa parameter   XKappa         ....  0.804000
   PBE mue parameter    XMuePBE         ....  0.219520
 Correlation Functional Correlation     .... PBE
   PBE beta parameter  CBetaPBE         ....  0.066725
 LDA part of GGA corr.  LDAOpt          .... PW91-LDA
 Gradients option       PostSCFGGA      .... off
 Hybrid DFT is turned on
   Fraction HF Exchange ScalHFX         ....  0.250000
   Scaling of DF-GGA-X  ScalDFX         ....  0.750000
   Scaling of DF-GGA-C  ScalDFC         ....  1.000000
   Scaling of DF-LDA-C  ScalLDAC        ....  1.000000
   Perturbative correction              ....  0.000000
   Density functional embedding theory  .... OFF
   NL short-range parameter             ....  6.900000
 RI-approximation to the Coulomb term is turned on
   Number of AuxJ basis functions       .... 191
   RIJ-COSX (HFX calculated with COS-X)).... on


General Settings:
 Integral files         IntName         .... ox_es1_A_orca0044
 Hartree-Fock type      HFTyp           .... RHF
 Total Charge           Charge          ....    0
 Multiplicity           Mult            ....    1
 Number of Electrons    NEL             ....   24
 Basis Dimension        Dim             ....  117
 Nuclear Repulsion      ENuc            ....     79.7848206058 Eh

Convergence Acceleration:
 DIIS                   CNVDIIS         .... on
   Start iteration      DIISMaxIt       ....    12
   Startup error        DIISStart       ....  0.200000
   # of expansion vecs  DIISMaxEq       ....     5
   Bias factor          DIISBfac        ....   1.050
   Max. coefficient     DIISMaxC        ....  10.000
 Trust-Rad. Augm. Hess. CNVTRAH         .... auto
   Auto Start mean grad. ratio tolernc. ....  1.125000
   Auto Start start iteration           ....     1
   Auto Start num. interpolation iter.  ....    10
   Max. Number of Micro iterations      ....    16
   Max. Number of Macro iterations      .... Maxiter - #DIIS iter
   Number of Davidson start vectors     ....     2
   Converg. threshold I  (grad. norm)   ....   1.000e-05
   Converg. threshold II (energy diff.) ....   1.000e-08
   Grad. Scal. Fac. for Micro threshold ....   0.100
   Minimum threshold for Micro iter.    ....   0.010
   NR start threshold (gradient norm)   ....   0.001
   Initial trust radius                 ....   0.400
   Minimum AH scaling param. (alpha)    ....   1.000
   Maximum AH scaling param. (alpha)    .... 1000.000
   Orbital update algorithm             .... Taylor
   White noise on init. David. guess    .... on
   Maximum white noise                  ....   0.010
   Quad. conv. algorithm                .... NR
 SOSCF                  CNVSOSCF        .... on
   Start iteration      SOSCFMaxIt      ....   150
   Startup grad/error   SOSCFStart      ....  0.003300
 Level Shifting         CNVShift        .... on
   Level shift para.    LevelShift      ....    0.2500
   Turn off err/grad.   ShiftErr        ....    0.0010
 Zerner damping         CNVZerner       .... off
 Static damping         CNVDamp         .... on
   Fraction old density DampFac         ....    0.7000
   Max. Damping (<1)    DampMax         ....    0.9800
   Min. Damping (>=0)   DampMin         ....    0.0000
   Turn off err/grad.   DampErr         ....    0.1000
 Fernandez-Rico         CNVRico         .... off

SCF Procedure:
 Maximum # iterations   MaxIter         ....   125
 SCF integral mode      SCFMode         .... Direct
   Integral package                     .... SHARK and LIBINT hybrid scheme
 Reset frequency        DirectResetFreq ....    20
 Integral Threshold     Thresh          ....  2.500e-11 Eh
 Primitive CutOff       TCut            ....  2.500e-12 Eh

Convergence Tolerance:
 Convergence Check Mode ConvCheckMode   .... Total+1el-Energy
 Convergence forced     ConvForced      .... 1
 Energy Change          TolE            ....  1.000e-08 Eh
 1-El. energy change                    ....  1.000e-05 Eh
 Orbital Gradient       TolG            ....  1.000e-05
 Orbital Rotation angle TolX            ....  1.000e-05
 DIIS Error             TolErr          ....  5.000e-07


Diagonalization of the overlap matrix:
Smallest eigenvalue                        ... 2.440e-04
Time for diagonalization                   ...    0.001 sec
Threshold for overlap eigenvalues          ... 1.000e-08
Number of eigenvalues below threshold      ... 0
Time for construction of square roots      ...    0.002 sec
Total time needed                          ...    0.003 sec

---------------------
INITIAL GUESS: MOREAD
---------------------
Guess MOs are being read from file: ox_es1_A_orca0044.ges
Input Geometry matches current geometry (good)
Input basis set matches current basis set (good)
MOs were renormalized
MOs were reorthogonalized (Cholesky)
                      ------------------
                      INITIAL GUESS DONE (   0.0 sec)
                      ------------------
-------------------
DFT GRID GENERATION
-------------------

General Integration Accuracy     IntAcc      ... 4.388
Radial Grid Type                 RadialGrid  ... OptM3 with GC (2021)
Angular Grid (max. ang.)         AngularGrid ... 4 (Lebedev-302)
Angular grid pruning method      GridPruning ... 4 (adaptive)
Weight generation scheme         WeightScheme... Becke
Basis function cutoff            BFCut       ... 1.0000e-11
Integration weight cutoff        WCut        ... 1.0000e-14
Angular grids for H and He will be reduced by one unit
Partially contracted basis set               ... off
Rotationally invariant grid construction     ... off

Total number of grid points                  ...    31302
Total number of batches                      ...      493
Average number of points per batch           ...       63
Average number of grid points per atom       ...     4472
Time for grid setup =    0.118 sec

--------------------
COSX GRID GENERATION
--------------------

GRIDX 1
-------
General Integration Accuracy     IntAcc      ... 3.816
Radial Grid Type                 RadialGrid  ... OptM3 with GC (2021)
Angular Grid (max. ang.)         AngularGrid ... 1 (Lebedev-50)
Angular grid pruning method      GridPruning ... 4 (adaptive)
Weight generation scheme         WeightScheme... Becke
Basis function cutoff            BFCut       ... 1.0000e-11
Integration weight cutoff        WCut        ... 1.0000e-14
Angular grids for H and He will be reduced by one unit
Partially contracted basis set               ... on
Rotationally invariant grid construction     ... off

Total number of grid points                  ...     4030
Total number of batches                      ...       67
Average number of points per batch           ...       60
Average number of grid points per atom       ...      576
UseSFitting                                  ... on

GRIDX 2
-------
General Integration Accuracy     IntAcc      ... 4.020
Radial Grid Type                 RadialGrid  ... OptM3 with GC (2021)
Angular Grid (max. ang.)         AngularGrid ... 2 (Lebedev-110)
Angular grid pruning method      GridPruning ... 4 (adaptive)
Weight generation scheme         WeightScheme... Becke
Basis function cutoff            BFCut       ... 1.0000e-11
Integration weight cutoff        WCut        ... 1.0000e-14
Angular grids for H and He will be reduced by one unit
Partially contracted basis set               ... on
Rotationally invariant grid construction     ... off

Total number of grid points                  ...     8707
Total number of batches                      ...      140
Average number of points per batch           ...       62
Average number of grid points per atom       ...     1244
UseSFitting                                  ... on

GRIDX 3
-------
General Integration Accuracy     IntAcc      ... 4.338
Radial Grid Type                 RadialGrid  ... OptM3 with GC (2021)
Angular Grid (max. ang.)         AngularGrid ... 3 (Lebedev-194)
Angular grid pruning method      GridPruning ... 4 (adaptive)
Weight generation scheme         WeightScheme... Becke
Basis function cutoff            BFCut       ... 1.0000e-11
Integration weight cutoff        WCut        ... 1.0000e-14
Angular grids for H and He will be reduced by one unit
Partially contracted basis set               ... on
Rotationally invariant grid construction     ... off

Total number of grid points                  ...    19251
Total number of batches                      ...      305
Average number of points per batch           ...       63
Average number of grid points per atom       ...     2750
UseSFitting                                  ... on

Time for X-Grid setup             =    0.073 sec

--------------
SCF ITERATIONS
--------------
ITER       Energy         Delta-E        Max-DP      RMS-DP      [F,P]     Damp
               ***  Starting incremental Fock matrix formation  ***
                      *** Initiating the SOSCF procedure ***
                      *** Re-Reading the Fockian *** 
                      *** Removing any level shift *** 
ITER      Energy       Delta-E        Grad      Rot      Max-DP    RMS-DP
  0   -153.61477052 -153.6147705165  0.000000  0.000000  0.000001  0.000000
               *** Restarting incremental Fock matrix formation ***
                 **** Energy Check signals convergence ****
              ***Rediagonalizing the Fockian in SOSCF/NRSCF***

               *****************************************************
               *                     SUCCESS                       *
               *           SCF CONVERGED AFTER   1 CYCLES          *
               *****************************************************

Old exchange energy                            =     -5.022174475 Eh
New exchange energy                            =     -5.022169779 Eh
Exchange energy change after final integration =      0.000004697 Eh
Total energy after final integration           =   -153.614765820 Eh
Final COS-X integration done in                =     0.260 sec

----------------
TOTAL SCF ENERGY
----------------

Total Energy       :         -153.61476582 Eh           -4180.07029 eV

Components:
Nuclear Repulsion  :           79.78482061 Eh            2171.05534 eV
Electronic Energy  :         -233.39958643 Eh           -6351.12563 eV
One Electron Energy:         -365.59440288 Eh           -9948.32947 eV
Two Electron Energy:          132.19481645 Eh            3597.20383 eV
Max COSX asymmetry :            0.00000186 Eh               0.00005 eV

Virial components:
Potential Energy   :         -307.05291204 Eh           -8355.33451 eV
Kinetic Energy     :          153.43814622 Eh            4175.26422 eV
Virial Ratio       :            2.00115108


DFT components:
N(Alpha)           :       12.000004019563 electrons
N(Beta)            :       12.000004019563 electrons
N(Total)           :       24.000008039127 electrons
E(X)               :      -15.026061265739 Eh       
E(C)               :       -0.798801239170 Eh       
E(XC)              :      -15.824862504909 Eh       
DFET-embed. en.    :        0.000000000000 Eh       

---------------
SCF CONVERGENCE
---------------

  Last Energy change         ...   -4.2348e-12  Tolerance :   1.0000e-08
  Last MAX-Density change    ...    7.7716e-16  Tolerance :   1.0000e-07
  Last RMS-Density change    ...    1.8762e-17  Tolerance :   5.0000e-09
  Last Orbital Gradient      ...    6.7434e-08  Tolerance :   1.0000e-05
  Last Orbital Rotation      ...    1.3706e-07  Tolerance :   1.0000e-05

             **** THE GBW FILE WAS UPDATED (ox_es1_A_orca0044.gbw) ****
             **** DENSITY ox_es1_A_orca0044.scfp WAS UPDATED ****
             **** ENERGY FILE WAS UPDATED (ox_es1_A_orca0044.en.tmp) ****
             **** THE GBW FILE WAS UPDATED (ox_es1_A_orca0044.gbw) ****
             **** DENSITY ox_es1_A_orca0044.scfp WAS UPDATED ****
----------------
ORBITAL ENERGIES
----------------

  NO   OCC          E(Eh)            E(eV) 
   0   2.0000     -19.242005      -523.6016 
   1   2.0000     -10.278975      -279.7051 
   2   2.0000     -10.276759      -279.6448 
   3   2.0000      -1.237117       -33.6637 
   4   2.0000      -0.691974       -18.8296 
   5   2.0000      -0.673738       -18.3334 
   6   2.0000      -0.562462       -15.3054 
   7   2.0000      -0.537994       -14.6396 
   8   2.0000      -0.478606       -13.0235 
   9   2.0000      -0.365709        -9.9515 
  10   2.0000      -0.319880        -8.7044 
  11   2.0000      -0.290607        -7.9078 
  12   0.0000       0.054619         1.4862 
  13   0.0000       0.079970         2.1761 
  14   0.0000       0.096313         2.6208 
  15   0.0000       0.104013         2.8303 
  16   0.0000       0.125418         3.4128 
  17   0.0000       0.151122         4.1122 
  18   0.0000       0.194273         5.2864 
  19   0.0000       0.229225         6.2375 
  20   0.0000       0.272465         7.4142 
  21   0.0000       0.282068         7.6755 
  22   0.0000       0.290250         7.8981 
  23   0.0000       0.352728         9.5982 
  24   0.0000       0.372084        10.1249 
  25   0.0000       0.396779        10.7969 
  26   0.0000       0.403537        10.9808 
  27   0.0000       0.431096        11.7307 
  28   0.0000       0.450430        12.2568 
  29   0.0000       0.475588        12.9414 
  30   0.0000       0.498270        13.5586 
  31   0.0000       0.524864        14.2823 
  32   0.0000       0.546113        14.8605 
  33   0.0000       0.703379        19.1399 
  34   0.0000       0.720992        19.6192 
  35   0.0000       0.725090        19.7307 
  36   0.0000       0.844110        22.9694 
  37   0.0000       0.882739        24.0205 
  38   0.0000       0.905535        24.6409 
  39   0.0000       0.967817        26.3356 
  40   0.0000       1.043512        28.3954 
  41   0.0000       1.079773        29.3821 
  42   0.0000       1.095132        29.8000 
  43   0.0000       1.109071        30.1793 
  44   0.0000       1.164913        31.6989 
  45   0.0000       1.380400        37.5626 
  46   0.0000       1.399237        38.0752 
  47   0.0000       1.482983        40.3540 
  48   0.0000       1.517699        41.2987 
  49   0.0000       1.527519        41.5659 
  50   0.0000       1.562677        42.5226 
  51   0.0000       1.623884        44.1881 
  52   0.0000       1.636301        44.5260 
  53   0.0000       1.687963        45.9318 
  54   0.0000       1.721930        46.8561 
  55   0.0000       1.773246        48.2525 
  56   0.0000       1.821670        49.5702 
  57   0.0000       1.948194        53.0131 
  58   0.0000       1.964816        53.4654 
  59   0.0000       1.981882        53.9297 
  60   0.0000       2.047905        55.7263 
  61   0.0000       2.143509        58.3279 
  62   0.0000       2.209317        60.1186 
  63   0.0000       2.281424        62.0807 
  64   0.0000       2.311958        62.9116 
  65   0.0000       2.403422        65.4004 
  66   0.0000       2.430187        66.1287 
  67   0.0000       2.453582        66.7654 
  68   0.0000       2.514042        68.4106 
  69   0.0000       2.611107        71.0518 
  70   0.0000       2.632996        71.6475 
  71   0.0000       2.674653        72.7810 
  72   0.0000       2.718573        73.9761 
  73   0.0000       2.734793        74.4175 
  74   0.0000       2.796473        76.0959 
  75   0.0000       2.837717        77.2182 
  76   0.0000       2.893172        78.7272 
  77   0.0000       2.974714        80.9461 
  78   0.0000       3.027684        82.3875 
  79   0.0000       3.041611        82.7664 
  80   0.0000       3.072573        83.6090 
  81   0.0000       3.086083        83.9766 
  82   0.0000       3.163615        86.0863 
  83   0.0000       3.244929        88.2990 
  84   0.0000       3.341194        90.9185 
  85   0.0000       3.422177        93.1222 
  86   0.0000       3.431556        93.3774 
  87   0.0000       3.487256        94.8931 
  88   0.0000       3.556780        96.7849 
  89   0.0000       3.620661        98.5232 
  90   0.0000       3.679035       100.1116 
  91   0.0000       3.791771       103.1793 
  92   0.0000       3.885200       105.7217 
  93   0.0000       3.983380       108.3933 
  94   0.0000       4.071747       110.7979 
  95   0.0000       4.191030       114.0437 
  96   0.0000       4.240160       115.3806 
  97   0.0000       4.301870       117.0598 
  98   0.0000       4.319665       117.5440 
  99   0.0000       4.564910       124.2175 
 100   0.0000       4.754059       129.3645 
 101   0.0000       4.858069       132.1948 
 102   0.0000       5.463521       148.6700 
 103   0.0000       5.632981       153.2812 
 104   0.0000       5.922657       161.1637 
 105   0.0000       6.003291       163.3578 
 106   0.0000       6.140190       167.0831 
 107   0.0000       6.162321       167.6853 
 108   0.0000       6.376277       173.5073 
 109   0.0000       6.693904       182.1504 
 110   0.0000       6.730688       183.1513 
 111   0.0000       6.839154       186.1028 
 112   0.0000       7.056849       192.0266 
 113   0.0000       7.234625       196.8641 
 114   0.0000      22.403046       609.6179 
 115   0.0000      22.759362       619.3137 
 116   0.0000      43.966543      1196.3905 

                    ********************************
                    * MULLIKEN POPULATION ANALYSIS *
                    ********************************

-----------------------
MULLIKEN ATOMIC CHARGES
-----------------------
   0 O :   -0.221372
   1 C :   -0.095802
   2 C :   -0.062026
   3 H :    0.114945
   4 H :    0.101674
   5 H :    0.108890
   6 H :    0.053692
Sum of atomic charges:   -0.0000000

--------------------------------
MULLIKEN REDUCED ORBITAL CHARGES
--------------------------------
  0 O s       :     3.792628  s :     3.792628
      pz      :     1.729732  p :     4.365518
      px      :     1.286054
      py      :     1.349731
      dz2     :     0.005822  d :     0.059977
      dxz     :     0.004848
      dyz     :     0.011153
      dx2y2   :     0.018481
      dxy     :     0.019673
      f0      :     0.000490  f :     0.003249
      f+1     :     0.000279
      f-1     :     0.000503
      f+2     :     0.000136
      f-2     :     0.000404
      f+3     :     0.000330
      f-3     :     0.001107
  1 C s       :     3.197013  s :     3.197013
      pz      :     1.052019  p :     2.760464
      px      :     0.893144
      py      :     0.815302
      dz2     :     0.004401  d :     0.123753
      dxz     :     0.032768
      dyz     :     0.031179
      dx2y2   :     0.035029
      dxy     :     0.020376
      f0      :     0.001811  f :     0.014573
      f+1     :     0.001437
      f-1     :     0.000708
      f+2     :     0.001288
      f-2     :     0.002618
      f+3     :     0.002962
      f-3     :     0.003749
  2 C s       :     3.169795  s :     3.169795
      pz      :     1.019457  p :     2.727771
      px      :     0.925010
      py      :     0.783305
      dz2     :     0.007495  d :     0.148124
      dxz     :     0.033704
      dyz     :     0.042230
      dx2y2   :     0.038623
      dxy     :     0.026072
      f0      :     0.002323  f :     0.016336
      f+1     :     0.001374
      f-1     :     0.001021
      f+2     :     0.001418
      f-2     :     0.002838
      f+3     :     0.002898
      f-3     :     0.004464
  3 H s       :     0.866137  s :     0.866137
      pz      :     0.008809  p :     0.018918
      px      :     0.006672
      py      :     0.003436
  4 H s       :     0.877991  s :     0.877991
      pz      :     0.009628  p :     0.020335
      px      :     0.006767
      py      :     0.003940
  5 H s       :     0.868383  s :     0.868383
      pz      :     0.009788  p :     0.022727
      px      :     0.007695
      py      :     0.005244
  6 H s       :     0.932276  s :     0.932276
      pz      :     0.007790  p :     0.014032
      px      :     0.003984
      py      :     0.002258


                     *******************************
                     * LOEWDIN POPULATION ANALYSIS *
                     *******************************

----------------------
LOEWDIN ATOMIC CHARGES
----------------------
   0 O :    0.351420
   1 C :   -0.369842
   2 C :   -0.448524
   3 H :    0.126371
   4 H :    0.119544
   5 H :    0.101633
   6 H :    0.119398

-------------------------------
LOEWDIN REDUCED ORBITAL CHARGES
-------------------------------
  0 O s       :     3.213134  s :     3.213134
      pz      :     1.554769  p :     4.262676
      px      :     1.253679
      py      :     1.454228
      dz2     :     0.013149  d :     0.158566
      dxz     :     0.016625
      dyz     :     0.027347
      dx2y2   :     0.064177
      dxy     :     0.037269
      f0      :     0.001441  f :     0.014204
      f+1     :     0.000529
      f-1     :     0.001243
      f+2     :     0.000250
      f-2     :     0.002139
      f+3     :     0.002126
      f-3     :     0.006476
  1 C s       :     2.793996  s :     2.793996
      pz      :     1.032694  p :     2.942280
      px      :     1.023841
      py      :     0.885745
      dz2     :     0.047920  d :     0.538496
      dxz     :     0.171227
      dyz     :     0.097610
      dx2y2   :     0.116053
      dxy     :     0.105687
      f0      :     0.012986  f :     0.095070
      f+1     :     0.007288
      f-1     :     0.005946
      f+2     :     0.008044
      f-2     :     0.012410
      f+3     :     0.018716
      f-3     :     0.029681
  2 C s       :     2.782320  s :     2.782320
      pz      :     1.003146  p :     2.913617
      px      :     1.023802
      py      :     0.886670
      dz2     :     0.055292  d :     0.633974
      dxz     :     0.163350
      dyz     :     0.145163
      dx2y2   :     0.139214
      dxy     :     0.130957
      f0      :     0.017659  f :     0.118612
      f+1     :     0.007561
      f-1     :     0.007361
      f+2     :     0.011006
      f-2     :     0.015323
      f+3     :     0.019419
      f-3     :     0.040284
  3 H s       :     0.821159  s :     0.821159
      pz      :     0.026212  p :     0.052470
      px      :     0.016543
      py      :     0.009716
  4 H s       :     0.823883  s :     0.823883
      pz      :     0.028596  p :     0.056573
      px      :     0.016787
      py      :     0.011191
  5 H s       :     0.829426  s :     0.829426
      pz      :     0.031952  p :     0.068942
      px      :     0.021035
      py      :     0.015954
  6 H s       :     0.845743  s :     0.845743
      pz      :     0.020788  p :     0.034859
      px      :     0.008639
      py      :     0.005431


                      *****************************
                      * MAYER POPULATION ANALYSIS *
                      *****************************

  NA   - Mulliken gross atomic population
  ZA   - Total nuclear charge
  QA   - Mulliken gross atomic charge
  VA   - Mayer's total valence
  BVA  - Mayer's bonded valence
  FA   - Mayer's free valence

  ATOM       NA         ZA         QA         VA         BVA        FA
  0 O      8.2214     8.0000    -0.2214     2.1023     2.1023     0.0000
  1 C      6.0958     6.0000    -0.0958     3.9589     3.9589    -0.0000
  2 C      6.0620     6.0000    -0.0620     4.0270     4.0270    -0.0000
  3 H      0.8851     1.0000     0.1149     0.9627     0.9627    -0.0000
  4 H      0.8983     1.0000     0.1017     0.9609     0.9609    -0.0000
  5 H      0.8911     1.0000     0.1089     0.9489     0.9489    -0.0000
  6 H      0.9463     1.0000     0.0537     0.9684     0.9684    -0.0000

  Mayer bond orders larger than 0.100000
B(  0-O ,  1-C ) :   0.9688 B(  0-O ,  2-C ) :   1.0665 B(  1-C ,  2-C ) :   1.0713 
B(  1-C ,  3-H ) :   0.9464 B(  1-C ,  4-H ) :   0.9534 B(  2-C ,  5-H ) :   0.9461 
B(  2-C ,  6-H ) :   0.9293 

-------
TIMINGS
-------

Total SCF time: 0 days 0 hours 0 min 1 sec 

Total time                  ....       1.013 sec
Sum of individual times     ....       0.908 sec  ( 89.7%)

Fock matrix formation       ....       0.701 sec  ( 69.2%)
  Split-RI-J                ....       0.117 sec  ( 16.7% of F)
  Chain of spheres X        ....       0.518 sec  ( 73.9% of F)
  XC integration            ....       0.062 sec  (  8.8% of F)
    Basis function eval.    ....       0.017 sec  ( 27.8% of XC)
    Density eval.           ....       0.013 sec  ( 21.5% of XC)
    XC-Functional eval.     ....       0.004 sec  (  6.0% of XC)
    XC-Potential eval.      ....       0.018 sec  ( 29.3% of XC)
Diagonalization             ....       0.002 sec  (  0.2%)
Density matrix formation    ....       0.000 sec  (  0.0%)
Population analysis         ....       0.002 sec  (  0.2%)
Initial guess               ....       0.008 sec  (  0.8%)
Orbital Transformation      ....       0.000 sec  (  0.0%)
Orbital Orthonormalization  ....       0.001 sec  (  0.1%)
DIIS solution               ....       0.001 sec  (  0.1%)
SOSCF solution              ....       0.002 sec  (  0.2%)
Grid generation             ....       0.192 sec  ( 18.9%)

Maximum memory used throughout the entire SCF-calculation: 61.1 MB


           ************************************************************
           *        Program running with 8 parallel MPI-processes     *
           *              working on a common directory               *
           ************************************************************
------------------------------------------------------------------------------
                        ORCA TD-DFT/TDA CALCULATION
------------------------------------------------------------------------------

Input orbitals are from        ... ox_es1_A_orca0044.gbw
CI-vector output               ... ox_es1_A_orca0044.cis
Tamm-Dancoff approximation     ... operative
CIS-Integral strategy          ... AO-integrals
Integral handling              ... AO integral Direct
Max. core memory used          ... 3000 MB
Reference state                ... RHF
Generation of triplets         ... off
Follow IRoot                   ... off
Number of operators            ... 1
Orbital ranges used for CIS calculation:
 Operator 0:  Orbitals   3... 11  to  12...116
XAS localization array:
 Operator 0:  Orbitals  -1... -1

-------------------
XC-INTEGRATION GRID
-------------------

General Integration Accuracy     IntAcc      ... 3.467
Radial Grid Type                 RadialGrid  ... OptM3 with GC (2021)
Angular Grid (max. ang.)         AngularGrid ... 1 (Lebedev-50)
Angular grid pruning method      GridPruning ... 4 (adaptive)
Weight generation scheme         WeightScheme... Becke
Basis function cutoff            BFCut       ... 1.0000e-11
Integration weight cutoff        WCut        ... 1.0000e-14
Angular grids for H and He will be reduced by one unit
Partially contracted basis set               ... off
Rotationally invariant grid construction     ... off

Total number of grid points                  ...     4533
Total number of batches                      ...       74
Average number of points per batch           ...       61
Average number of grid points per atom       ...      648

---------------------
COSX-INTEGRATION GRID
---------------------

General Integration Accuracy     IntAcc      ... 3.067
Radial Grid Type                 RadialGrid  ... OptM3 with GC (2021)
Angular Grid (max. ang.)         AngularGrid ... 1 (Lebedev-50)
Angular grid pruning method      GridPruning ... 4 (adaptive)
Weight generation scheme         WeightScheme... Becke
Basis function cutoff            BFCut       ... 1.0000e-11
Integration weight cutoff        WCut        ... 1.0000e-14
Angular grids for H and He will be reduced by one unit
Partially contracted basis set               ... on
Rotationally invariant grid construction     ... off

Total number of grid points                  ...     2082
Total number of batches                      ...       37
Average number of points per batch           ...       56
Average number of grid points per atom       ...      297

---------------
TD-DFT XC SETUP
---------------

DFT calculation                         ... on
Name of the grid file                   ... ox_es1_A_orca0044.grid_cis.tmp
Exchange functional (TD-DFT)            ... PBE
   PBE kappa parameter  XKappa (TD-DFT) ...  0.804000
   PBE mue parameter   XMuePBE (TD-DFT) ...  0.219520
Correlation functional (TD-DFT)         ... PBE
   PBE beta parameter CBetaPBE (TD-DFT) ...  0.066725
 LDA part of GGA corr.  LDAOpt (TD-DFT) ... PW91-LDA
Hybrid DFT                              ... on
   Exchange mixing (TD-DFT)             ...  0.250
   GGA exch. scaling (TD-DFT)           ...  0.750
   GGA corr. scaling (TD-DFT)           ...  1.000

Building densities             ... done
Calculating rho(r) on the grid ... done
Building xc-kernel on the grid ... done
                    *** TD-DFT CALCULATION INITIALIZED ***

------------------------
DAVIDSON-DIAGONALIZATION
------------------------

Dimension of the eigenvalue problem            ...    945
Number of roots to be determined               ...      1
Maximum size of the expansion space            ...     10
Maximum number of iterations                   ...    100
Convergence tolerance for the residual         ...    2.500e-07
Convergence tolerance for the energies         ...    2.500e-07
Orthogonality tolerance                        ...    1.000e-14
Level Shift                                    ...    0.000e+00
Constructing the preconditioner                ... o.k.
Building the initial guess                     ... o.k.
Number of trial vectors determined             ...     10


                       ****Iteration    0****

   Memory handling for direct AO based CIS:
   Memory per vector needed      ...     1 MB
   Memory needed                 ...     1 MB
   Memory available              ...  3000 MB
   Number of vectors per batch   ...  3000
   Number of batches             ...     1
   Time for densities:            0.001
   Time for RI-J (Direct):        0.016
   Time for K (COSX):             0.055
   Time for XC-Integration:       0.016
   Time for Sigma-Completion:     0.000
   Size of expansion space: 3
   Lowest Energy          :     0.306064112245
   Maximum Energy change  :     0.306064112245 (vector 0)
   Maximum residual norm  :     0.004201784827

                       ****Iteration    1****
   Time for densities:            0.000
   Time for RI-J (Direct):        0.012
   Time for K (COSX):             0.051
   Time for XC-Integration:       0.007
   Time for Sigma-Completion:     0.000
   Size of expansion space: 4
   Lowest Energy          :     0.300661530593
   Maximum Energy change  :     0.005402581652 (vector 0)
   Maximum residual norm  :     0.000522077638

                       ****Iteration    2****
   Time for densities:            0.000
   Time for RI-J (Direct):        0.013
   Time for K (COSX):             0.056
   Time for XC-Integration:       0.007
   Time for Sigma-Completion:     0.000
   Size of expansion space: 5
   Lowest Energy          :     0.300097922275
   Maximum Energy change  :     0.000563608318 (vector 0)
   Maximum residual norm  :     0.000037471755

                       ****Iteration    3****
   Time for densities:            0.000
   Time for RI-J (Direct):        0.014
   Time for K (COSX):             0.058
   Time for XC-Integration:       0.008
   Time for Sigma-Completion:     0.000
   Size of expansion space: 6
   Lowest Energy          :     0.300022607669
   Maximum Energy change  :     0.000075314606 (vector 0)
   Maximum residual norm  :     0.000013512233

                       ****Iteration    4****
   Time for densities:            0.000
   Time for RI-J (Direct):        0.014
   Time for K (COSX):             0.059
   Time for XC-Integration:       0.008
   Time for Sigma-Completion:     0.000
   Size of expansion space: 7
   Lowest Energy          :     0.300000511123
   Maximum Energy change  :     0.000022096546 (vector 0)
   Maximum residual norm  :     0.000002573997

                       ****Iteration    5****
   Time for densities:            0.000
   Time for RI-J (Direct):        0.014
   Time for K (COSX):             0.059
   Time for XC-Integration:       0.008
   Time for Sigma-Completion:     0.000
   Size of expansion space: 8
   Lowest Energy          :     0.299996273052
   Maximum Energy change  :     0.000004238071 (vector 0)
   Maximum residual norm  :     0.000000368920

                       ****Iteration    6****
   Time for densities:            0.000
   Time for RI-J (Direct):        0.014
   Time for K (COSX):             0.060
   Time for XC-Integration:       0.008
   Time for Sigma-Completion:     0.000
   Size of expansion space: 9
   Lowest Energy          :     0.299995620876
   Maximum Energy change  :     0.000000652176 (vector 0)
   Maximum residual norm  :     0.000000095380

      *** CONVERGENCE OF RESIDUAL NORM REACHED ***

Storing the converged CI vectors               ... ox_es1_A_orca0044.cis1

                 *** DAVIDSON DONE ***

Total time for solving the CIS problem:     0.563sec

------------------------------------
TD-DFT/TDA EXCITED STATES (SINGLETS)
------------------------------------

the weight of the individual excitations are printed if larger than 1.0e-02

STATE  1:  E=   0.299996 au      8.163 eV    65841.4 cm**-1 <S**2> =   0.000000
    11a ->  12a  :     0.966446 (c=  0.98308000)
    11a ->  15a  :     0.010672 (c= -0.10330509)


-----------------------------
TD-DFT/TDA-EXCITATION SPECTRA
-----------------------------

Center of mass = (  0.0296, -0.0139, -0.0529)
Calculating the Dipole integrals                  ... done
Transforming integrals                            ... done
Calculating the Linear Momentum integrals         ... done
Transforming integrals                            ... done
Calculating angular momentum integrals            ... done
Transforming integrals                            ... done

-----------------------------------------------------------------------------
         ABSORPTION SPECTRUM VIA TRANSITION ELECTRIC DIPOLE MOMENTS
-----------------------------------------------------------------------------
State   Energy    Wavelength  fosc         T2        TX        TY        TZ  
        (cm-1)      (nm)                 (au**2)    (au)      (au)      (au) 
-----------------------------------------------------------------------------
   1   65841.4    151.9   0.199289886   0.99646  -0.18818   0.12901  -0.97181

-----------------------------------------------------------------------------
         ABSORPTION SPECTRUM VIA TRANSITION VELOCITY DIPOLE MOMENTS
-----------------------------------------------------------------------------
State   Energy    Wavelength   fosc        P2         PX        PY        PZ  
        (cm-1)      (nm)                 (au**2)     (au)      (au)      (au) 
-----------------------------------------------------------------------------
   1   65841.4    151.9   0.111847183   0.05033   0.04568  -0.01477   0.21915

-------------------------------------------------------------------
                             CD SPECTRUM
-------------------------------------------------------------------
State  Energy     Wavelength     R         MX        MY        MZ   
       (cm-1)       (nm)     (1e40*cgs)   (au)      (au)      (au)  
-------------------------------------------------------------------
   1   65841.4    151.9    -29.57748   0.23139   0.10984   0.03433

-------------------------------------------------------------------
         CD SPECTRUM VIA TRANSITION VELOCITY DIPOLE MOMENTS        
-------------------------------------------------------------------
State  Energy     Wavelength     R         MX        MY        MZ   
       (cm-1)       (nm)     (1e40*cgs)   (au)      (au)      (au)  
-------------------------------------------------------------------
   1   65841.4    151.9     25.88443   0.23139   0.10984   0.03433

Total run time:        0.837 sec

           *** ORCA-CIS/TD-DFT FINISHED WITHOUT ERROR ***

Maximum memory used throughout the entire CIS-calculation: 49.4 MB

-----------------------
CIS/TD-DFT TOTAL ENERGY
-----------------------

    E(SCF)  =   -153.614765820 Eh
    DE(CIS) =      0.299995621 Eh (Root  1)
    ----------------------------- ---------
    E(tot)  =   -153.314770199 Eh



-------------------------------------------------------------------------------
                          DFT DISPERSION CORRECTION                            
                                                                               
                              DFTD3 V3.1  Rev 1                                
                          USING Becke-Johnson damping                          
-------------------------------------------------------------------------------
The PBE0 functional is recognized
Active option DFTDOPT                   ...         4   

molecular C6(AA) [au] = 352.714027 


            DFT-D V3
 parameters
 s6 scaling factor         :     1.0000 
 a1 scaling factor         :     0.4145 
 s8 scaling factor         :     1.2177 
 a2 scaling factor         :     4.8593 
 ad hoc parameters k1-k3   :    16.0000     1.3333    -4.0000 

 Edisp/kcal,au: -1.512770860490  -0.002410753561 
 E6   /kcal   :  -0.991745875 
 E8   /kcal   :  -0.521024985 
 % E8         :  34.441765037 

-------------------------   ----------------
Dispersion correction           -0.002410754
-------------------------   ----------------


-------------------------   --------------------
FINAL SINGLE POINT ENERGY      -153.317180952537
-------------------------   --------------------



           ************************************************************
           *        Program running with 8 parallel MPI-processes     *
           *              working on a common directory               *
           ************************************************************
------------------------------------------------------------------------------
                         ORCA SCF GRADIENT CALCULATION
------------------------------------------------------------------------------


------------------------
TD-DFT GRADIENT XC SETUP
------------------------

Building densities                     ... done
Calculating rho(r) on the grid         ... done
Building xc-kernel on the grid         ... done
Building xc 3rd derivative on the grid      ... done
                *** TD-DFT GRADIENT CALCULATION INITIALIZED ***

-------------------
TD-DFT/TDA GRADIENT
-------------------

Reference wavefunction             ... RHF
State of interest                  ... 1
Basis dimension                    ... 117
DFT-XC contribution needed         ... YES
RI-approximation                   ... ON
CIS-vectors being read from        ... ox_es1_A_orca0044.cis

 => Number of Vectors found: 1
 => Orbital Window: 3...11 -> 12...116

Reading the CIS file                     ... done
Norm of the CI vector                    ... 1.000000000
Making the CIS (pseudo)densities         ... done
Making operators G(D) and Q(T)           ... done
Transforming the Fock operators          ... done
Making the frozen-core relaxed density   ... done
Constructing the G(H) operator           ... done
Transforming the G(H) operator           ... done
Calculating the CIS Lagrangian           ... done
Solving the Z-vector equations           ... done
Finalizing the relaxed density           ... done
Storing the relaxed density              ... done
Constructing the G(Z) operator           ... done
Transforming the G(Z) operator           ... done
Making the W-matrix                      ... done
Finalizing the W-matrix                  ... done
Transforming the W-matrix                ... done
Nuclear repulsion gradient               ... done
One-Electron gradient                    ... done
Dispersion correction                    ... done
Prescreening matrices                    ... done
COSX-gradient                            ... done
Coulomb gradient (RI)                    ... done
Exchange-Correlation gradient            ... done

                 ---------------------------
                 EXCITED STATE GRADIENT DONE
                 ---------------------------

------------------
CARTESIAN GRADIENT
------------------

   1   O   :    0.034637788   -0.215875233   -0.007141426
   2   C   :    0.104798693    0.093754260   -0.002984184
   3   C   :   -0.089829154    0.155391655   -0.073201031
   4   H   :   -0.023405226   -0.014663842    0.000816551
   5   H   :   -0.011389851   -0.009970680    0.007640460
   6   H   :   -0.028385438    0.009646241    0.049518747
   7   H   :    0.013595071   -0.018280127    0.025290282

Difference to translation invariance:
           :    0.0000218845    0.0000022728   -0.0000606004

Difference to rotation invariance:
           :   -0.0001718982    0.0000992069    0.0000045796

Norm of the cartesian gradient     ...    0.3328200051
RMS gradient                       ...    0.0726272794
MAX gradient                       ...    0.2158752335

------------------------------------------------------------------------------
                  RELAXED CIS/TDA DENSITY POPULATION ANALYSIS
                                   IROOT 1
------------------------------------------------------------------------------
------------------------------------------------------------------------------
                           ORCA POPULATION ANALYSIS
------------------------------------------------------------------------------
Input electron density              ... ox_es1_A_orca0044.cisp
BaseName (.gbw .S,...)              ... ox_es1_A_orca0044

                    ********************************
                    * MULLIKEN POPULATION ANALYSIS *
                    ********************************

-----------------------
MULLIKEN ATOMIC CHARGES
-----------------------
   0 O :    0.042155
   1 C :    0.217359
   2 C :    0.430620
   3 H :   -0.162465
   4 H :   -0.129572
   5 H :   -0.171233
   6 H :   -0.226864
Sum of atomic charges:   -0.0000000

--------------------------------
MULLIKEN REDUCED ORBITAL CHARGES
--------------------------------
  0 O s       :     3.829902  s :     3.829902
      pz      :     1.280076  p :     4.058412
      px      :     1.382548
      py      :     1.395788
      dz2     :     0.006974  d :     0.066385
      dxz     :     0.005962
      dyz     :     0.013131
      dx2y2   :     0.021104
      dxy     :     0.019215
      f0      :     0.000415  f :     0.003147
      f+1     :     0.000152
      f-1     :     0.000373
      f+2     :     0.000157
      f-2     :     0.000467
      f+3     :     0.000337
      f-3     :     0.001245
  1 C s       :     2.984157  s :     2.984157
      pz      :     1.092613  p :     2.680597
      px      :     0.883898
      py      :     0.704086
      dz2     :     0.011057  d :     0.104202
      dxz     :     0.025743
      dyz     :     0.011611
      dx2y2   :     0.033181
      dxy     :     0.022609
      f0      :     0.001433  f :     0.013684
      f+1     :     0.001463
      f-1     :     0.000804
      f+2     :     0.000976
      f-2     :     0.002059
      f+3     :     0.003314
      f-3     :     0.003636
  2 C s       :     2.772419  s :     2.772419
      pz      :     1.040306  p :     2.654168
      px      :     0.929752
      py      :     0.684109
      dz2     :     0.017400  d :     0.127333
      dxz     :     0.025477
      dyz     :     0.019669
      dx2y2   :     0.037023
      dxy     :     0.027764
      f0      :     0.001778  f :     0.015461
      f+1     :     0.001428
      f-1     :     0.001081
      f+2     :     0.001079
      f-2     :     0.002470
      f+3     :     0.003249
      f-3     :     0.004376
  3 H s       :     1.136845  s :     1.136845
      pz      :     0.014492  p :     0.025620
      px      :     0.007628
      py      :     0.003500
  4 H s       :     1.103560  s :     1.103560
      pz      :     0.014692  p :     0.026012
      px      :     0.007268
      py      :     0.004051
  5 H s       :     1.140803  s :     1.140803
      pz      :     0.016698  p :     0.030430
      px      :     0.007979
      py      :     0.005753
  6 H s       :     1.204560  s :     1.204560
      pz      :     0.014983  p :     0.022304
      px      :     0.004841
      py      :     0.002481


                     *******************************
                     * LOEWDIN POPULATION ANALYSIS *
                     *******************************

----------------------
LOEWDIN ATOMIC CHARGES
----------------------
   0 O :    0.595771
   1 C :   -0.339028
   2 C :   -0.398734
   3 H :    0.031107
   4 H :    0.047977
   5 H :    0.037222
   6 H :    0.025685

-------------------------------
LOEWDIN REDUCED ORBITAL CHARGES
-------------------------------
  0 O s       :     3.239613  s :     3.239613
      pz      :     1.161300  p :     3.982592
      px      :     1.320408
      py      :     1.500884
      dz2     :     0.016670  d :     0.167594
      dxz     :     0.019134
      dyz     :     0.027394
      dx2y2   :     0.069716
      dxy     :     0.034680
      f0      :     0.001416  f :     0.014430
      f+1     :     0.000369
      f-1     :     0.001087
      f+2     :     0.000272
      f-2     :     0.002386
      f+3     :     0.001927
      f-3     :     0.006972
  1 C s       :     2.855387  s :     2.855387
      pz      :     1.027531  p :     2.883462
      px      :     1.034105
      py      :     0.821826
      dz2     :     0.077498  d :     0.506559
      dxz     :     0.149111
      dyz     :     0.049226
      dx2y2   :     0.115265
      dxy     :     0.115458
      f0      :     0.011210  f :     0.093620
      f+1     :     0.007658
      f-1     :     0.006983
      f+2     :     0.005713
      f-2     :     0.010138
      f+3     :     0.021429
      f-3     :     0.030488
  2 C s       :     2.842881  s :     2.842881
      pz      :     0.964998  p :     2.870881
      px      :     1.051694
      py      :     0.854189
      dz2     :     0.091796  d :     0.569469
      dxz     :     0.131098
      dyz     :     0.071927
      dx2y2   :     0.139883
      dxy     :     0.134764
      f0      :     0.013650  f :     0.115503
      f+1     :     0.008056
      f-1     :     0.008175
      f+2     :     0.008300
      f-2     :     0.013477
      f+3     :     0.021571
      f-3     :     0.042274
  3 H s       :     0.892900  s :     0.892900
      pz      :     0.045272  p :     0.075993
      px      :     0.020659
      py      :     0.010062
  4 H s       :     0.875162  s :     0.875162
      pz      :     0.046637  p :     0.076862
      px      :     0.018718
      py      :     0.011506
  5 H s       :     0.872283  s :     0.872283
      pz      :     0.051539  p :     0.090495
      px      :     0.022180
      py      :     0.016775
  6 H s       :     0.906511  s :     0.906511
      pz      :     0.049369  p :     0.067804
      px      :     0.012175
      py      :     0.006260


                      *****************************
                      * MAYER POPULATION ANALYSIS *
                      *****************************

  NA   - Mulliken gross atomic population
  ZA   - Total nuclear charge
  QA   - Mulliken gross atomic charge
  VA   - Mayer's total valence
  BVA  - Mayer's bonded valence
  FA   - Mayer's free valence

  ATOM       NA         ZA         QA         VA         BVA        FA
  0 O      7.9578     8.0000     0.0422     2.4719     1.9068     0.5651
  1 C      5.7826     6.0000     0.2174     2.9107     3.0829    -0.1722
  2 C      5.5694     6.0000     0.4306     2.3019     2.5251    -0.2232
  3 H      1.1625     1.0000    -0.1625     1.3825     0.9791     0.4034
  4 H      1.1296     1.0000    -0.1296     1.3578     1.0088     0.3490
  5 H      1.1712     1.0000    -0.1712     1.4404     1.0207     0.4198
  6 H      1.2269     1.0000    -0.2269     1.3744     0.7985     0.5759

  Mayer bond orders larger than 0.100000
B(  0-O ,  1-C ) :   0.8707 B(  0-O ,  2-C ) :   0.9921 B(  1-C ,  2-C ) :   1.1488 
B(  1-C ,  3-H ) :   0.6071 B(  1-C ,  4-H ) :   0.6565 B(  1-C ,  6-H ) :  -0.1150 
B(  2-C ,  3-H ) :  -0.1544 B(  2-C ,  4-H ) :  -0.1718 B(  2-C ,  5-H ) :   0.5269 
B(  2-C ,  6-H ) :   0.1837 B(  3-H ,  4-H ) :   0.1523 B(  3-H ,  5-H ) :   0.1692 
B(  3-H ,  6-H ) :   0.1923 B(  4-H ,  5-H ) :   0.1426 B(  4-H ,  6-H ) :   0.2339 
B(  5-H ,  6-H ) :   0.2673 


-------
TIMINGS
-------

Total TD-DFT gradient time         ...        5.754 sec

Fock matrix formation       ....       0.978 sec  ( 17.0%)
  Coulomb formation         ....       0.784 sec  ( 80.2% of F)
  RI-J                      ....       0.333 sec  ( 34.0% of F)
  Chain of spheres X        ....       0.451 sec  ( 46.1% of F)
  XC integration            ....       0.193 sec  ( 19.8% of F)
Z-vector equation           ....       1.405 sec  ( 24.4%)
One electron gradient       ....       0.037 sec  (  0.7%)
Prescreening matrices       ....       0.182 sec  (  3.2%)
RI-J Coulomb gradient       ....       0.309 sec  (  5.4%)
COSX gradient               ....       0.413 sec  (  7.2%)
XC gradient                 ....       2.074 sec  ( 36.1%)

Maximum memory used throughout the entire SCFGRAD-calculation: 130.3 MB

                            ***************************************
                            *     ORCA property calculations      *
                            ***************************************

                                    ---------------------
                                    Active property flags
                                    ---------------------
   (+) Dipole Moment


------------------------------------------------------------------------------
                       ORCA ELECTRIC PROPERTIES CALCULATION
------------------------------------------------------------------------------

Dipole Moment Calculation                       ... on
Quadrupole Moment Calculation                   ... off
Polarizability Calculation                      ... off
GBWName                                         ... ox_es1_A_orca0044.gbw
Electron density                                ... ox_es1_A_orca0044.scfp
The origin for moment calculation is the CENTER OF MASS  = ( 0.029647, -0.013855 -0.052856)

-------------
DIPOLE MOMENT
-------------
                                X             Y             Z
Electronic contribution:      0.09599       2.05486      -0.33941
Nuclear contribution   :     -0.20523      -2.48083       0.22040
                        -----------------------------------------
Total Dipole Moment    :     -0.10924      -0.42597      -0.11901
                        -----------------------------------------
Magnitude (a.u.)       :      0.45557
Magnitude (Debye)      :      1.15796



--------------------
Rotational spectrum 
--------------------
 
Rotational constants in cm-1:     1.055963     0.750395     0.535550 
Rotational constants in MHz : 31656.973225 22496.279804 16055.371192 

 Dipole components along the rotational axes: 
x,y,z [a.u.] :    -0.156882     0.409725    -0.122705 
x,y,z [Debye]:    -0.398762     1.041438    -0.311891 

 

                        *** CIS RELAXED DENSITY ***

------------------------------------------------------------------------------
                       ORCA ELECTRIC PROPERTIES CALCULATION
------------------------------------------------------------------------------

Dipole Moment Calculation                       ... on
Quadrupole Moment Calculation                   ... off
Polarizability Calculation                      ... off
GBWName                                         ... ox_es1_A_orca0044.gbw
Electron density                                ... ox_es1_A_orca0044.cisp
The origin for moment calculation is the CENTER OF MASS  = ( 0.029647, -0.013855 -0.052856)

-------------
DIPOLE MOMENT
-------------
                                X             Y             Z
Electronic contribution:      0.16544       2.97136      -0.56593
Nuclear contribution   :     -0.20523      -2.48083       0.22040
                        -----------------------------------------
Total Dipole Moment    :     -0.03980       0.49053      -0.34553
                        -----------------------------------------
Magnitude (a.u.)       :      0.60133
Magnitude (Debye)      :      1.52846



--------------------
Rotational spectrum 
--------------------
 
Rotational constants in cm-1:     1.055963     0.750395     0.535550 
Rotational constants in MHz : 31656.973225 22496.279804 16055.371192 

 Dipole components along the rotational axes: 
x,y,z [a.u.] :     0.028653    -0.491450    -0.345329 
x,y,z [Debye]:     0.072829    -1.249167    -0.877756 

 

Timings for individual modules:

Sum of individual times         ...        8.530 sec (=   0.142 min)
GTO integral calculation        ...        0.315 sec (=   0.005 min)   3.7 %
SCF iterations                  ...        1.205 sec (=   0.020 min)  14.1 %
CIS module                      ...        1.051 sec (=   0.018 min)  12.3 %
SCF Gradient evaluation         ...        5.959 sec (=   0.099 min)  69.9 %
                             ****ORCA TERMINATED NORMALLY****
TOTAL RUN TIME: 0 days 0 hours 0 minutes 8 seconds 940 msec
