
                                 *****************
                                 * O   R   C   A *
                                 *****************

                                            #,                                       
                                            ###                                      
                                            ####                                     
                                            #####                                    
                                            ######                                   
                                           ########,                                 
                                     ,,################,,,,,                         
                               ,,#################################,,                 
                          ,,##########################################,,             
                       ,#########################################, ''#####,          
                    ,#############################################,,   '####,        
                  ,##################################################,,,,####,       
                ,###########''''           ''''###############################       
              ,#####''   ,,,,##########,,,,          '''####'''          '####       
            ,##' ,,,,###########################,,,                        '##       
           ' ,,###''''                  '''############,,,                           
         ,,##''                                '''############,,,,        ,,,,,,###''
      ,#''                                            '''#######################'''  
     '                                                          ''''####''''         
             ,#######,   #######,   ,#######,      ##                                
            ,#'     '#,  ##    ##  ,#'     '#,    #''#        ######   ,####,        
            ##       ##  ##   ,#'  ##            #'  '#       #        #'  '#        
            ##       ##  #######   ##           ,######,      #####,   #    #        
            '#,     ,#'  ##    ##  '#,     ,#' ,#      #,         ##   #,  ,#        
             '#######'   ##     ##  '#######'  #'      '#     #####' # '####'        



                  #######################################################
                  #                        -***-                        #
                  #          Department of theory and spectroscopy      #
                  #    Directorship and core code : Frank Neese         #
                  #        Max Planck Institute fuer Kohlenforschung    #
                  #                Kaiser Wilhelm Platz 1               #
                  #                 D-45470 Muelheim/Ruhr               #
                  #                      Germany                        #
                  #                                                     #
                  #                  All rights reserved                #
                  #                        -***-                        #
                  #######################################################


                         Program Version 5.0.2 -  RELEASE  -


 With contributions from (in alphabetic order):
   Daniel Aravena         : Magnetic Suceptibility
   Michael Atanasov       : Ab Initio Ligand Field Theory (pilot matlab implementation)
   Alexander A. Auer      : GIAO ZORA, VPT2 properties, NMR spectrum
   Ute Becker             : Parallelization
   Giovanni Bistoni       : ED, misc. LED, open-shell LED, HFLD
   Martin Brehm           : Molecular dynamics
   Dmytro Bykov           : SCF Hessian
   Vijay G. Chilkuri      : MRCI spin determinant printing, contributions to CSF-ICE
   Dipayan Datta          : RHF DLPNO-CCSD density
   Achintya Kumar Dutta   : EOM-CC, STEOM-CC
   Dmitry Ganyushin       : Spin-Orbit,Spin-Spin,Magnetic field MRCI
   Miquel Garcia          : C-PCM and meta-GGA Hessian, CC/C-PCM, Gaussian charge scheme
   Yang Guo               : DLPNO-NEVPT2, F12-NEVPT2, CIM, IAO-localization
   Andreas Hansen         : Spin unrestricted coupled pair/coupled cluster methods
   Benjamin Helmich-Paris : MC-RPA, TRAH-SCF, COSX integrals
   Lee Huntington         : MR-EOM, pCC
   Robert Izsak           : Overlap fitted RIJCOSX, COSX-SCS-MP3, EOM
   Marcus Kettner         : VPT2
   Christian Kollmar      : KDIIS, OOCD, Brueckner-CCSD(T), CCSD density, CASPT2, CASPT2-K
   Simone Kossmann        : Meta GGA functionals, TD-DFT gradient, OOMP2, MP2 Hessian
   Martin Krupicka        : Initial AUTO-CI
   Lucas Lang             : DCDCAS
   Marvin Lechner         : AUTO-CI (C++ implementation), FIC-MRCC
   Dagmar Lenk            : GEPOL surface, SMD
   Dimitrios Liakos       : Extrapolation schemes; Compound Job, initial MDCI parallelization
   Dimitrios Manganas     : Further ROCIS development; embedding schemes
   Dimitrios Pantazis     : SARC Basis sets
   Anastasios Papadopoulos: AUTO-CI, single reference methods and gradients
   Taras Petrenko         : DFT Hessian,TD-DFT gradient, ASA, ECA, R-Raman, ABS, FL, XAS/XES, NRVS
   Peter Pinski           : DLPNO-MP2, DLPNO-MP2 Gradient
   Christoph Reimann      : Effective Core Potentials
   Marius Retegan         : Local ZFS, SOC
   Christoph Riplinger    : Optimizer, TS searches, QM/MM, DLPNO-CCSD(T), (RO)-DLPNO pert. Triples
   Tobias Risthaus        : Range-separated hybrids, TD-DFT gradient, RPA, STAB
   Michael Roemelt        : Original ROCIS implementation
   Masaaki Saitow         : Open-shell DLPNO-CCSD energy and density
   Barbara Sandhoefer     : DKH picture change effects
   Avijit Sen             : IP-ROCIS
   Kantharuban Sivalingam : CASSCF convergence, NEVPT2, FIC-MRCI
   Bernardo de Souza      : ESD, SOC TD-DFT
   Georgi Stoychev        : AutoAux, RI-MP2 NMR, DLPNO-MP2 response
   Willem Van den Heuvel  : Paramagnetic NMR
   Boris Wezisla          : Elementary symmetry handling
   Frank Wennmohs         : Technical directorship


 We gratefully acknowledge several colleagues who have allowed us to
 interface, adapt or use parts of their codes:
   Stefan Grimme, W. Hujo, H. Kruse, P. Pracht,  : VdW corrections, initial TS optimization,
                  C. Bannwarth, S. Ehlert          DFT functionals, gCP, sTDA/sTD-DF
   Ed Valeev, F. Pavosevic, A. Kumar             : LibInt (2-el integral package), F12 methods
   Garnet Chan, S. Sharma, J. Yang, R. Olivares  : DMRG
   Ulf Ekstrom                                   : XCFun DFT Library
   Mihaly Kallay                                 : mrcc  (arbitrary order and MRCC methods)
   Jiri Pittner, Ondrej Demel                    : Mk-CCSD
   Frank Weinhold                                : gennbo (NPA and NBO analysis)
   Christopher J. Cramer and Donald G. Truhlar   : smd solvation model
   Lars Goerigk                                  : TD-DFT with DH, B97 family of functionals
   V. Asgeirsson, H. Jonsson                     : NEB implementation
   FAccTs GmbH                                   : IRC, NEB, NEB-TS, DLPNO-Multilevel, CI-OPT
                                                   MM, QMMM, 2- and 3-layer-ONIOM, Crystal-QMMM,
                                                   LR-CPCM, SF, NACMEs, symmetry and pop. for TD-DFT,
                                                   nearIR, NL-DFT gradient (VV10), updates on ESD,
                                                   ML-optimized integration grids
   S Lehtola, MJT Oliveira, MAL Marques          : LibXC Library
   Liviu Ungur et al                             : ANISO software


 Your calculation uses the libint2 library for the computation of 2-el integrals
 For citations please refer to: http://libint.valeyev.net

 Your ORCA version has been built with support for libXC version: 5.1.0
 For citations please refer to: https://tddft.org/programs/libxc/

 This ORCA versions uses:
   CBLAS   interface :  Fast vector & matrix operations
   LAPACKE interface :  Fast linear algebra routines
   SCALAPACK package :  Parallel linear algebra routines
   Shared memory     :  Shared parallel matrices
   BLAS/LAPACK       :  OpenBLAS 0.3.15  USE64BITINT DYNAMIC_ARCH NO_AFFINITY SkylakeX SINGLE_THREADED
        Core in use  :  SkylakeX
   Copyright (c) 2011-2014, The OpenBLAS Project


Your calculation utilizes the atom-pairwise dispersion correction
with the Becke-Johnson damping scheme (D3BJ)
Cite in your paper:
S.Grimme, S.Ehrlich, L.Goerigk, J Comput Chem, (2011), 32, 1456–1465 
S.Grimme, J.Antony, S.Ehrlich and H.Krieg, J.Chem.Phys., 132, (2010), 154104 
   

================================================================================

----- Orbital basis set information -----
Your calculation utilizes the basis: def2-TZVP
   F. Weigend and R. Ahlrichs, Phys. Chem. Chem. Phys. 7, 3297 (2005).

----- AuxJ basis set information -----
Your calculation utilizes the auxiliary basis: def2/J
   F. Weigend, Phys. Chem. Chem. Phys. 8, 1057 (2006).

================================================================================
                                        WARNINGS
                       Please study these warnings very carefully!
================================================================================

INFO   : Checking CIS options ...

WARNING: CIS/ROCIS methods need fully converged wavefunctions
  ===> : Setting SCFConvForced true
         You can overwrite this default with %scf ConvForced false 


INFO   : the flag for use of the SHARK integral package has been found!

================================================================================
                                       INPUT FILE
================================================================================
NAME = ox_es1_E_orca0000.inp
|  1> ! engrad PBE0 D3BJ def2-TZVP  
|  2> %pal nprocs 8 end
|  3> %maxcore 3000
|  4> 
|  5> %tddft
|  6>   nroots 1
|  7>   tda true
|  8>   Iroot 1
|  9>   end 
| 10> *xyz 0 1 
| 11> O   -0.9549162619797115 0.9847495780422006 -0.031207506539685764
| 12> C   -0.7496650426604363 -0.49679394886319084 -0.04515430197081374
| 13> C   0.7197923794266049 -0.3835178869057127 0.02969649081179378
| 14> H   -1.2508513680854763 -0.6991780249405557 0.9711677653607499
| 15> H   -1.227030635057177 -0.6999282366608344 -0.8753924982456718
| 16> H   1.2760534352974782 -0.7015759021961445 -0.9578682474025333
| 17> H   1.310961489701088 -0.6569575663971532 0.895622416413539
| 18> *
| 19> 
| 20>                          ****END OF INPUT****
================================================================================

                     *******************************
                     * Energy+Gradient Calculation *
                     *******************************

---------------------------------
CARTESIAN COORDINATES (ANGSTROEM)
---------------------------------
  O     -0.954916    0.984750   -0.031208
  C     -0.749665   -0.496794   -0.045154
  C      0.719792   -0.383518    0.029696
  H     -1.250851   -0.699178    0.971168
  H     -1.227031   -0.699928   -0.875392
  H      1.276053   -0.701576   -0.957868
  H      1.310961   -0.656958    0.895622

----------------------------
CARTESIAN COORDINATES (A.U.)
----------------------------
  NO LB      ZA    FRAG     MASS         X           Y           Z
   0 O     8.0000    0    15.999   -1.804530    1.860907   -0.058974
   1 C     6.0000    0    12.011   -1.416662   -0.938805   -0.085329
   2 C     6.0000    0    12.011    1.360210   -0.724744    0.056118
   3 H     1.0000    0     1.008   -2.363767   -1.321255    1.835241
   4 H     1.0000    0     1.008   -2.318752   -1.322673   -1.654252
   5 H     1.0000    0     1.008    2.411392   -1.325786   -1.810109
   6 H     1.0000    0     1.008    2.477358   -1.241470    1.692481

--------------------------------
INTERNAL COORDINATES (ANGSTROEM)
--------------------------------
 O      0   0   0     0.000000000000     0.00000000     0.00000000
 C      1   0   0     1.495758602934     0.00000000     0.00000000
 C      2   1   0     1.475716511637    93.44765673     0.00000000
 H      2   1   3     1.151111459237    96.09442477   114.31244610
 H      2   1   3     0.978997911253    98.42514354   235.92060727
 H      3   2   1     1.177230383372   114.03058033   249.73435838
 H      3   2   1     1.083548745508   124.36312068   110.11920415

---------------------------
INTERNAL COORDINATES (A.U.)
---------------------------
 O      0   0   0     0.000000000000     0.00000000     0.00000000
 C      1   0   0     2.826574122001     0.00000000     0.00000000
 C      2   1   0     2.788700058300    93.44765673     0.00000000
 H      2   1   3     2.175285407577    96.09442477   114.31244610
 H      2   1   3     1.850037937948    98.42514354   235.92060727
 H      3   2   1     2.224643021104   114.03058033   249.73435838
 H      3   2   1     2.047610381764   124.36312068   110.11920415

---------------------
BASIS SET INFORMATION
---------------------
There are 3 groups of distinct atoms

 Group   1 Type O   : 11s6p2d1f contracted to 5s3p2d1f pattern {62111/411/11/1}
 Group   2 Type C   : 11s6p2d1f contracted to 5s3p2d1f pattern {62111/411/11/1}
 Group   3 Type H   : 5s1p contracted to 3s1p pattern {311/1}

Atom   0O    basis set group =>   1
Atom   1C    basis set group =>   2
Atom   2C    basis set group =>   2
Atom   3H    basis set group =>   3
Atom   4H    basis set group =>   3
Atom   5H    basis set group =>   3
Atom   6H    basis set group =>   3
---------------------------------
AUXILIARY/J BASIS SET INFORMATION
---------------------------------
There are 3 groups of distinct atoms

 Group   1 Type O   : 12s5p4d2f1g contracted to 6s4p3d1f1g pattern {711111/2111/211/2/1}
 Group   2 Type C   : 12s5p4d2f1g contracted to 6s4p3d1f1g pattern {711111/2111/211/2/1}
 Group   3 Type H   : 5s2p1d contracted to 3s1p1d pattern {311/2/1}

Atom   0O    basis set group =>   1
Atom   1C    basis set group =>   2
Atom   2C    basis set group =>   2
Atom   3H    basis set group =>   3
Atom   4H    basis set group =>   3
Atom   5H    basis set group =>   3
Atom   6H    basis set group =>   3

Checking for AutoStart:
The File: ox_es1_E_orca0000.gbw exists
Trying to determine its content:
     ... Fine, the file contains calculation information
     ... Fine, the calculation information was read
     ... Fine, the file contains a basis set
     ... Fine, the basis set was read
     ... Fine, the file contains a geometry
     ... Fine, the geometry was read
     ... Fine, the file contains a set of orbitals
     ... Fine, the orbitals can be read
     => possible old guess file was deleted
     => GBW file was renamed to GES file
     => GES file is set as startup file
     => Guess is set to MORead
     ... now leaving AutoStart



           ************************************************************
           *        Program running with 8 parallel MPI-processes     *
           *              working on a common directory               *
           ************************************************************
------------------------------------------------------------------------------
                           ORCA GTO INTEGRAL CALCULATION
                           -- RI-GTO INTEGRALS CHOSEN --
------------------------------------------------------------------------------
------------------------------------------------------------------------------
                   ___                                                        
                  /   \      - P O W E R E D   B Y -                         
                 /     \                                                     
                 |  |  |   _    _      __       _____    __    __             
                 |  |  |  | |  | |    /  \     |  _  \  |  |  /  |          
                  \  \/   | |  | |   /    \    | | | |  |  | /  /          
                 / \  \   | |__| |  /  /\  \   | |_| |  |  |/  /          
                |  |  |   |  __  | /  /__\  \  |    /   |      \           
                |  |  |   | |  | | |   __   |  |    \   |  |\   \          
                \     /   | |  | | |  |  |  |  | |\  \  |  | \   \       
                 \___/    |_|  |_| |__|  |__|  |_| \__\ |__|  \__/        
                                                                              
                      - O R C A' S   B I G   F R I E N D -                    
                                      &                                       
                       - I N T E G R A L  F E E D E R -                       
                                                                              
 v1 FN, 2020, v2 2021                                                         
------------------------------------------------------------------------------


Reading SHARK input file ox_es1_E_orca0000.SHARKINP.tmp ... ok
----------------------
SHARK INTEGRAL PACKAGE
----------------------

Number of atoms                             ...      7
Number of basis functions                   ...    117
Number of shells                            ...     49
Maximum angular momentum                    ...      3
Integral batch strategy                     ... SHARK/LIBINT Hybrid
RI-J (if used) integral strategy            ... SPLIT-RIJ (Revised 2003 algorithm where possible)
Printlevel                                  ...      1
Contraction scheme used                     ... SEGMENTED contraction
Coulomb Range Separation                    ... NOT USED
Exchange Range Separation                   ... NOT USED
Finite Nucleus Model                        ... NOT USED
Auxiliary Coulomb fitting basis             ... AVAILABLE
   # of basis functions in Aux-J            ...    191
   # of shells in Aux-J                     ...     65
   Maximum angular momentum in Aux-J        ...      4
Auxiliary J/K fitting basis                 ... NOT available
Auxiliary Correlation fitting basis         ... NOT available
Auxiliary 'external' fitting basis          ... NOT available
Integral threshold                          ...     2.500000e-11
Primitive cut-off                           ...     2.500000e-12
Primitive pair pre-selection threshold      ...     2.500000e-12

Calculating pre-screening integrals         ... done (  0.0 sec) Dimension = 49
Organizing shell pair data                  ... done (  0.0 sec)
Shell pair information
Total number of shell pairs                 ...      1225
Shell pairs after pre-screening             ...      1213
Total number of primitive shell pairs       ...      3648
Primitive shell pairs kept                  ...      3076
          la=0 lb=0:    367 shell pairs
          la=1 lb=0:    351 shell pairs
          la=1 lb=1:     91 shell pairs
          la=2 lb=0:    161 shell pairs
          la=2 lb=1:     78 shell pairs
          la=2 lb=2:     21 shell pairs
          la=3 lb=0:     81 shell pairs
          la=3 lb=1:     39 shell pairs
          la=3 lb=2:     18 shell pairs
          la=3 lb=3:      6 shell pairs

Calculating one electron integrals          ... done (  0.0 sec)
Calculating RI/J V-Matrix + Cholesky decomp.... done (  0.0 sec)
Calculating Nuclear repulsion               ... done (  0.0 sec) ENN=     67.543334851954 Eh

SHARK setup successfully completed in   0.1 seconds

Maximum memory used throughout the entire GTOINT-calculation: 14.9 MB


           ************************************************************
           *        Program running with 8 parallel MPI-processes     *
           *              working on a common directory               *
           ************************************************************
-------------------------------------------------------------------------------
                                 ORCA SCF
-------------------------------------------------------------------------------

------------
SCF SETTINGS
------------
Hamiltonian:
 Density Functional     Method          .... DFT(GTOs)
 Exchange Functional    Exchange        .... PBE
   PBE kappa parameter   XKappa         ....  0.804000
   PBE mue parameter    XMuePBE         ....  0.219520
 Correlation Functional Correlation     .... PBE
   PBE beta parameter  CBetaPBE         ....  0.066725
 LDA part of GGA corr.  LDAOpt          .... PW91-LDA
 Gradients option       PostSCFGGA      .... off
 Hybrid DFT is turned on
   Fraction HF Exchange ScalHFX         ....  0.250000
   Scaling of DF-GGA-X  ScalDFX         ....  0.750000
   Scaling of DF-GGA-C  ScalDFC         ....  1.000000
   Scaling of DF-LDA-C  ScalLDAC        ....  1.000000
   Perturbative correction              ....  0.000000
   Density functional embedding theory  .... OFF
   NL short-range parameter             ....  6.900000
 RI-approximation to the Coulomb term is turned on
   Number of AuxJ basis functions       .... 191
   RIJ-COSX (HFX calculated with COS-X)).... on


General Settings:
 Integral files         IntName         .... ox_es1_E_orca0000
 Hartree-Fock type      HFTyp           .... RHF
 Total Charge           Charge          ....    0
 Multiplicity           Mult            ....    1
 Number of Electrons    NEL             ....   24
 Basis Dimension        Dim             ....  117
 Nuclear Repulsion      ENuc            ....     67.5433348520 Eh

Convergence Acceleration:
 DIIS                   CNVDIIS         .... on
   Start iteration      DIISMaxIt       ....    12
   Startup error        DIISStart       ....  0.200000
   # of expansion vecs  DIISMaxEq       ....     5
   Bias factor          DIISBfac        ....   1.050
   Max. coefficient     DIISMaxC        ....  10.000
 Trust-Rad. Augm. Hess. CNVTRAH         .... auto
   Auto Start mean grad. ratio tolernc. ....  1.125000
   Auto Start start iteration           ....     1
   Auto Start num. interpolation iter.  ....    10
   Max. Number of Micro iterations      ....    16
   Max. Number of Macro iterations      .... Maxiter - #DIIS iter
   Number of Davidson start vectors     ....     2
   Converg. threshold I  (grad. norm)   ....   1.000e-05
   Converg. threshold II (energy diff.) ....   1.000e-08
   Grad. Scal. Fac. for Micro threshold ....   0.100
   Minimum threshold for Micro iter.    ....   0.010
   NR start threshold (gradient norm)   ....   0.001
   Initial trust radius                 ....   0.400
   Minimum AH scaling param. (alpha)    ....   1.000
   Maximum AH scaling param. (alpha)    .... 1000.000
   Orbital update algorithm             .... Taylor
   White noise on init. David. guess    .... on
   Maximum white noise                  ....   0.010
   Quad. conv. algorithm                .... NR
 SOSCF                  CNVSOSCF        .... on
   Start iteration      SOSCFMaxIt      ....   150
   Startup grad/error   SOSCFStart      ....  0.003300
 Level Shifting         CNVShift        .... on
   Level shift para.    LevelShift      ....    0.2500
   Turn off err/grad.   ShiftErr        ....    0.0010
 Zerner damping         CNVZerner       .... off
 Static damping         CNVDamp         .... on
   Fraction old density DampFac         ....    0.7000
   Max. Damping (<1)    DampMax         ....    0.9800
   Min. Damping (>=0)   DampMin         ....    0.0000
   Turn off err/grad.   DampErr         ....    0.1000
 Fernandez-Rico         CNVRico         .... off

SCF Procedure:
 Maximum # iterations   MaxIter         ....   125
 SCF integral mode      SCFMode         .... Direct
   Integral package                     .... SHARK and LIBINT hybrid scheme
 Reset frequency        DirectResetFreq ....    20
 Integral Threshold     Thresh          ....  2.500e-11 Eh
 Primitive CutOff       TCut            ....  2.500e-12 Eh

Convergence Tolerance:
 Convergence Check Mode ConvCheckMode   .... Total+1el-Energy
 Convergence forced     ConvForced      .... 1
 Energy Change          TolE            ....  1.000e-08 Eh
 1-El. energy change                    ....  1.000e-05 Eh
 Orbital Gradient       TolG            ....  1.000e-05
 Orbital Rotation angle TolX            ....  1.000e-05
 DIIS Error             TolErr          ....  5.000e-07


Diagonalization of the overlap matrix:
Smallest eigenvalue                        ... 5.071e-04
Time for diagonalization                   ...    0.001 sec
Threshold for overlap eigenvalues          ... 1.000e-08
Number of eigenvalues below threshold      ... 0
Time for construction of square roots      ...    0.001 sec
Total time needed                          ...    0.003 sec

---------------------
INITIAL GUESS: MOREAD
---------------------
Guess MOs are being read from file: ox_es1_E_orca0000.ges
Input Geometry matches current geometry (good)
Input basis set matches current basis set (good)
MOs were renormalized
MOs were reorthogonalized (Cholesky)
                      ------------------
                      INITIAL GUESS DONE (   0.0 sec)
                      ------------------
-------------------
DFT GRID GENERATION
-------------------

General Integration Accuracy     IntAcc      ... 4.388
Radial Grid Type                 RadialGrid  ... OptM3 with GC (2021)
Angular Grid (max. ang.)         AngularGrid ... 4 (Lebedev-302)
Angular grid pruning method      GridPruning ... 4 (adaptive)
Weight generation scheme         WeightScheme... Becke
Basis function cutoff            BFCut       ... 1.0000e-11
Integration weight cutoff        WCut        ... 1.0000e-14
Angular grids for H and He will be reduced by one unit
Partially contracted basis set               ... off
Rotationally invariant grid construction     ... off

Total number of grid points                  ...    31328
Total number of batches                      ...      493
Average number of points per batch           ...       63
Average number of grid points per atom       ...     4475
Time for grid setup =    0.125 sec

--------------------
COSX GRID GENERATION
--------------------

GRIDX 1
-------
General Integration Accuracy     IntAcc      ... 3.816
Radial Grid Type                 RadialGrid  ... OptM3 with GC (2021)
Angular Grid (max. ang.)         AngularGrid ... 1 (Lebedev-50)
Angular grid pruning method      GridPruning ... 4 (adaptive)
Weight generation scheme         WeightScheme... Becke
Basis function cutoff            BFCut       ... 1.0000e-11
Integration weight cutoff        WCut        ... 1.0000e-14
Angular grids for H and He will be reduced by one unit
Partially contracted basis set               ... on
Rotationally invariant grid construction     ... off

Total number of grid points                  ...     4038
Total number of batches                      ...       67
Average number of points per batch           ...       60
Average number of grid points per atom       ...      577
UseSFitting                                  ... on

GRIDX 2
-------
General Integration Accuracy     IntAcc      ... 4.020
Radial Grid Type                 RadialGrid  ... OptM3 with GC (2021)
Angular Grid (max. ang.)         AngularGrid ... 2 (Lebedev-110)
Angular grid pruning method      GridPruning ... 4 (adaptive)
Weight generation scheme         WeightScheme... Becke
Basis function cutoff            BFCut       ... 1.0000e-11
Integration weight cutoff        WCut        ... 1.0000e-14
Angular grids for H and He will be reduced by one unit
Partially contracted basis set               ... on
Rotationally invariant grid construction     ... off

Total number of grid points                  ...     8734
Total number of batches                      ...      139
Average number of points per batch           ...       62
Average number of grid points per atom       ...     1248
UseSFitting                                  ... on

GRIDX 3
-------
General Integration Accuracy     IntAcc      ... 4.338
Radial Grid Type                 RadialGrid  ... OptM3 with GC (2021)
Angular Grid (max. ang.)         AngularGrid ... 3 (Lebedev-194)
Angular grid pruning method      GridPruning ... 4 (adaptive)
Weight generation scheme         WeightScheme... Becke
Basis function cutoff            BFCut       ... 1.0000e-11
Integration weight cutoff        WCut        ... 1.0000e-14
Angular grids for H and He will be reduced by one unit
Partially contracted basis set               ... on
Rotationally invariant grid construction     ... off

Total number of grid points                  ...    19287
Total number of batches                      ...      304
Average number of points per batch           ...       63
Average number of grid points per atom       ...     2755
UseSFitting                                  ... on

Time for X-Grid setup             =    0.080 sec

--------------
SCF ITERATIONS
--------------
ITER       Energy         Delta-E        Max-DP      RMS-DP      [F,P]     Damp
               ***  Starting incremental Fock matrix formation  ***
                      *** Initiating the SOSCF procedure ***
                      *** Re-Reading the Fockian *** 
                      *** Removing any level shift *** 
ITER      Energy       Delta-E        Grad      Rot      Max-DP    RMS-DP
  0   -153.53137733 -153.5313773281  0.000002  0.000002  0.000003  0.000000
               *** Restarting incremental Fock matrix formation ***
                  ***Gradient check signals convergence***
              ***Rediagonalizing the Fockian in SOSCF/NRSCF***

               *****************************************************
               *                     SUCCESS                       *
               *           SCF CONVERGED AFTER   1 CYCLES          *
               *****************************************************

Old exchange energy                            =     -4.943920180 Eh
New exchange energy                            =     -4.943927545 Eh
Exchange energy change after final integration =     -0.000007365 Eh
Total energy after final integration           =   -153.531384693 Eh
Final COS-X integration done in                =     0.306 sec

----------------
TOTAL SCF ENERGY
----------------

Total Energy       :         -153.53138469 Eh           -4177.80137 eV

Components:
Nuclear Repulsion  :           67.54333485 Eh            1837.94758 eV
Electronic Energy  :         -221.07471954 Eh           -6015.74895 eV
One Electron Energy:         -341.94513942 Eh           -9304.80029 eV
Two Electron Energy:          120.87041987 Eh            3289.05134 eV
Max COSX asymmetry :            0.00000124 Eh               0.00003 eV

Virial components:
Potential Energy   :         -306.15331522 Eh           -8330.85524 eV
Kinetic Energy     :          152.62193052 Eh            4153.05387 eV
Virial Ratio       :            2.00595887


DFT components:
N(Alpha)           :       11.999999382559 electrons
N(Beta)            :       11.999999382559 electrons
N(Total)           :       23.999998765117 electrons
E(X)               :      -14.850489964538 Eh       
E(C)               :       -0.768817643830 Eh       
E(XC)              :      -15.619307608367 Eh       
DFET-embed. en.    :        0.000000000000 Eh       

---------------
SCF CONVERGENCE
---------------

  Last Energy change         ...   -6.4801e-12  Tolerance :   1.0000e-08
  Last MAX-Density change    ...    1.1102e-15  Tolerance :   1.0000e-07
  Last RMS-Density change    ...    2.0041e-17  Tolerance :   5.0000e-09
  Last Orbital Gradient      ...    9.2850e-07  Tolerance :   1.0000e-05
  Last Orbital Rotation      ...    5.6862e-06  Tolerance :   1.0000e-05

             **** THE GBW FILE WAS UPDATED (ox_es1_E_orca0000.gbw) ****
             **** DENSITY ox_es1_E_orca0000.scfp WAS UPDATED ****
             **** ENERGY FILE WAS UPDATED (ox_es1_E_orca0000.en.tmp) ****
             **** THE GBW FILE WAS UPDATED (ox_es1_E_orca0000.gbw) ****
             **** DENSITY ox_es1_E_orca0000.scfp WAS UPDATED ****
----------------
ORBITAL ENERGIES
----------------

  NO   OCC          E(Eh)            E(eV) 
   0   2.0000     -19.207242      -522.6556 
   1   2.0000     -10.325711      -280.9769 
   2   2.0000     -10.271683      -279.5067 
   3   2.0000      -0.977614       -26.6022 
   4   2.0000      -0.765311       -20.8252 
   5   2.0000      -0.636057       -17.3080 
   6   2.0000      -0.512478       -13.9452 
   7   2.0000      -0.484155       -13.1745 
   8   2.0000      -0.412015       -11.2115 
   9   2.0000      -0.386049       -10.5049 
  10   2.0000      -0.282111        -7.6766 
  11   2.0000      -0.263244        -7.1632 
  12   0.0000      -0.135726        -3.6933 
  13   0.0000       0.048139         1.3099 
  14   0.0000       0.073115         1.9896 
  15   0.0000       0.085825         2.3354 
  16   0.0000       0.107169         2.9162 
  17   0.0000       0.147292         4.0080 
  18   0.0000       0.189981         5.1696 
  19   0.0000       0.190472         5.1830 
  20   0.0000       0.231828         6.3084 
  21   0.0000       0.249248         6.7824 
  22   0.0000       0.267197         7.2708 
  23   0.0000       0.314065         8.5461 
  24   0.0000       0.346281         9.4228 
  25   0.0000       0.368011        10.0141 
  26   0.0000       0.406093        11.0504 
  27   0.0000       0.413626        11.2553 
  28   0.0000       0.426242        11.5986 
  29   0.0000       0.483760        13.1638 
  30   0.0000       0.507717        13.8157 
  31   0.0000       0.541173        14.7261 
  32   0.0000       0.568261        15.4632 
  33   0.0000       0.606546        16.5049 
  34   0.0000       0.676750        18.4153 
  35   0.0000       0.722037        19.6476 
  36   0.0000       0.782230        21.2856 
  37   0.0000       0.859341        23.3839 
  38   0.0000       0.870873        23.6977 
  39   0.0000       0.921907        25.0864 
  40   0.0000       0.927139        25.2287 
  41   0.0000       1.033039        28.1104 
  42   0.0000       1.070483        29.1293 
  43   0.0000       1.075763        29.2730 
  44   0.0000       1.162792        31.6412 
  45   0.0000       1.316315        35.8188 
  46   0.0000       1.400762        38.1167 
  47   0.0000       1.432074        38.9687 
  48   0.0000       1.507379        41.0179 
  49   0.0000       1.525008        41.4976 
  50   0.0000       1.570868        42.7455 
  51   0.0000       1.598219        43.4898 
  52   0.0000       1.619594        44.0714 
  53   0.0000       1.677190        45.6387 
  54   0.0000       1.711926        46.5839 
  55   0.0000       1.753117        47.7048 
  56   0.0000       1.800878        49.0044 
  57   0.0000       1.809703        49.2445 
  58   0.0000       1.878437        51.1149 
  59   0.0000       1.896606        51.6093 
  60   0.0000       2.010676        54.7133 
  61   0.0000       2.045173        55.6520 
  62   0.0000       2.095794        57.0295 
  63   0.0000       2.206976        60.0549 
  64   0.0000       2.324451        63.2515 
  65   0.0000       2.351585        63.9899 
  66   0.0000       2.363047        64.3018 
  67   0.0000       2.414762        65.7090 
  68   0.0000       2.458315        66.8941 
  69   0.0000       2.532860        68.9226 
  70   0.0000       2.533780        68.9477 
  71   0.0000       2.615429        71.1694 
  72   0.0000       2.629968        71.5651 
  73   0.0000       2.655677        72.2647 
  74   0.0000       2.751513        74.8725 
  75   0.0000       2.812362        76.5283 
  76   0.0000       2.880704        78.3879 
  77   0.0000       2.924934        79.5915 
  78   0.0000       2.955112        80.4127 
  79   0.0000       2.964857        80.6779 
  80   0.0000       3.047651        82.9308 
  81   0.0000       3.084093        83.9224 
  82   0.0000       3.093660        84.1828 
  83   0.0000       3.140566        85.4591 
  84   0.0000       3.163515        86.0836 
  85   0.0000       3.196441        86.9796 
  86   0.0000       3.316916        90.2579 
  87   0.0000       3.333360        90.7053 
  88   0.0000       3.415730        92.9467 
  89   0.0000       3.461583        94.1945 
  90   0.0000       3.530861        96.0796 
  91   0.0000       3.647581        99.2557 
  92   0.0000       3.713632       101.0531 
  93   0.0000       3.815212       103.8172 
  94   0.0000       3.970831       108.0518 
  95   0.0000       4.076302       110.9218 
  96   0.0000       4.097092       111.4875 
  97   0.0000       4.274519       116.3156 
  98   0.0000       4.343718       118.1986 
  99   0.0000       4.522182       123.0548 
 100   0.0000       4.562258       124.1454 
 101   0.0000       4.735879       128.8698 
 102   0.0000       5.201438       141.5383 
 103   0.0000       5.243106       142.6722 
 104   0.0000       5.331719       145.0834 
 105   0.0000       5.346919       145.4971 
 106   0.0000       5.643563       153.5692 
 107   0.0000       5.675971       154.4510 
 108   0.0000       5.847358       159.1147 
 109   0.0000       6.353594       172.8901 
 110   0.0000       6.404112       174.2647 
 111   0.0000       6.744967       183.5399 
 112   0.0000       6.753932       183.7838 
 113   0.0000       6.983541       190.0318 
 114   0.0000      21.975490       597.9835 
 115   0.0000      22.395753       609.4194 
 116   0.0000      43.688766      1188.8318 

                    ********************************
                    * MULLIKEN POPULATION ANALYSIS *
                    ********************************

-----------------------
MULLIKEN ATOMIC CHARGES
-----------------------
   0 O :   -0.383853
   1 C :   -0.048568
   2 C :   -0.147540
   3 H :    0.121537
   4 H :    0.134895
   5 H :    0.154907
   6 H :    0.168622
Sum of atomic charges:   -0.0000000

--------------------------------
MULLIKEN REDUCED ORBITAL CHARGES
--------------------------------
  0 O s       :     3.924921  s :     3.924921
      pz      :     1.934390  p :     4.438093
      px      :     1.217384
      py      :     1.286319
      dz2     :     0.002864  d :     0.019828
      dxz     :     0.000177
      dyz     :     0.004203
      dx2y2   :     0.007597
      dxy     :     0.004988
      f0      :     0.000115  f :     0.001011
      f+1     :     0.000056
      f-1     :     0.000252
      f+2     :     0.000118
      f-2     :     0.000020
      f+3     :     0.000201
      f-3     :     0.000248
  1 C s       :     3.188884  s :     3.188884
      pz      :     1.071691  p :     2.709566
      px      :     0.903270
      py      :     0.734605
      dz2     :     0.013153  d :     0.141316
      dxz     :     0.017742
      dyz     :     0.040069
      dx2y2   :     0.021636
      dxy     :     0.048715
      f0      :     0.001631  f :     0.008802
      f+1     :     0.001170
      f-1     :     0.000648
      f+2     :     0.002318
      f-2     :     0.000191
      f+3     :     0.002260
      f-3     :     0.000583
  2 C s       :     3.305666  s :     3.305666
      pz      :     1.042310  p :     2.785971
      px      :     0.994478
      py      :     0.749184
      dz2     :     0.004788  d :     0.051412
      dxz     :     0.022619
      dyz     :     0.005087
      dx2y2   :     0.005296
      dxy     :     0.013622
      f0      :     0.000432  f :     0.004492
      f+1     :     0.000981
      f-1     :     0.000133
      f+2     :     0.000710
      f-2     :     0.000293
      f+3     :     0.000775
      f-3     :     0.001167
  3 H s       :     0.859187  s :     0.859187
      pz      :     0.010423  p :     0.019276
      px      :     0.004980
      py      :     0.003873
  4 H s       :     0.840438  s :     0.840438
      pz      :     0.011095  p :     0.024667
      px      :     0.007325
      py      :     0.006246
  5 H s       :     0.825568  s :     0.825568
      pz      :     0.009915  p :     0.019525
      px      :     0.005722
      py      :     0.003888
  6 H s       :     0.808317  s :     0.808317
      pz      :     0.010409  p :     0.023061
      px      :     0.007840
      py      :     0.004811


                     *******************************
                     * LOEWDIN POPULATION ANALYSIS *
                     *******************************

----------------------
LOEWDIN ATOMIC CHARGES
----------------------
   0 O :   -0.101006
   1 C :   -0.370763
   2 C :   -0.038413
   3 H :    0.138623
   4 H :    0.090620
   5 H :    0.153244
   6 H :    0.127694

-------------------------------
LOEWDIN REDUCED ORBITAL CHARGES
-------------------------------
  0 O s       :     3.620804  s :     3.620804
      pz      :     1.871883  p :     4.433859
      px      :     1.179016
      py      :     1.382960
      dz2     :     0.006036  d :     0.043686
      dxz     :     0.000171
      dyz     :     0.010728
      dx2y2   :     0.015540
      dxy     :     0.011211
      f0      :     0.000259  f :     0.002656
      f+1     :     0.000080
      f-1     :     0.000459
      f+2     :     0.000492
      f-2     :     0.000023
      f+3     :     0.000726
      f-3     :     0.000617
  1 C s       :     2.834831  s :     2.834831
      pz      :     1.066565  p :     2.943437
      px      :     1.046312
      py      :     0.830560
      dz2     :     0.070041  d :     0.532345
      dxz     :     0.092969
      dyz     :     0.103046
      dx2y2   :     0.119164
      dxy     :     0.147125
      f0      :     0.009363  f :     0.060150
      f+1     :     0.005949
      f-1     :     0.006142
      f+2     :     0.012242
      f-2     :     0.001878
      f+3     :     0.015515
      f-3     :     0.009061
  2 C s       :     2.926376  s :     2.926376
      pz      :     1.074869  p :     2.866368
      px      :     1.103149
      py      :     0.688350
      dz2     :     0.027037  d :     0.222851
      dxz     :     0.104877
      dyz     :     0.013563
      dx2y2   :     0.036156
      dxy     :     0.041218
      f0      :     0.002752  f :     0.022818
      f+1     :     0.003008
      f-1     :     0.001166
      f+2     :     0.003852
      f-2     :     0.002353
      f+3     :     0.004254
      f-3     :     0.005433
  3 H s       :     0.809497  s :     0.809497
      pz      :     0.028858  p :     0.051880
      px      :     0.013046
      py      :     0.009976
  4 H s       :     0.827630  s :     0.827630
      pz      :     0.038451  p :     0.081749
      px      :     0.023885
      py      :     0.019413
  5 H s       :     0.794016  s :     0.794016
      pz      :     0.028271  p :     0.052740
      px      :     0.014200
      py      :     0.010269
  6 H s       :     0.804318  s :     0.804318
      pz      :     0.032874  p :     0.067988
      px      :     0.021312
      py      :     0.013802


                      *****************************
                      * MAYER POPULATION ANALYSIS *
                      *****************************

  NA   - Mulliken gross atomic population
  ZA   - Total nuclear charge
  QA   - Mulliken gross atomic charge
  VA   - Mayer's total valence
  BVA  - Mayer's bonded valence
  FA   - Mayer's free valence

  ATOM       NA         ZA         QA         VA         BVA        FA
  0 O      8.3839     8.0000    -0.3839     1.7918     1.7918    -0.0000
  1 C      6.0486     6.0000    -0.0486     3.9923     3.9923    -0.0000
  2 C      6.1475     6.0000    -0.1475     3.8187     3.8187    -0.0000
  3 H      0.8785     1.0000     0.1215     0.9718     0.9718    -0.0000
  4 H      0.8651     1.0000     0.1349     0.9774     0.9774     0.0000
  5 H      0.8451     1.0000     0.1549     0.9602     0.9602    -0.0000
  6 H      0.8314     1.0000     0.1686     0.9563     0.9563    -0.0000

  Mayer bond orders larger than 0.100000
B(  0-O ,  1-C ) :   0.9375 B(  0-O ,  2-C ) :   0.8451 B(  1-C ,  2-C ) :   1.0970 
B(  1-C ,  3-H ) :   0.9650 B(  1-C ,  4-H ) :   0.9782 B(  2-C ,  5-H ) :   0.9419 
B(  2-C ,  6-H ) :   0.9383 

-------
TIMINGS
-------

Total SCF time: 0 days 0 hours 0 min 1 sec 

Total time                  ....       1.141 sec
Sum of individual times     ....       1.035 sec  ( 90.7%)

Fock matrix formation       ....       0.814 sec  ( 71.3%)
  Split-RI-J                ....       0.130 sec  ( 16.0% of F)
  Chain of spheres X        ....       0.603 sec  ( 74.1% of F)
  XC integration            ....       0.072 sec  (  8.9% of F)
    Basis function eval.    ....       0.021 sec  ( 29.1% of XC)
    Density eval.           ....       0.016 sec  ( 22.1% of XC)
    XC-Functional eval.     ....       0.004 sec  (  5.9% of XC)
    XC-Potential eval.      ....       0.025 sec  ( 34.0% of XC)
Diagonalization             ....       0.003 sec  (  0.2%)
Density matrix formation    ....       0.000 sec  (  0.0%)
Population analysis         ....       0.003 sec  (  0.3%)
Initial guess               ....       0.006 sec  (  0.5%)
Orbital Transformation      ....       0.000 sec  (  0.0%)
Orbital Orthonormalization  ....       0.001 sec  (  0.1%)
DIIS solution               ....       0.001 sec  (  0.1%)
SOSCF solution              ....       0.003 sec  (  0.2%)
Grid generation             ....       0.205 sec  ( 18.0%)

Maximum memory used throughout the entire SCF-calculation: 61.1 MB


           ************************************************************
           *        Program running with 8 parallel MPI-processes     *
           *              working on a common directory               *
           ************************************************************
------------------------------------------------------------------------------
                        ORCA TD-DFT/TDA CALCULATION
------------------------------------------------------------------------------

Input orbitals are from        ... ox_es1_E_orca0000.gbw
CI-vector output               ... ox_es1_E_orca0000.cis
Tamm-Dancoff approximation     ... operative
CIS-Integral strategy          ... AO-integrals
Integral handling              ... AO integral Direct
Max. core memory used          ... 3000 MB
Reference state                ... RHF
Generation of triplets         ... off
Follow IRoot                   ... off
Number of operators            ... 1
Orbital ranges used for CIS calculation:
 Operator 0:  Orbitals   3... 11  to  12...116
XAS localization array:
 Operator 0:  Orbitals  -1... -1

-------------------
XC-INTEGRATION GRID
-------------------

General Integration Accuracy     IntAcc      ... 3.467
Radial Grid Type                 RadialGrid  ... OptM3 with GC (2021)
Angular Grid (max. ang.)         AngularGrid ... 1 (Lebedev-50)
Angular grid pruning method      GridPruning ... 4 (adaptive)
Weight generation scheme         WeightScheme... Becke
Basis function cutoff            BFCut       ... 1.0000e-11
Integration weight cutoff        WCut        ... 1.0000e-14
Angular grids for H and He will be reduced by one unit
Partially contracted basis set               ... off
Rotationally invariant grid construction     ... off

Total number of grid points                  ...     4545
Total number of batches                      ...       75
Average number of points per batch           ...       60
Average number of grid points per atom       ...      649

---------------------
COSX-INTEGRATION GRID
---------------------

General Integration Accuracy     IntAcc      ... 3.067
Radial Grid Type                 RadialGrid  ... OptM3 with GC (2021)
Angular Grid (max. ang.)         AngularGrid ... 1 (Lebedev-50)
Angular grid pruning method      GridPruning ... 4 (adaptive)
Weight generation scheme         WeightScheme... Becke
Basis function cutoff            BFCut       ... 1.0000e-11
Integration weight cutoff        WCut        ... 1.0000e-14
Angular grids for H and He will be reduced by one unit
Partially contracted basis set               ... on
Rotationally invariant grid construction     ... off

Total number of grid points                  ...     2088
Total number of batches                      ...       37
Average number of points per batch           ...       56
Average number of grid points per atom       ...      298

---------------
TD-DFT XC SETUP
---------------

DFT calculation                         ... on
Name of the grid file                   ... ox_es1_E_orca0000.grid_cis.tmp
Exchange functional (TD-DFT)            ... PBE
   PBE kappa parameter  XKappa (TD-DFT) ...  0.804000
   PBE mue parameter   XMuePBE (TD-DFT) ...  0.219520
Correlation functional (TD-DFT)         ... PBE
   PBE beta parameter CBetaPBE (TD-DFT) ...  0.066725
 LDA part of GGA corr.  LDAOpt (TD-DFT) ... PW91-LDA
Hybrid DFT                              ... on
   Exchange mixing (TD-DFT)             ...  0.250
   GGA exch. scaling (TD-DFT)           ...  0.750
   GGA corr. scaling (TD-DFT)           ...  1.000

Building densities             ... done
Calculating rho(r) on the grid ... done
Building xc-kernel on the grid ... done
                    *** TD-DFT CALCULATION INITIALIZED ***

------------------------
DAVIDSON-DIAGONALIZATION
------------------------

Dimension of the eigenvalue problem            ...    945
Number of roots to be determined               ...      1
Maximum size of the expansion space            ...     10
Maximum number of iterations                   ...    100
Convergence tolerance for the residual         ...    2.500e-07
Convergence tolerance for the energies         ...    2.500e-07
Orthogonality tolerance                        ...    1.000e-14
Level Shift                                    ...    0.000e+00
Constructing the preconditioner                ... o.k.
Building the initial guess                     ... o.k.
Number of trial vectors determined             ...     10


                       ****Iteration    0****

   Memory handling for direct AO based CIS:
   Memory per vector needed      ...     1 MB
   Memory needed                 ...     1 MB
   Memory available              ...  3000 MB
   Number of vectors per batch   ...  3000
   Number of batches             ...     1
   Time for densities:            0.001
   Time for RI-J (Direct):        0.016
   Time for K (COSX):             0.060
   Time for XC-Integration:       0.016
   Time for Sigma-Completion:     0.000
   Size of expansion space: 3
   Lowest Energy          :     0.044772392594
   Maximum Energy change  :     0.044772392594 (vector 0)
   Maximum residual norm  :     0.002797691304

                       ****Iteration    1****
   Time for densities:            0.000
   Time for RI-J (Direct):        0.013
   Time for K (COSX):             0.062
   Time for XC-Integration:       0.007
   Time for Sigma-Completion:     0.000
   Size of expansion space: 4
   Lowest Energy          :     0.042806767705
   Maximum Energy change  :     0.001965624889 (vector 0)
   Maximum residual norm  :     0.000048594725

                       ****Iteration    2****
   Time for densities:            0.000
   Time for RI-J (Direct):        0.014
   Time for K (COSX):             0.056
   Time for XC-Integration:       0.007
   Time for Sigma-Completion:     0.000
   Size of expansion space: 5
   Lowest Energy          :     0.042772047672
   Maximum Energy change  :     0.000034720033 (vector 0)
   Maximum residual norm  :     0.000002294783

                       ****Iteration    3****
   Time for densities:            0.000
   Time for RI-J (Direct):        0.014
   Time for K (COSX):             0.057
   Time for XC-Integration:       0.007
   Time for Sigma-Completion:     0.000
   Size of expansion space: 6
   Lowest Energy          :     0.042770100798
   Maximum Energy change  :     0.000001946874 (vector 0)
   Maximum residual norm  :     0.000000142403

      *** CONVERGENCE OF RESIDUAL NORM REACHED ***

Storing the converged CI vectors               ... ox_es1_E_orca0000.cis1

                 *** DAVIDSON DONE ***

Total time for solving the CIS problem:     0.335sec

------------------------------------
TD-DFT/TDA EXCITED STATES (SINGLETS)
------------------------------------

the weight of the individual excitations are printed if larger than 1.0e-02

STATE  1:  E=   0.042770 au      1.164 eV     9387.0 cm**-1 <S**2> =   0.000000
    10a ->  12a  :     0.026974 (c=  0.16423833)
    11a ->  12a  :     0.968721 (c= -0.98423618)


-----------------------------
TD-DFT/TDA-EXCITATION SPECTRA
-----------------------------

Center of mass = ( -0.6660,  0.1030, -0.0279)
Calculating the Dipole integrals                  ... done
Transforming integrals                            ... done
Calculating the Linear Momentum integrals         ... done
Transforming integrals                            ... done
Calculating angular momentum integrals            ... done
Transforming integrals                            ... done

-----------------------------------------------------------------------------
         ABSORPTION SPECTRUM VIA TRANSITION ELECTRIC DIPOLE MOMENTS
-----------------------------------------------------------------------------
State   Energy    Wavelength  fosc         T2        TX        TY        TZ  
        (cm-1)      (nm)                 (au**2)    (au)      (au)      (au) 
-----------------------------------------------------------------------------
   1    9387.0   1065.3   0.000123508   0.00433   0.01977  -0.01208  -0.06160

-----------------------------------------------------------------------------
         ABSORPTION SPECTRUM VIA TRANSITION VELOCITY DIPOLE MOMENTS
-----------------------------------------------------------------------------
State   Energy    Wavelength   fosc        P2         PX        PY        PZ  
        (cm-1)      (nm)                 (au**2)     (au)      (au)      (au) 
-----------------------------------------------------------------------------
   1    9387.0   1065.3   0.011485622   0.00074   0.00495  -0.00716   0.02571

-------------------------------------------------------------------
                             CD SPECTRUM
-------------------------------------------------------------------
State  Energy     Wavelength     R         MX        MY        MZ   
       (cm-1)       (nm)     (1e40*cgs)   (au)      (au)      (au)  
-------------------------------------------------------------------
   1    9387.0   1065.3     -1.67279   0.03548   0.30268   0.00961

-------------------------------------------------------------------
         CD SPECTRUM VIA TRANSITION VELOCITY DIPOLE MOMENTS        
-------------------------------------------------------------------
State  Energy     Wavelength     R         MX        MY        MZ   
       (cm-1)       (nm)     (1e40*cgs)   (au)      (au)      (au)  
-------------------------------------------------------------------
   1    9387.0   1065.3    -19.21431   0.03548   0.30268   0.00961

Total run time:        0.643 sec

           *** ORCA-CIS/TD-DFT FINISHED WITHOUT ERROR ***

Maximum memory used throughout the entire CIS-calculation: 49.4 MB

-----------------------
CIS/TD-DFT TOTAL ENERGY
-----------------------

    E(SCF)  =   -153.531384693 Eh
    DE(CIS) =      0.042770101 Eh (Root  1)
    ----------------------------- ---------
    E(tot)  =   -153.488614592 Eh



-------------------------------------------------------------------------------
                          DFT DISPERSION CORRECTION                            
                                                                               
                              DFTD3 V3.1  Rev 1                                
                          USING Becke-Johnson damping                          
-------------------------------------------------------------------------------
The PBE0 functional is recognized
Active option DFTDOPT                   ...         4   

molecular C6(AA) [au] = 394.861073 


            DFT-D V3
 parameters
 s6 scaling factor         :     1.0000 
 a1 scaling factor         :     0.4145 
 s8 scaling factor         :     1.2177 
 a2 scaling factor         :     4.8593 
 ad hoc parameters k1-k3   :    16.0000     1.3333    -4.0000 

 Edisp/kcal,au: -1.646002171677  -0.002623071147 
 E6   /kcal   :  -1.073904353 
 E8   /kcal   :  -0.572097819 
 % E8         :  34.756808270 

-------------------------   ----------------
Dispersion correction           -0.002623071
-------------------------   ----------------


-------------------------   --------------------
FINAL SINGLE POINT ENERGY      -153.491237663043
-------------------------   --------------------



           ************************************************************
           *        Program running with 8 parallel MPI-processes     *
           *              working on a common directory               *
           ************************************************************
------------------------------------------------------------------------------
                         ORCA SCF GRADIENT CALCULATION
------------------------------------------------------------------------------


------------------------
TD-DFT GRADIENT XC SETUP
------------------------

Building densities                     ... done
Calculating rho(r) on the grid         ... done
Building xc-kernel on the grid         ... done
Building xc 3rd derivative on the grid      ... done
                *** TD-DFT GRADIENT CALCULATION INITIALIZED ***

-------------------
TD-DFT/TDA GRADIENT
-------------------

Reference wavefunction             ... RHF
State of interest                  ... 1
Basis dimension                    ... 117
DFT-XC contribution needed         ... YES
RI-approximation                   ... ON
CIS-vectors being read from        ... ox_es1_E_orca0000.cis

 => Number of Vectors found: 1
 => Orbital Window: 3...11 -> 12...116

Reading the CIS file                     ... done
Norm of the CI vector                    ... 1.000000000
Making the CIS (pseudo)densities         ... done
Making operators G(D) and Q(T)           ... done
Transforming the Fock operators          ... done
Making the frozen-core relaxed density   ... done
Constructing the G(H) operator           ... done
Transforming the G(H) operator           ... done
Calculating the CIS Lagrangian           ... done
Solving the Z-vector equations           ... done
Finalizing the relaxed density           ... done
Storing the relaxed density              ... done
Constructing the G(Z) operator           ... done
Transforming the G(Z) operator           ... done
Making the W-matrix                      ... done
Finalizing the W-matrix                  ... done
Transforming the W-matrix                ... done
Nuclear repulsion gradient               ... done
One-Electron gradient                    ... done
Dispersion correction                    ... done
Prescreening matrices                    ... done
COSX-gradient                            ... done
Coulomb gradient (RI)                    ... done
Exchange-Correlation gradient            ... done

                 ---------------------------
                 EXCITED STATE GRADIENT DONE
                 ---------------------------

------------------
CARTESIAN GRADIENT
------------------

   1   O   :    0.006868386    0.021913533   -0.000898959
   2   C   :   -0.065163441   -0.108024859   -0.121938724
   3   C   :   -0.010884360    0.065792157    0.055593873
   4   H   :   -0.005413646    0.010493472    0.029213986
   5   H   :    0.049817211    0.044580373    0.081213623
   6   H   :    0.018882999   -0.024229397   -0.035652136
   7   H   :    0.005881952   -0.010597215   -0.007543817

Difference to translation invariance:
           :   -0.0000108985   -0.0000719367   -0.0000121552

Difference to rotation invariance:
           :    0.0000761694    0.0000155237   -0.0006417663

Norm of the cartesian gradient     ...    0.2309260623
RMS gradient                       ...    0.0503921981
MAX gradient                       ...    0.1219387240

------------------------------------------------------------------------------
                  RELAXED CIS/TDA DENSITY POPULATION ANALYSIS
                                   IROOT 1
------------------------------------------------------------------------------
------------------------------------------------------------------------------
                           ORCA POPULATION ANALYSIS
------------------------------------------------------------------------------
Input electron density              ... ox_es1_E_orca0000.cisp
BaseName (.gbw .S,...)              ... ox_es1_E_orca0000

                    ********************************
                    * MULLIKEN POPULATION ANALYSIS *
                    ********************************

-----------------------
MULLIKEN ATOMIC CHARGES
-----------------------
   0 O :   -0.253434
   1 C :   -0.083037
   2 C :   -0.248487
   3 H :    0.157547
   4 H :    0.154913
   5 H :    0.126353
   6 H :    0.146145
Sum of atomic charges:   -0.0000000

--------------------------------
MULLIKEN REDUCED ORBITAL CHARGES
--------------------------------
  0 O s       :     3.913064  s :     3.913064
      pz      :     1.069266  p :     4.320456
      px      :     1.930632
      py      :     1.320559
      dz2     :     0.002469  d :     0.019200
      dxz     :     0.000169
      dyz     :     0.004789
      dx2y2   :     0.007502
      dxy     :     0.004272
      f0      :    -0.000001  f :     0.000714
      f+1     :    -0.000022
      f-1     :     0.000053
      f+2     :     0.000137
      f-2     :     0.000007
      f+3     :     0.000201
      f-3     :     0.000339
  1 C s       :     3.197795  s :     3.197795
      pz      :     1.041116  p :     2.749223
      px      :     0.967227
      py      :     0.740880
      dz2     :     0.011801  d :     0.127299
      dxz     :     0.021504
      dyz     :     0.018992
      dx2y2   :     0.023688
      dxy     :     0.051315
      f0      :     0.000878  f :     0.008720
      f+1     :     0.001266
      f-1     :     0.000487
      f+2     :     0.001292
      f-2     :     0.000115
      f+3     :     0.002628
      f-3     :     0.002054
  2 C s       :     3.320092  s :     3.320092
      pz      :     1.020836  p :     2.878160
      px      :     0.937793
      py      :     0.919530
      dz2     :     0.004297  d :     0.045886
      dxz     :     0.015999
      dyz     :     0.003647
      dx2y2   :     0.006333
      dxy     :     0.015609
      f0      :     0.000395  f :     0.004350
      f+1     :     0.000873
      f-1     :     0.000221
      f+2     :     0.000684
      f-2     :     0.000200
      f+3     :     0.000886
      f-3     :     0.001090
  3 H s       :     0.822781  s :     0.822781
      pz      :     0.010658  p :     0.019672
      px      :     0.005235
      py      :     0.003779
  4 H s       :     0.820118  s :     0.820118
      pz      :     0.011392  p :     0.024969
      px      :     0.007530
      py      :     0.006046
  5 H s       :     0.853900  s :     0.853900
      pz      :     0.009221  p :     0.019746
      px      :     0.005472
      py      :     0.005053
  6 H s       :     0.830305  s :     0.830305
      pz      :     0.009792  p :     0.023549
      px      :     0.007468
      py      :     0.006290


                     *******************************
                     * LOEWDIN POPULATION ANALYSIS *
                     *******************************

----------------------
LOEWDIN ATOMIC CHARGES
----------------------
   0 O :    0.003328
   1 C :   -0.341120
   2 C :   -0.188704
   3 H :    0.172306
   4 H :    0.105831
   5 H :    0.135014
   6 H :    0.113345

-------------------------------
LOEWDIN REDUCED ORBITAL CHARGES
-------------------------------
  0 O s       :     3.629088  s :     3.629088
      pz      :     1.045581  p :     4.320736
      px      :     1.864973
      py      :     1.410181
      dz2     :     0.006218  d :     0.044440
      dxz     :     0.000213
      dyz     :     0.010248
      dx2y2   :     0.015305
      dxy     :     0.012456
      f0      :     0.000261  f :     0.002409
      f+1     :     0.000032
      f-1     :     0.000272
      f+2     :     0.000387
      f-2     :     0.000026
      f+3     :     0.000701
      f-3     :     0.000729
  1 C s       :     2.838808  s :     2.838808
      pz      :     1.027478  p :     2.944422
      px      :     1.084162
      py      :     0.832782
      dz2     :     0.068519  d :     0.493232
      dxz     :     0.098070
      dyz     :     0.050253
      dx2y2   :     0.138413
      dxy     :     0.137978
      f0      :     0.005959  f :     0.064658
      f+1     :     0.005919
      f-1     :     0.005990
      f+2     :     0.007993
      f-2     :     0.001274
      f+3     :     0.017983
      f-3     :     0.019541
  2 C s       :     2.942849  s :     2.942849
      pz      :     1.065576  p :     2.993583
      px      :     1.074578
      py      :     0.853429
      dz2     :     0.028757  d :     0.228550
      dxz     :     0.096422
      dyz     :     0.010996
      dx2y2   :     0.036409
      dxy     :     0.055966
      f0      :     0.002665  f :     0.023722
      f+1     :     0.003549
      f-1     :     0.001572
      f+2     :     0.003628
      f-2     :     0.002068
      f+3     :     0.004653
      f-3     :     0.005588
  3 H s       :     0.775255  s :     0.775255
      pz      :     0.029096  p :     0.052438
      px      :     0.013668
      py      :     0.009674
  4 H s       :     0.811954  s :     0.811954
      pz      :     0.038848  p :     0.082216
      px      :     0.024269
      py      :     0.019099
  5 H s       :     0.811278  s :     0.811278
      pz      :     0.026223  p :     0.053707
      px      :     0.013564
      py      :     0.013920
  6 H s       :     0.816803  s :     0.816803
      pz      :     0.030853  p :     0.069853
      px      :     0.020353
      py      :     0.018647


                      *****************************
                      * MAYER POPULATION ANALYSIS *
                      *****************************

  NA   - Mulliken gross atomic population
  ZA   - Total nuclear charge
  QA   - Mulliken gross atomic charge
  VA   - Mayer's total valence
  BVA  - Mayer's bonded valence
  FA   - Mayer's free valence

  ATOM       NA         ZA         QA         VA         BVA        FA
  0 O      8.2534     8.0000    -0.2534     1.8551     1.1121     0.7429
  1 C      6.0830     6.0000    -0.0830     4.0427     3.9722     0.0705
  2 C      6.2485     6.0000    -0.2485     3.8577     3.1107     0.7470
  3 H      0.8425     1.0000     0.1575     0.9625     0.9095     0.0531
  4 H      0.8451     1.0000     0.1549     0.9660     0.9422     0.0238
  5 H      0.8736     1.0000     0.1264     0.9709     0.9599     0.0110
  6 H      0.8539     1.0000     0.1461     0.9669     0.9550     0.0119

  Mayer bond orders larger than 0.100000
B(  0-O ,  1-C ) :   0.9964 B(  1-C ,  2-C ) :   1.1275 B(  1-C ,  3-H ) :   0.8933 
B(  1-C ,  4-H ) :   0.9427 B(  2-C ,  5-H ) :   0.9470 B(  2-C ,  6-H ) :   0.9431 



-------
TIMINGS
-------

Total TD-DFT gradient time         ...        5.961 sec

Fock matrix formation       ....       0.937 sec  ( 15.7%)
  Coulomb formation         ....       0.764 sec  ( 81.5% of F)
  RI-J                      ....       0.319 sec  ( 34.1% of F)
  Chain of spheres X        ....       0.444 sec  ( 47.4% of F)
  XC integration            ....       0.173 sec  ( 18.5% of F)
Z-vector equation           ....       2.023 sec  ( 33.9%)
One electron gradient       ....       0.037 sec  (  0.6%)
Prescreening matrices       ....       0.175 sec  (  2.9%)
RI-J Coulomb gradient       ....       0.284 sec  (  4.8%)
COSX gradient               ....       0.397 sec  (  6.7%)
XC gradient                 ....       1.773 sec  ( 29.7%)

Maximum memory used throughout the entire SCFGRAD-calculation: 130.2 MB

                            ***************************************
                            *     ORCA property calculations      *
                            ***************************************

                                    ---------------------
                                    Active property flags
                                    ---------------------
   (+) Dipole Moment


------------------------------------------------------------------------------
                       ORCA ELECTRIC PROPERTIES CALCULATION
------------------------------------------------------------------------------

Dipole Moment Calculation                       ... on
Quadrupole Moment Calculation                   ... off
Polarizability Calculation                      ... off
GBWName                                         ... ox_es1_E_orca0000.gbw
Electron density                                ... ox_es1_E_orca0000.scfp
The origin for moment calculation is the CENTER OF MASS  = (-0.666035,  0.103033 -0.027932)

-------------
DIPOLE MOMENT
-------------
                                X             Y             Z
Electronic contribution:     -0.74365       1.53020      -0.08510
Nuclear contribution   :      1.41612      -2.77800       0.08668
                        -----------------------------------------
Total Dipole Moment    :      0.67247      -1.24780       0.00158
                        -----------------------------------------
Magnitude (a.u.)       :      1.41747
Magnitude (Debye)      :      3.60292



--------------------
Rotational spectrum 
--------------------
 
Rotational constants in cm-1:     1.100972     0.398967     0.333077 
Rotational constants in MHz : 33006.312470 11960.722615  9985.401294 

 Dipole components along the rotational axes: 
x,y,z [a.u.] :    -1.297665    -0.570204    -0.012445 
x,y,z [Debye]:    -3.298402    -1.449343    -0.031633 

 

                        *** CIS RELAXED DENSITY ***

------------------------------------------------------------------------------
                       ORCA ELECTRIC PROPERTIES CALCULATION
------------------------------------------------------------------------------

Dipole Moment Calculation                       ... on
Quadrupole Moment Calculation                   ... off
Polarizability Calculation                      ... off
GBWName                                         ... ox_es1_E_orca0000.gbw
Electron density                                ... ox_es1_E_orca0000.cisp
The origin for moment calculation is the CENTER OF MASS  = (-0.666035,  0.103033 -0.027932)

-------------
DIPOLE MOMENT
-------------
                                X             Y             Z
Electronic contribution:     -1.31093       1.78829      -0.05951
Nuclear contribution   :      1.41612      -2.77800       0.08668
                        -----------------------------------------
Total Dipole Moment    :      0.10519      -0.98971       0.02718
                        -----------------------------------------
Magnitude (a.u.)       :      0.99566
Magnitude (Debye)      :      2.53077



--------------------
Rotational spectrum 
--------------------
 
Rotational constants in cm-1:     1.100972     0.398967     0.333077 
Rotational constants in MHz : 33006.312470 11960.722615  9985.401294 

 Dipole components along the rotational axes: 
x,y,z [a.u.] :    -0.692383    -0.714889     0.029637 
x,y,z [Debye]:    -1.759897    -1.817103     0.075331 

 

Timings for individual modules:

Sum of individual times         ...        8.546 sec (=   0.142 min)
GTO integral calculation        ...        0.260 sec (=   0.004 min)   3.0 %
SCF iterations                  ...        1.304 sec (=   0.022 min)  15.3 %
CIS module                      ...        0.859 sec (=   0.014 min)  10.0 %
SCF Gradient evaluation         ...        6.122 sec (=   0.102 min)  71.6 %
                             ****ORCA TERMINATED NORMALLY****
TOTAL RUN TIME: 0 days 0 hours 0 minutes 8 seconds 899 msec
