
                                 *****************
                                 * O   R   C   A *
                                 *****************

                                            #,                                       
                                            ###                                      
                                            ####                                     
                                            #####                                    
                                            ######                                   
                                           ########,                                 
                                     ,,################,,,,,                         
                               ,,#################################,,                 
                          ,,##########################################,,             
                       ,#########################################, ''#####,          
                    ,#############################################,,   '####,        
                  ,##################################################,,,,####,       
                ,###########''''           ''''###############################       
              ,#####''   ,,,,##########,,,,          '''####'''          '####       
            ,##' ,,,,###########################,,,                        '##       
           ' ,,###''''                  '''############,,,                           
         ,,##''                                '''############,,,,        ,,,,,,###''
      ,#''                                            '''#######################'''  
     '                                                          ''''####''''         
             ,#######,   #######,   ,#######,      ##                                
            ,#'     '#,  ##    ##  ,#'     '#,    #''#        ######   ,####,        
            ##       ##  ##   ,#'  ##            #'  '#       #        #'  '#        
            ##       ##  #######   ##           ,######,      #####,   #    #        
            '#,     ,#'  ##    ##  '#,     ,#' ,#      #,         ##   #,  ,#        
             '#######'   ##     ##  '#######'  #'      '#     #####' # '####'        



                  #######################################################
                  #                        -***-                        #
                  #          Department of theory and spectroscopy      #
                  #    Directorship and core code : Frank Neese         #
                  #        Max Planck Institute fuer Kohlenforschung    #
                  #                Kaiser Wilhelm Platz 1               #
                  #                 D-45470 Muelheim/Ruhr               #
                  #                      Germany                        #
                  #                                                     #
                  #                  All rights reserved                #
                  #                        -***-                        #
                  #######################################################


                         Program Version 5.0.2 -  RELEASE  -


 With contributions from (in alphabetic order):
   Daniel Aravena         : Magnetic Suceptibility
   Michael Atanasov       : Ab Initio Ligand Field Theory (pilot matlab implementation)
   Alexander A. Auer      : GIAO ZORA, VPT2 properties, NMR spectrum
   Ute Becker             : Parallelization
   Giovanni Bistoni       : ED, misc. LED, open-shell LED, HFLD
   Martin Brehm           : Molecular dynamics
   Dmytro Bykov           : SCF Hessian
   Vijay G. Chilkuri      : MRCI spin determinant printing, contributions to CSF-ICE
   Dipayan Datta          : RHF DLPNO-CCSD density
   Achintya Kumar Dutta   : EOM-CC, STEOM-CC
   Dmitry Ganyushin       : Spin-Orbit,Spin-Spin,Magnetic field MRCI
   Miquel Garcia          : C-PCM and meta-GGA Hessian, CC/C-PCM, Gaussian charge scheme
   Yang Guo               : DLPNO-NEVPT2, F12-NEVPT2, CIM, IAO-localization
   Andreas Hansen         : Spin unrestricted coupled pair/coupled cluster methods
   Benjamin Helmich-Paris : MC-RPA, TRAH-SCF, COSX integrals
   Lee Huntington         : MR-EOM, pCC
   Robert Izsak           : Overlap fitted RIJCOSX, COSX-SCS-MP3, EOM
   Marcus Kettner         : VPT2
   Christian Kollmar      : KDIIS, OOCD, Brueckner-CCSD(T), CCSD density, CASPT2, CASPT2-K
   Simone Kossmann        : Meta GGA functionals, TD-DFT gradient, OOMP2, MP2 Hessian
   Martin Krupicka        : Initial AUTO-CI
   Lucas Lang             : DCDCAS
   Marvin Lechner         : AUTO-CI (C++ implementation), FIC-MRCC
   Dagmar Lenk            : GEPOL surface, SMD
   Dimitrios Liakos       : Extrapolation schemes; Compound Job, initial MDCI parallelization
   Dimitrios Manganas     : Further ROCIS development; embedding schemes
   Dimitrios Pantazis     : SARC Basis sets
   Anastasios Papadopoulos: AUTO-CI, single reference methods and gradients
   Taras Petrenko         : DFT Hessian,TD-DFT gradient, ASA, ECA, R-Raman, ABS, FL, XAS/XES, NRVS
   Peter Pinski           : DLPNO-MP2, DLPNO-MP2 Gradient
   Christoph Reimann      : Effective Core Potentials
   Marius Retegan         : Local ZFS, SOC
   Christoph Riplinger    : Optimizer, TS searches, QM/MM, DLPNO-CCSD(T), (RO)-DLPNO pert. Triples
   Tobias Risthaus        : Range-separated hybrids, TD-DFT gradient, RPA, STAB
   Michael Roemelt        : Original ROCIS implementation
   Masaaki Saitow         : Open-shell DLPNO-CCSD energy and density
   Barbara Sandhoefer     : DKH picture change effects
   Avijit Sen             : IP-ROCIS
   Kantharuban Sivalingam : CASSCF convergence, NEVPT2, FIC-MRCI
   Bernardo de Souza      : ESD, SOC TD-DFT
   Georgi Stoychev        : AutoAux, RI-MP2 NMR, DLPNO-MP2 response
   Willem Van den Heuvel  : Paramagnetic NMR
   Boris Wezisla          : Elementary symmetry handling
   Frank Wennmohs         : Technical directorship


 We gratefully acknowledge several colleagues who have allowed us to
 interface, adapt or use parts of their codes:
   Stefan Grimme, W. Hujo, H. Kruse, P. Pracht,  : VdW corrections, initial TS optimization,
                  C. Bannwarth, S. Ehlert          DFT functionals, gCP, sTDA/sTD-DF
   Ed Valeev, F. Pavosevic, A. Kumar             : LibInt (2-el integral package), F12 methods
   Garnet Chan, S. Sharma, J. Yang, R. Olivares  : DMRG
   Ulf Ekstrom                                   : XCFun DFT Library
   Mihaly Kallay                                 : mrcc  (arbitrary order and MRCC methods)
   Jiri Pittner, Ondrej Demel                    : Mk-CCSD
   Frank Weinhold                                : gennbo (NPA and NBO analysis)
   Christopher J. Cramer and Donald G. Truhlar   : smd solvation model
   Lars Goerigk                                  : TD-DFT with DH, B97 family of functionals
   V. Asgeirsson, H. Jonsson                     : NEB implementation
   FAccTs GmbH                                   : IRC, NEB, NEB-TS, DLPNO-Multilevel, CI-OPT
                                                   MM, QMMM, 2- and 3-layer-ONIOM, Crystal-QMMM,
                                                   LR-CPCM, SF, NACMEs, symmetry and pop. for TD-DFT,
                                                   nearIR, NL-DFT gradient (VV10), updates on ESD,
                                                   ML-optimized integration grids
   S Lehtola, MJT Oliveira, MAL Marques          : LibXC Library
   Liviu Ungur et al                             : ANISO software


 Your calculation uses the libint2 library for the computation of 2-el integrals
 For citations please refer to: http://libint.valeyev.net

 Your ORCA version has been built with support for libXC version: 5.1.0
 For citations please refer to: https://tddft.org/programs/libxc/

 This ORCA versions uses:
   CBLAS   interface :  Fast vector & matrix operations
   LAPACKE interface :  Fast linear algebra routines
   SCALAPACK package :  Parallel linear algebra routines
   Shared memory     :  Shared parallel matrices
   BLAS/LAPACK       :  OpenBLAS 0.3.15  USE64BITINT DYNAMIC_ARCH NO_AFFINITY SkylakeX SINGLE_THREADED
        Core in use  :  SkylakeX
   Copyright (c) 2011-2014, The OpenBLAS Project


Your calculation utilizes the atom-pairwise dispersion correction
with the Becke-Johnson damping scheme (D3BJ)
Cite in your paper:
S.Grimme, S.Ehrlich, L.Goerigk, J Comput Chem, (2011), 32, 1456–1465 
S.Grimme, J.Antony, S.Ehrlich and H.Krieg, J.Chem.Phys., 132, (2010), 154104 
   

================================================================================

----- Orbital basis set information -----
Your calculation utilizes the basis: def2-TZVP
   F. Weigend and R. Ahlrichs, Phys. Chem. Chem. Phys. 7, 3297 (2005).

----- AuxJ basis set information -----
Your calculation utilizes the auxiliary basis: def2/J
   F. Weigend, Phys. Chem. Chem. Phys. 8, 1057 (2006).

================================================================================
                                        WARNINGS
                       Please study these warnings very carefully!
================================================================================

INFO   : Checking CIS options ...

WARNING: CIS/ROCIS methods need fully converged wavefunctions
  ===> : Setting SCFConvForced true
         You can overwrite this default with %scf ConvForced false 


INFO   : the flag for use of the SHARK integral package has been found!

================================================================================
                                       INPUT FILE
================================================================================
NAME = ox_es1_A_orca0036.inp
|  1> ! engrad PBE0 D3BJ def2-TZVP  
|  2> %pal nprocs 8 end
|  3> %maxcore 3000
|  4> 
|  5> %tddft
|  6>   nroots 1
|  7>   tda true
|  8>   Iroot 1
|  9>   end 
| 10> *xyz 0 1 
| 11> O   0.024665945044044464 0.7761661161847437 -0.042917779009060686
| 12> C   -0.6938740960295504 -0.4758023813118887 0.006100490732268073
| 13> C   0.8568937669134397 -0.4518234849862325 0.05746366631428379
| 14> H   -1.2989817512562942 -0.670020234524848 1.0085162517817756
| 15> H   -1.2951711228893883 -0.5776484821001536 -0.8845886232272262
| 16> H   1.2356994812052866 -0.636650473047224 -0.8713484975186635
| 17> H   1.2949133681108598 -0.7467820459945228 0.8836193112087566
| 18> *
| 19> 
| 20>                          ****END OF INPUT****
================================================================================

                     *******************************
                     * Energy+Gradient Calculation *
                     *******************************

---------------------------------
CARTESIAN COORDINATES (ANGSTROEM)
---------------------------------
  O      0.024666    0.776166   -0.042918
  C     -0.693874   -0.475802    0.006100
  C      0.856894   -0.451823    0.057464
  H     -1.298982   -0.670020    1.008516
  H     -1.295171   -0.577648   -0.884589
  H      1.235699   -0.636650   -0.871348
  H      1.294913   -0.746782    0.883619

----------------------------
CARTESIAN COORDINATES (A.U.)
----------------------------
  NO LB      ZA    FRAG     MASS         X           Y           Z
   0 O     8.0000    0    15.999    0.046612    1.466741   -0.081103
   1 C     6.0000    0    12.011   -1.311232   -0.899136    0.011528
   2 C     6.0000    0    12.011    1.619295   -0.853823    0.108591
   3 H     1.0000    0     1.008   -2.454720   -1.266155    1.905820
   4 H     1.0000    0     1.008   -2.447519   -1.091597   -1.671630
   5 H     1.0000    0     1.008    2.335134   -1.203095   -1.646610
   6 H     1.0000    0     1.008    2.447032   -1.411214    1.669799

--------------------------------
INTERNAL COORDINATES (ANGSTROEM)
--------------------------------
 O      0   0   0     0.000000000000     0.00000000     0.00000000
 C      1   0   0     1.444343345648     0.00000000     0.00000000
 C      1   2   0     1.486821456209    63.91262784     0.00000000
 H      2   1   3     1.186892247393   115.09589765   110.11461895
 H      2   1   3     1.079471092935   109.32298151   239.11279132
 H      3   1   2     1.019973931226   107.22119411   102.71271164
 H      3   1   2     0.980507457053   123.73755041   256.28186409

---------------------------
INTERNAL COORDINATES (A.U.)
---------------------------
 O      0   0   0     0.000000000000     0.00000000     0.00000000
 C      1   0   0     2.729413366627     0.00000000     0.00000000
 C      1   2   0     2.809685362273    63.91262784     0.00000000
 H      2   1   3     2.242901298047   115.09589765   110.11461895
 H      2   1   3     2.039904735132   109.32298151   239.11279132
 H      3   1   2     1.927471393755   107.22119411   102.71271164
 H      3   1   2     1.852890566097   123.73755041   256.28186409

---------------------
BASIS SET INFORMATION
---------------------
There are 3 groups of distinct atoms

 Group   1 Type O   : 11s6p2d1f contracted to 5s3p2d1f pattern {62111/411/11/1}
 Group   2 Type C   : 11s6p2d1f contracted to 5s3p2d1f pattern {62111/411/11/1}
 Group   3 Type H   : 5s1p contracted to 3s1p pattern {311/1}

Atom   0O    basis set group =>   1
Atom   1C    basis set group =>   2
Atom   2C    basis set group =>   2
Atom   3H    basis set group =>   3
Atom   4H    basis set group =>   3
Atom   5H    basis set group =>   3
Atom   6H    basis set group =>   3
---------------------------------
AUXILIARY/J BASIS SET INFORMATION
---------------------------------
There are 3 groups of distinct atoms

 Group   1 Type O   : 12s5p4d2f1g contracted to 6s4p3d1f1g pattern {711111/2111/211/2/1}
 Group   2 Type C   : 12s5p4d2f1g contracted to 6s4p3d1f1g pattern {711111/2111/211/2/1}
 Group   3 Type H   : 5s2p1d contracted to 3s1p1d pattern {311/2/1}

Atom   0O    basis set group =>   1
Atom   1C    basis set group =>   2
Atom   2C    basis set group =>   2
Atom   3H    basis set group =>   3
Atom   4H    basis set group =>   3
Atom   5H    basis set group =>   3
Atom   6H    basis set group =>   3

Checking for AutoStart:
The File: ox_es1_A_orca0036.gbw exists
Trying to determine its content:
     ... Fine, the file contains calculation information
     ... Fine, the calculation information was read
     ... Fine, the file contains a basis set
     ... Fine, the basis set was read
     ... Fine, the file contains a geometry
     ... Fine, the geometry was read
     ... Fine, the file contains a set of orbitals
     ... Fine, the orbitals can be read
     => possible old guess file was deleted
     => GBW file was renamed to GES file
     => GES file is set as startup file
     => Guess is set to MORead
     ... now leaving AutoStart



           ************************************************************
           *        Program running with 8 parallel MPI-processes     *
           *              working on a common directory               *
           ************************************************************
------------------------------------------------------------------------------
                           ORCA GTO INTEGRAL CALCULATION
                           -- RI-GTO INTEGRALS CHOSEN --
------------------------------------------------------------------------------
------------------------------------------------------------------------------
                   ___                                                        
                  /   \      - P O W E R E D   B Y -                         
                 /     \                                                     
                 |  |  |   _    _      __       _____    __    __             
                 |  |  |  | |  | |    /  \     |  _  \  |  |  /  |          
                  \  \/   | |  | |   /    \    | | | |  |  | /  /          
                 / \  \   | |__| |  /  /\  \   | |_| |  |  |/  /          
                |  |  |   |  __  | /  /__\  \  |    /   |      \           
                |  |  |   | |  | | |   __   |  |    \   |  |\   \          
                \     /   | |  | | |  |  |  |  | |\  \  |  | \   \       
                 \___/    |_|  |_| |__|  |__|  |_| \__\ |__|  \__/        
                                                                              
                      - O R C A' S   B I G   F R I E N D -                    
                                      &                                       
                       - I N T E G R A L  F E E D E R -                       
                                                                              
 v1 FN, 2020, v2 2021                                                         
------------------------------------------------------------------------------


Reading SHARK input file ox_es1_A_orca0036.SHARKINP.tmp ... ok
----------------------
SHARK INTEGRAL PACKAGE
----------------------

Number of atoms                             ...      7
Number of basis functions                   ...    117
Number of shells                            ...     49
Maximum angular momentum                    ...      3
Integral batch strategy                     ... SHARK/LIBINT Hybrid
RI-J (if used) integral strategy            ... SPLIT-RIJ (Revised 2003 algorithm where possible)
Printlevel                                  ...      1
Contraction scheme used                     ... SEGMENTED contraction
Coulomb Range Separation                    ... NOT USED
Exchange Range Separation                   ... NOT USED
Finite Nucleus Model                        ... NOT USED
Auxiliary Coulomb fitting basis             ... AVAILABLE
   # of basis functions in Aux-J            ...    191
   # of shells in Aux-J                     ...     65
   Maximum angular momentum in Aux-J        ...      4
Auxiliary J/K fitting basis                 ... NOT available
Auxiliary Correlation fitting basis         ... NOT available
Auxiliary 'external' fitting basis          ... NOT available
Integral threshold                          ...     2.500000e-11
Primitive cut-off                           ...     2.500000e-12
Primitive pair pre-selection threshold      ...     2.500000e-12

Calculating pre-screening integrals         ... done (  0.0 sec) Dimension = 49
Organizing shell pair data                  ... done (  0.0 sec)
Shell pair information
Total number of shell pairs                 ...      1225
Shell pairs after pre-screening             ...      1220
Total number of primitive shell pairs       ...      3648
Primitive shell pairs kept                  ...      3147
          la=0 lb=0:    373 shell pairs
          la=1 lb=0:    351 shell pairs
          la=1 lb=1:     91 shell pairs
          la=2 lb=0:    162 shell pairs
          la=2 lb=1:     78 shell pairs
          la=2 lb=2:     21 shell pairs
          la=3 lb=0:     81 shell pairs
          la=3 lb=1:     39 shell pairs
          la=3 lb=2:     18 shell pairs
          la=3 lb=3:      6 shell pairs

Calculating one electron integrals          ... done (  0.0 sec)
Calculating RI/J V-Matrix + Cholesky decomp.... done (  0.0 sec)
Calculating Nuclear repulsion               ... done (  0.0 sec) ENN=     73.837783871040 Eh

SHARK setup successfully completed in   0.1 seconds

Maximum memory used throughout the entire GTOINT-calculation: 14.9 MB


           ************************************************************
           *        Program running with 8 parallel MPI-processes     *
           *              working on a common directory               *
           ************************************************************
-------------------------------------------------------------------------------
                                 ORCA SCF
-------------------------------------------------------------------------------

------------
SCF SETTINGS
------------
Hamiltonian:
 Density Functional     Method          .... DFT(GTOs)
 Exchange Functional    Exchange        .... PBE
   PBE kappa parameter   XKappa         ....  0.804000
   PBE mue parameter    XMuePBE         ....  0.219520
 Correlation Functional Correlation     .... PBE
   PBE beta parameter  CBetaPBE         ....  0.066725
 LDA part of GGA corr.  LDAOpt          .... PW91-LDA
 Gradients option       PostSCFGGA      .... off
 Hybrid DFT is turned on
   Fraction HF Exchange ScalHFX         ....  0.250000
   Scaling of DF-GGA-X  ScalDFX         ....  0.750000
   Scaling of DF-GGA-C  ScalDFC         ....  1.000000
   Scaling of DF-LDA-C  ScalLDAC        ....  1.000000
   Perturbative correction              ....  0.000000
   Density functional embedding theory  .... OFF
   NL short-range parameter             ....  6.900000
 RI-approximation to the Coulomb term is turned on
   Number of AuxJ basis functions       .... 191
   RIJ-COSX (HFX calculated with COS-X)).... on


General Settings:
 Integral files         IntName         .... ox_es1_A_orca0036
 Hartree-Fock type      HFTyp           .... RHF
 Total Charge           Charge          ....    0
 Multiplicity           Mult            ....    1
 Number of Electrons    NEL             ....   24
 Basis Dimension        Dim             ....  117
 Nuclear Repulsion      ENuc            ....     73.8377838710 Eh

Convergence Acceleration:
 DIIS                   CNVDIIS         .... on
   Start iteration      DIISMaxIt       ....    12
   Startup error        DIISStart       ....  0.200000
   # of expansion vecs  DIISMaxEq       ....     5
   Bias factor          DIISBfac        ....   1.050
   Max. coefficient     DIISMaxC        ....  10.000
 Trust-Rad. Augm. Hess. CNVTRAH         .... auto
   Auto Start mean grad. ratio tolernc. ....  1.125000
   Auto Start start iteration           ....     1
   Auto Start num. interpolation iter.  ....    10
   Max. Number of Micro iterations      ....    16
   Max. Number of Macro iterations      .... Maxiter - #DIIS iter
   Number of Davidson start vectors     ....     2
   Converg. threshold I  (grad. norm)   ....   1.000e-05
   Converg. threshold II (energy diff.) ....   1.000e-08
   Grad. Scal. Fac. for Micro threshold ....   0.100
   Minimum threshold for Micro iter.    ....   0.010
   NR start threshold (gradient norm)   ....   0.001
   Initial trust radius                 ....   0.400
   Minimum AH scaling param. (alpha)    ....   1.000
   Maximum AH scaling param. (alpha)    .... 1000.000
   Orbital update algorithm             .... Taylor
   White noise on init. David. guess    .... on
   Maximum white noise                  ....   0.010
   Quad. conv. algorithm                .... NR
 SOSCF                  CNVSOSCF        .... on
   Start iteration      SOSCFMaxIt      ....   150
   Startup grad/error   SOSCFStart      ....  0.003300
 Level Shifting         CNVShift        .... on
   Level shift para.    LevelShift      ....    0.2500
   Turn off err/grad.   ShiftErr        ....    0.0010
 Zerner damping         CNVZerner       .... off
 Static damping         CNVDamp         .... on
   Fraction old density DampFac         ....    0.7000
   Max. Damping (<1)    DampMax         ....    0.9800
   Min. Damping (>=0)   DampMin         ....    0.0000
   Turn off err/grad.   DampErr         ....    0.1000
 Fernandez-Rico         CNVRico         .... off

SCF Procedure:
 Maximum # iterations   MaxIter         ....   125
 SCF integral mode      SCFMode         .... Direct
   Integral package                     .... SHARK and LIBINT hybrid scheme
 Reset frequency        DirectResetFreq ....    20
 Integral Threshold     Thresh          ....  2.500e-11 Eh
 Primitive CutOff       TCut            ....  2.500e-12 Eh

Convergence Tolerance:
 Convergence Check Mode ConvCheckMode   .... Total+1el-Energy
 Convergence forced     ConvForced      .... 1
 Energy Change          TolE            ....  1.000e-08 Eh
 1-El. energy change                    ....  1.000e-05 Eh
 Orbital Gradient       TolG            ....  1.000e-05
 Orbital Rotation angle TolX            ....  1.000e-05
 DIIS Error             TolErr          ....  5.000e-07


Diagonalization of the overlap matrix:
Smallest eigenvalue                        ... 6.719e-04
Time for diagonalization                   ...    0.001 sec
Threshold for overlap eigenvalues          ... 1.000e-08
Number of eigenvalues below threshold      ... 0
Time for construction of square roots      ...    0.002 sec
Total time needed                          ...    0.003 sec

---------------------
INITIAL GUESS: MOREAD
---------------------
Guess MOs are being read from file: ox_es1_A_orca0036.ges
Input Geometry matches current geometry (good)
Input basis set matches current basis set (good)
MOs were renormalized
MOs were reorthogonalized (Cholesky)
                      ------------------
                      INITIAL GUESS DONE (   0.0 sec)
                      ------------------
-------------------
DFT GRID GENERATION
-------------------

General Integration Accuracy     IntAcc      ... 4.388
Radial Grid Type                 RadialGrid  ... OptM3 with GC (2021)
Angular Grid (max. ang.)         AngularGrid ... 4 (Lebedev-302)
Angular grid pruning method      GridPruning ... 4 (adaptive)
Weight generation scheme         WeightScheme... Becke
Basis function cutoff            BFCut       ... 1.0000e-11
Integration weight cutoff        WCut        ... 1.0000e-14
Angular grids for H and He will be reduced by one unit
Partially contracted basis set               ... off
Rotationally invariant grid construction     ... off

Total number of grid points                  ...    31328
Total number of batches                      ...      494
Average number of points per batch           ...       63
Average number of grid points per atom       ...     4475
Time for grid setup =    0.118 sec

--------------------
COSX GRID GENERATION
--------------------

GRIDX 1
-------
General Integration Accuracy     IntAcc      ... 3.816
Radial Grid Type                 RadialGrid  ... OptM3 with GC (2021)
Angular Grid (max. ang.)         AngularGrid ... 1 (Lebedev-50)
Angular grid pruning method      GridPruning ... 4 (adaptive)
Weight generation scheme         WeightScheme... Becke
Basis function cutoff            BFCut       ... 1.0000e-11
Integration weight cutoff        WCut        ... 1.0000e-14
Angular grids for H and He will be reduced by one unit
Partially contracted basis set               ... on
Rotationally invariant grid construction     ... off

Total number of grid points                  ...     4036
Total number of batches                      ...       67
Average number of points per batch           ...       60
Average number of grid points per atom       ...      577
UseSFitting                                  ... on

GRIDX 2
-------
General Integration Accuracy     IntAcc      ... 4.020
Radial Grid Type                 RadialGrid  ... OptM3 with GC (2021)
Angular Grid (max. ang.)         AngularGrid ... 2 (Lebedev-110)
Angular grid pruning method      GridPruning ... 4 (adaptive)
Weight generation scheme         WeightScheme... Becke
Basis function cutoff            BFCut       ... 1.0000e-11
Integration weight cutoff        WCut        ... 1.0000e-14
Angular grids for H and He will be reduced by one unit
Partially contracted basis set               ... on
Rotationally invariant grid construction     ... off

Total number of grid points                  ...     8720
Total number of batches                      ...      139
Average number of points per batch           ...       62
Average number of grid points per atom       ...     1246
UseSFitting                                  ... on

GRIDX 3
-------
General Integration Accuracy     IntAcc      ... 4.338
Radial Grid Type                 RadialGrid  ... OptM3 with GC (2021)
Angular Grid (max. ang.)         AngularGrid ... 3 (Lebedev-194)
Angular grid pruning method      GridPruning ... 4 (adaptive)
Weight generation scheme         WeightScheme... Becke
Basis function cutoff            BFCut       ... 1.0000e-11
Integration weight cutoff        WCut        ... 1.0000e-14
Angular grids for H and He will be reduced by one unit
Partially contracted basis set               ... on
Rotationally invariant grid construction     ... off

Total number of grid points                  ...    19248
Total number of batches                      ...      304
Average number of points per batch           ...       63
Average number of grid points per atom       ...     2750
UseSFitting                                  ... on

Time for X-Grid setup             =    0.073 sec

--------------
SCF ITERATIONS
--------------
ITER       Energy         Delta-E        Max-DP      RMS-DP      [F,P]     Damp
               ***  Starting incremental Fock matrix formation  ***
                      *** Initiating the SOSCF procedure ***
                      *** Re-Reading the Fockian *** 
                      *** Removing any level shift *** 
ITER      Energy       Delta-E        Grad      Rot      Max-DP    RMS-DP
  0   -153.64314712 -153.6431471192  0.000001  0.000001  0.000002  0.000000
               *** Restarting incremental Fock matrix formation ***
                  ***Gradient check signals convergence***
              ***Rediagonalizing the Fockian in SOSCF/NRSCF***

               *****************************************************
               *                     SUCCESS                       *
               *           SCF CONVERGED AFTER   1 CYCLES          *
               *****************************************************

Old exchange energy                            =     -4.988833583 Eh
New exchange energy                            =     -4.988836961 Eh
Exchange energy change after final integration =     -0.000003378 Eh
Total energy after final integration           =   -153.643150498 Eh
Final COS-X integration done in                =     0.257 sec

----------------
TOTAL SCF ENERGY
----------------

Total Energy       :         -153.64315050 Eh           -4180.84267 eV

Components:
Nuclear Repulsion  :           73.83778387 Eh            2009.22825 eV
Electronic Energy  :         -227.48093437 Eh           -6190.07092 eV
One Electron Energy:         -354.38226853 Eh           -9643.23178 eV
Two Electron Energy:          126.90133416 Eh            3453.16086 eV
Max COSX asymmetry :            0.00000163 Eh               0.00004 eV

Virial components:
Potential Energy   :         -306.54193528 Eh           -8341.43013 eV
Kinetic Energy     :          152.89878478 Eh            4160.58745 eV
Virial Ratio       :            2.00486836


DFT components:
N(Alpha)           :       12.000000177288 electrons
N(Beta)            :       12.000000177288 electrons
N(Total)           :       24.000000354575 electrons
E(X)               :      -14.943131708327 Eh       
E(C)               :       -0.786917696273 Eh       
E(XC)              :      -15.730049404600 Eh       
DFET-embed. en.    :        0.000000000000 Eh       

---------------
SCF CONVERGENCE
---------------

  Last Energy change         ...   -4.5475e-12  Tolerance :   1.0000e-08
  Last MAX-Density change    ...    1.1102e-15  Tolerance :   1.0000e-07
  Last RMS-Density change    ...    1.9611e-17  Tolerance :   5.0000e-09
  Last Orbital Gradient      ...    5.7183e-07  Tolerance :   1.0000e-05
  Last Orbital Rotation      ...    1.3198e-06  Tolerance :   1.0000e-05

             **** THE GBW FILE WAS UPDATED (ox_es1_A_orca0036.gbw) ****
             **** DENSITY ox_es1_A_orca0036.scfp WAS UPDATED ****
             **** ENERGY FILE WAS UPDATED (ox_es1_A_orca0036.en.tmp) ****
             **** THE GBW FILE WAS UPDATED (ox_es1_A_orca0036.gbw) ****
             **** DENSITY ox_es1_A_orca0036.scfp WAS UPDATED ****
----------------
ORBITAL ENERGIES
----------------

  NO   OCC          E(Eh)            E(eV) 
   0   2.0000     -19.223128      -523.0879 
   1   2.0000     -10.287722      -279.9432 
   2   2.0000     -10.271336      -279.4973 
   3   2.0000      -1.078716       -29.3534 
   4   2.0000      -0.707719       -19.2580 
   5   2.0000      -0.655436       -17.8353 
   6   2.0000      -0.532128       -14.4799 
   7   2.0000      -0.491857       -13.3841 
   8   2.0000      -0.418255       -11.3813 
   9   2.0000      -0.399603       -10.8738 
  10   2.0000      -0.321156        -8.7391 
  11   2.0000      -0.287109        -7.8126 
  12   0.0000       0.054652         1.4872 
  13   0.0000       0.069509         1.8914 
  14   0.0000       0.071281         1.9397 
  15   0.0000       0.099364         2.7038 
  16   0.0000       0.109331         2.9751 
  17   0.0000       0.150552         4.0967 
  18   0.0000       0.189562         5.1582 
  19   0.0000       0.205622         5.5953 
  20   0.0000       0.263810         7.1786 
  21   0.0000       0.272242         7.4081 
  22   0.0000       0.288167         7.8414 
  23   0.0000       0.316642         8.6163 
  24   0.0000       0.367059         9.9882 
  25   0.0000       0.379306        10.3214 
  26   0.0000       0.403796        10.9879 
  27   0.0000       0.414832        11.2881 
  28   0.0000       0.455048        12.3825 
  29   0.0000       0.470617        12.8061 
  30   0.0000       0.507147        13.8002 
  31   0.0000       0.534443        14.5429 
  32   0.0000       0.550360        14.9761 
  33   0.0000       0.696994        18.9662 
  34   0.0000       0.710585        19.3360 
  35   0.0000       0.726073        19.7574 
  36   0.0000       0.823694        22.4138 
  37   0.0000       0.831917        22.6376 
  38   0.0000       0.906963        24.6797 
  39   0.0000       0.927328        25.2339 
  40   0.0000       0.993950        27.0468 
  41   0.0000       1.021923        27.8079 
  42   0.0000       1.055390        28.7186 
  43   0.0000       1.073237        29.2043 
  44   0.0000       1.141066        31.0500 
  45   0.0000       1.349807        36.7301 
  46   0.0000       1.459622        39.7183 
  47   0.0000       1.470545        40.0156 
  48   0.0000       1.505685        40.9718 
  49   0.0000       1.522713        41.4351 
  50   0.0000       1.585800        43.1518 
  51   0.0000       1.633757        44.4568 
  52   0.0000       1.656646        45.0796 
  53   0.0000       1.709421        46.5157 
  54   0.0000       1.770454        48.1765 
  55   0.0000       1.818101        49.4731 
  56   0.0000       1.863046        50.6960 
  57   0.0000       1.892307        51.4923 
  58   0.0000       1.922736        52.3203 
  59   0.0000       1.954825        53.1935 
  60   0.0000       2.147108        58.4258 
  61   0.0000       2.155872        58.6643 
  62   0.0000       2.173247        59.1370 
  63   0.0000       2.213600        60.2351 
  64   0.0000       2.249218        61.2043 
  65   0.0000       2.392093        65.0922 
  66   0.0000       2.444160        66.5090 
  67   0.0000       2.460896        66.9644 
  68   0.0000       2.560464        69.6738 
  69   0.0000       2.601679        70.7953 
  70   0.0000       2.650411        72.1214 
  71   0.0000       2.658330        72.3368 
  72   0.0000       2.702851        73.5483 
  73   0.0000       2.717098        73.9360 
  74   0.0000       2.753918        74.9379 
  75   0.0000       2.793468        76.0141 
  76   0.0000       2.865746        77.9809 
  77   0.0000       2.937673        79.9381 
  78   0.0000       2.993184        81.4487 
  79   0.0000       3.006239        81.8039 
  80   0.0000       3.045142        82.8625 
  81   0.0000       3.107337        84.5549 
  82   0.0000       3.138349        85.3988 
  83   0.0000       3.221394        87.6586 
  84   0.0000       3.287682        89.4624 
  85   0.0000       3.303150        89.8833 
  86   0.0000       3.328697        90.5785 
  87   0.0000       3.419821        93.0581 
  88   0.0000       3.515632        95.6652 
  89   0.0000       3.580706        97.4360 
  90   0.0000       3.629906        98.7748 
  91   0.0000       3.703097       100.7664 
  92   0.0000       3.831249       104.2536 
  93   0.0000       3.942085       107.2696 
  94   0.0000       4.012903       109.1966 
  95   0.0000       4.071856       110.8008 
  96   0.0000       4.241713       115.4229 
  97   0.0000       4.313912       117.3875 
  98   0.0000       4.384015       119.2951 
  99   0.0000       4.611738       125.4918 
 100   0.0000       4.733344       128.8008 
 101   0.0000       4.799982       130.6142 
 102   0.0000       5.288643       143.9113 
 103   0.0000       5.432304       147.8205 
 104   0.0000       5.669059       154.2629 
 105   0.0000       5.715162       155.5175 
 106   0.0000       5.744771       156.3232 
 107   0.0000       5.836273       158.8131 
 108   0.0000       5.994711       163.1244 
 109   0.0000       6.602735       179.6696 
 110   0.0000       6.636524       180.5890 
 111   0.0000       6.772711       184.2948 
 112   0.0000       6.954355       189.2376 
 113   0.0000       7.191686       195.6957 
 114   0.0000      22.176817       603.4619 
 115   0.0000      22.451547       610.9377 
 116   0.0000      43.831648      1192.7198 

                    ********************************
                    * MULLIKEN POPULATION ANALYSIS *
                    ********************************

-----------------------
MULLIKEN ATOMIC CHARGES
-----------------------
   0 O :   -0.311827
   1 C :   -0.097423
   2 C :   -0.082881
   3 H :    0.115279
   4 H :    0.131252
   5 H :    0.117711
   6 H :    0.127890
Sum of atomic charges:   -0.0000000

--------------------------------
MULLIKEN REDUCED ORBITAL CHARGES
--------------------------------
  0 O s       :     3.860407  s :     3.860407
      pz      :     1.851612  p :     4.409909
      px      :     1.299510
      py      :     1.258786
      dz2     :     0.005401  d :     0.039586
      dxz     :     0.002497
      dyz     :     0.005921
      dx2y2   :     0.011137
      dxy     :     0.014630
      f0      :     0.000226  f :     0.001925
      f+1     :     0.000188
      f-1     :     0.000422
      f+2     :     0.000068
      f-2     :     0.000192
      f+3     :     0.000332
      f-3     :     0.000497
  1 C s       :     3.255343  s :     3.255343
      pz      :     1.050097  p :     2.723099
      px      :     0.888353
      py      :     0.784649
      dz2     :     0.006566  d :     0.108030
      dxz     :     0.026163
      dyz     :     0.028944
      dx2y2   :     0.028589
      dxy     :     0.017768
      f0      :     0.001413  f :     0.010951
      f+1     :     0.001423
      f-1     :     0.000529
      f+2     :     0.001373
      f-2     :     0.001474
      f+3     :     0.002073
      f-3     :     0.002665
  2 C s       :     3.223240  s :     3.223240
      pz      :     1.045328  p :     2.750242
      px      :     0.904081
      py      :     0.800833
      dz2     :     0.008840  d :     0.099058
      dxz     :     0.020971
      dyz     :     0.025410
      dx2y2   :     0.024492
      dxy     :     0.019345
      f0      :     0.001509  f :     0.010341
      f+1     :     0.001342
      f-1     :     0.000628
      f+2     :     0.000784
      f-2     :     0.001584
      f+3     :     0.002131
      f-3     :     0.002364
  3 H s       :     0.866942  s :     0.866942
      pz      :     0.009494  p :     0.017779
      px      :     0.005454
      py      :     0.002831
  4 H s       :     0.846943  s :     0.846943
      pz      :     0.010627  p :     0.021805
      px      :     0.007137
      py      :     0.004041
  5 H s       :     0.858325  s :     0.858325
      pz      :     0.012449  p :     0.023964
      px      :     0.006259
      py      :     0.005256
  6 H s       :     0.847705  s :     0.847705
      pz      :     0.011075  p :     0.024404
      px      :     0.007560
      py      :     0.005769


                     *******************************
                     * LOEWDIN POPULATION ANALYSIS *
                     *******************************

----------------------
LOEWDIN ATOMIC CHARGES
----------------------
   0 O :    0.077240
   1 C :   -0.290778
   2 C :   -0.216288
   3 H :    0.128346
   4 H :    0.109934
   5 H :    0.105248
   6 H :    0.086298

-------------------------------
LOEWDIN REDUCED ORBITAL CHARGES
-------------------------------
  0 O s       :     3.420375  s :     3.420375
      pz      :     1.747899  p :     4.411102
      px      :     1.295593
      py      :     1.367610
      dz2     :     0.011167  d :     0.085599
      dxz     :     0.007282
      dyz     :     0.012840
      dx2y2   :     0.028984
      dxy     :     0.025327
      f0      :     0.000526  f :     0.005684
      f+1     :     0.000256
      f-1     :     0.000787
      f+2     :     0.000145
      f-2     :     0.000831
      f+3     :     0.001096
      f-3     :     0.002043
  1 C s       :     2.869132  s :     2.869132
      pz      :     1.060831  p :     2.912045
      px      :     0.996762
      py      :     0.854452
      dz2     :     0.051072  d :     0.444630
      dxz     :     0.124667
      dyz     :     0.076400
      dx2y2   :     0.103834
      dxy     :     0.088656
      f0      :     0.008249  f :     0.064972
      f+1     :     0.005124
      f-1     :     0.005343
      f+2     :     0.008379
      f-2     :     0.006306
      f+3     :     0.014355
      f-3     :     0.017216
  2 C s       :     2.820139  s :     2.820139
      pz      :     1.081890  p :     2.930695
      px      :     1.011175
      py      :     0.837630
      dz2     :     0.056938  d :     0.406435
      dxz     :     0.098352
      dyz     :     0.075066
      dx2y2   :     0.090342
      dxy     :     0.085737
      f0      :     0.008772  f :     0.059019
      f+1     :     0.005511
      f-1     :     0.005146
      f+2     :     0.004626
      f-2     :     0.006662
      f+3     :     0.013533
      f-3     :     0.014770
  3 H s       :     0.823006  s :     0.823006
      pz      :     0.027132  p :     0.048648
      px      :     0.013784
      py      :     0.007731
  4 H s       :     0.824970  s :     0.824970
      pz      :     0.033043  p :     0.065096
      px      :     0.019838
      py      :     0.012215
  5 H s       :     0.820131  s :     0.820131
      pz      :     0.039219  p :     0.074620
      px      :     0.018699
      py      :     0.016703
  6 H s       :     0.831841  s :     0.831841
      pz      :     0.038426  p :     0.081861
      px      :     0.023693
      py      :     0.019742


                      *****************************
                      * MAYER POPULATION ANALYSIS *
                      *****************************

  NA   - Mulliken gross atomic population
  ZA   - Total nuclear charge
  QA   - Mulliken gross atomic charge
  VA   - Mayer's total valence
  BVA  - Mayer's bonded valence
  FA   - Mayer's free valence

  ATOM       NA         ZA         QA         VA         BVA        FA
  0 O      8.3118     8.0000    -0.3118     1.9840     1.9840    -0.0000
  1 C      6.0974     6.0000    -0.0974     3.9301     3.9301     0.0000
  2 C      6.0829     6.0000    -0.0829     3.9891     3.9891     0.0000
  3 H      0.8847     1.0000     0.1153     0.9620     0.9620    -0.0000
  4 H      0.8687     1.0000     0.1313     0.9639     0.9639    -0.0000
  5 H      0.8823     1.0000     0.1177     0.9624     0.9624    -0.0000
  6 H      0.8721     1.0000     0.1279     0.9535     0.9535    -0.0000

  Mayer bond orders larger than 0.100000
B(  0-O ,  1-C ) :   0.9738 B(  0-O ,  2-C ) :   1.0016 B(  1-C ,  2-C ) :   1.0468 
B(  1-C ,  3-H ) :   0.9440 B(  1-C ,  4-H ) :   0.9570 B(  2-C ,  5-H ) :   0.9714 
B(  2-C ,  6-H ) :   0.9527 

-------
TIMINGS
-------

Total SCF time: 0 days 0 hours 0 min 0 sec 

Total time                  ....       0.993 sec
Sum of individual times     ....       0.902 sec  ( 90.8%)

Fock matrix formation       ....       0.696 sec  ( 70.0%)
  Split-RI-J                ....       0.114 sec  ( 16.3% of F)
  Chain of spheres X        ....       0.517 sec  ( 74.3% of F)
  XC integration            ....       0.063 sec  (  9.1% of F)
    Basis function eval.    ....       0.017 sec  ( 27.5% of XC)
    Density eval.           ....       0.014 sec  ( 22.2% of XC)
    XC-Functional eval.     ....       0.004 sec  (  5.8% of XC)
    XC-Potential eval.      ....       0.022 sec  ( 34.4% of XC)
Diagonalization             ....       0.002 sec  (  0.2%)
Density matrix formation    ....       0.000 sec  (  0.0%)
Population analysis         ....       0.002 sec  (  0.3%)
Initial guess               ....       0.007 sec  (  0.7%)
Orbital Transformation      ....       0.000 sec  (  0.0%)
Orbital Orthonormalization  ....       0.001 sec  (  0.1%)
DIIS solution               ....       0.001 sec  (  0.1%)
SOSCF solution              ....       0.002 sec  (  0.2%)
Grid generation             ....       0.191 sec  ( 19.2%)

Maximum memory used throughout the entire SCF-calculation: 61.1 MB


           ************************************************************
           *        Program running with 8 parallel MPI-processes     *
           *              working on a common directory               *
           ************************************************************
------------------------------------------------------------------------------
                        ORCA TD-DFT/TDA CALCULATION
------------------------------------------------------------------------------

Input orbitals are from        ... ox_es1_A_orca0036.gbw
CI-vector output               ... ox_es1_A_orca0036.cis
Tamm-Dancoff approximation     ... operative
CIS-Integral strategy          ... AO-integrals
Integral handling              ... AO integral Direct
Max. core memory used          ... 3000 MB
Reference state                ... RHF
Generation of triplets         ... off
Follow IRoot                   ... off
Number of operators            ... 1
Orbital ranges used for CIS calculation:
 Operator 0:  Orbitals   3... 11  to  12...116
XAS localization array:
 Operator 0:  Orbitals  -1... -1

-------------------
XC-INTEGRATION GRID
-------------------

General Integration Accuracy     IntAcc      ... 3.467
Radial Grid Type                 RadialGrid  ... OptM3 with GC (2021)
Angular Grid (max. ang.)         AngularGrid ... 1 (Lebedev-50)
Angular grid pruning method      GridPruning ... 4 (adaptive)
Weight generation scheme         WeightScheme... Becke
Basis function cutoff            BFCut       ... 1.0000e-11
Integration weight cutoff        WCut        ... 1.0000e-14
Angular grids for H and He will be reduced by one unit
Partially contracted basis set               ... off
Rotationally invariant grid construction     ... off

Total number of grid points                  ...     4541
Total number of batches                      ...       75
Average number of points per batch           ...       60
Average number of grid points per atom       ...      649

---------------------
COSX-INTEGRATION GRID
---------------------

General Integration Accuracy     IntAcc      ... 3.067
Radial Grid Type                 RadialGrid  ... OptM3 with GC (2021)
Angular Grid (max. ang.)         AngularGrid ... 1 (Lebedev-50)
Angular grid pruning method      GridPruning ... 4 (adaptive)
Weight generation scheme         WeightScheme... Becke
Basis function cutoff            BFCut       ... 1.0000e-11
Integration weight cutoff        WCut        ... 1.0000e-14
Angular grids for H and He will be reduced by one unit
Partially contracted basis set               ... on
Rotationally invariant grid construction     ... off

Total number of grid points                  ...     2086
Total number of batches                      ...       38
Average number of points per batch           ...       54
Average number of grid points per atom       ...      298

---------------
TD-DFT XC SETUP
---------------

DFT calculation                         ... on
Name of the grid file                   ... ox_es1_A_orca0036.grid_cis.tmp
Exchange functional (TD-DFT)            ... PBE
   PBE kappa parameter  XKappa (TD-DFT) ...  0.804000
   PBE mue parameter   XMuePBE (TD-DFT) ...  0.219520
Correlation functional (TD-DFT)         ... PBE
   PBE beta parameter CBetaPBE (TD-DFT) ...  0.066725
 LDA part of GGA corr.  LDAOpt (TD-DFT) ... PW91-LDA
Hybrid DFT                              ... on
   Exchange mixing (TD-DFT)             ...  0.250
   GGA exch. scaling (TD-DFT)           ...  0.750
   GGA corr. scaling (TD-DFT)           ...  1.000

Building densities             ... done
Calculating rho(r) on the grid ... done
Building xc-kernel on the grid ... done
                    *** TD-DFT CALCULATION INITIALIZED ***

------------------------
DAVIDSON-DIAGONALIZATION
------------------------

Dimension of the eigenvalue problem            ...    945
Number of roots to be determined               ...      1
Maximum size of the expansion space            ...     10
Maximum number of iterations                   ...    100
Convergence tolerance for the residual         ...    2.500e-07
Convergence tolerance for the energies         ...    2.500e-07
Orthogonality tolerance                        ...    1.000e-14
Level Shift                                    ...    0.000e+00
Constructing the preconditioner                ... o.k.
Building the initial guess                     ... o.k.
Number of trial vectors determined             ...     10


                       ****Iteration    0****

   Memory handling for direct AO based CIS:
   Memory per vector needed      ...     1 MB
   Memory needed                 ...     1 MB
   Memory available              ...  3000 MB
   Number of vectors per batch   ...  3000
   Number of batches             ...     1
   Time for densities:            0.000
   Time for RI-J (Direct):        0.016
   Time for K (COSX):             0.055
   Time for XC-Integration:       0.016
   Time for Sigma-Completion:     0.000
   Size of expansion space: 3
   Lowest Energy          :     0.279199613766
   Maximum Energy change  :     0.279199613766 (vector 0)
   Maximum residual norm  :     0.003634453956

                       ****Iteration    1****
   Time for densities:            0.000
   Time for RI-J (Direct):        0.012
   Time for K (COSX):             0.048
   Time for XC-Integration:       0.007
   Time for Sigma-Completion:     0.000
   Size of expansion space: 4
   Lowest Energy          :     0.274850802085
   Maximum Energy change  :     0.004348811681 (vector 0)
   Maximum residual norm  :     0.000824453050

                       ****Iteration    2****
   Time for densities:            0.000
   Time for RI-J (Direct):        0.012
   Time for K (COSX):             0.048
   Time for XC-Integration:       0.007
   Time for Sigma-Completion:     0.000
   Size of expansion space: 5
   Lowest Energy          :     0.273087431916
   Maximum Energy change  :     0.001763370169 (vector 0)
   Maximum residual norm  :     0.000178033354

                       ****Iteration    3****
   Time for densities:            0.000
   Time for RI-J (Direct):        0.012
   Time for K (COSX):             0.049
   Time for XC-Integration:       0.007
   Time for Sigma-Completion:     0.000
   Size of expansion space: 6
   Lowest Energy          :     0.272874774675
   Maximum Energy change  :     0.000212657241 (vector 0)
   Maximum residual norm  :     0.000033236894

                       ****Iteration    4****
   Time for densities:            0.000
   Time for RI-J (Direct):        0.012
   Time for K (COSX):             0.049
   Time for XC-Integration:       0.007
   Time for Sigma-Completion:     0.000
   Size of expansion space: 7
   Lowest Energy          :     0.272839312565
   Maximum Energy change  :     0.000035462110 (vector 0)
   Maximum residual norm  :     0.000005547305

                       ****Iteration    5****
   Time for densities:            0.000
   Time for RI-J (Direct):        0.012
   Time for K (COSX):             0.048
   Time for XC-Integration:       0.007
   Time for Sigma-Completion:     0.000
   Size of expansion space: 8
   Lowest Energy          :     0.272831815358
   Maximum Energy change  :     0.000007497207 (vector 0)
   Maximum residual norm  :     0.000000933416

                       ****Iteration    6****
   Time for densities:            0.000
   Time for RI-J (Direct):        0.012
   Time for K (COSX):             0.049
   Time for XC-Integration:       0.007
   Time for Sigma-Completion:     0.000
   Size of expansion space: 9
   Lowest Energy          :     0.272830678081
   Maximum Energy change  :     0.000001137277 (vector 0)
   Maximum residual norm  :     0.000000076605

      *** CONVERGENCE OF RESIDUAL NORM REACHED ***

Storing the converged CI vectors               ... ox_es1_A_orca0036.cis1

                 *** DAVIDSON DONE ***

Total time for solving the CIS problem:     0.499sec

------------------------------------
TD-DFT/TDA EXCITED STATES (SINGLETS)
------------------------------------

the weight of the individual excitations are printed if larger than 1.0e-02

STATE  1:  E=   0.272831 au      7.424 eV    59879.4 cm**-1 <S**2> =   0.000000
    11a ->  12a  :     0.727602 (c=  0.85299592)
    11a ->  13a  :     0.043128 (c=  0.20767215)
    11a ->  14a  :     0.173043 (c= -0.41598464)
    11a ->  15a  :     0.026401 (c= -0.16248340)


-----------------------------
TD-DFT/TDA-EXCITATION SPECTRA
-----------------------------

Center of mass = (  0.0982, -0.0590,  0.0092)
Calculating the Dipole integrals                  ... done
Transforming integrals                            ... done
Calculating the Linear Momentum integrals         ... done
Transforming integrals                            ... done
Calculating angular momentum integrals            ... done
Transforming integrals                            ... done

-----------------------------------------------------------------------------
         ABSORPTION SPECTRUM VIA TRANSITION ELECTRIC DIPOLE MOMENTS
-----------------------------------------------------------------------------
State   Energy    Wavelength  fosc         T2        TX        TY        TZ  
        (cm-1)      (nm)                 (au**2)    (au)      (au)      (au) 
-----------------------------------------------------------------------------
   1   59879.4    167.0   0.010385176   0.05710   0.10743  -0.00999  -0.21320

-----------------------------------------------------------------------------
         ABSORPTION SPECTRUM VIA TRANSITION VELOCITY DIPOLE MOMENTS
-----------------------------------------------------------------------------
State   Energy    Wavelength   fosc        P2         PX        PY        PZ  
        (cm-1)      (nm)                 (au**2)     (au)      (au)      (au) 
-----------------------------------------------------------------------------
   1   59879.4    167.0   0.012192617   0.00499  -0.01421   0.00545   0.06898

-------------------------------------------------------------------
                             CD SPECTRUM
-------------------------------------------------------------------
State  Energy     Wavelength     R         MX        MY        MZ   
       (cm-1)       (nm)     (1e40*cgs)   (au)      (au)      (au)  
-------------------------------------------------------------------
   1   59879.4    167.0     -5.18530  -0.02116   0.21434   0.03088

-------------------------------------------------------------------
         CD SPECTRUM VIA TRANSITION VELOCITY DIPOLE MOMENTS        
-------------------------------------------------------------------
State  Energy     Wavelength     R         MX        MY        MZ   
       (cm-1)       (nm)     (1e40*cgs)   (au)      (au)      (au)  
-------------------------------------------------------------------
   1   59879.4    167.0      6.21905  -0.02116   0.21434   0.03088

Total run time:        0.836 sec

           *** ORCA-CIS/TD-DFT FINISHED WITHOUT ERROR ***

Maximum memory used throughout the entire CIS-calculation: 49.4 MB

-----------------------
CIS/TD-DFT TOTAL ENERGY
-----------------------

    E(SCF)  =   -153.643150498 Eh
    DE(CIS) =      0.272830678 Eh (Root  1)
    ----------------------------- ---------
    E(tot)  =   -153.370319819 Eh



-------------------------------------------------------------------------------
                          DFT DISPERSION CORRECTION                            
                                                                               
                              DFTD3 V3.1  Rev 1                                
                          USING Becke-Johnson damping                          
-------------------------------------------------------------------------------
The PBE0 functional is recognized
Active option DFTDOPT                   ...         4   

molecular C6(AA) [au] = 351.203012 


            DFT-D V3
 parameters
 s6 scaling factor         :     1.0000 
 a1 scaling factor         :     0.4145 
 s8 scaling factor         :     1.2177 
 a2 scaling factor         :     4.8593 
 ad hoc parameters k1-k3   :    16.0000     1.3333    -4.0000 

 Edisp/kcal,au: -1.506766359923  -0.002401184781 
 E6   /kcal   :  -0.987540415 
 E8   /kcal   :  -0.519225945 
 % E8         :  34.459618885 

-------------------------   ----------------
Dispersion correction           -0.002401185
-------------------------   ----------------


-------------------------   --------------------
FINAL SINGLE POINT ENERGY      -153.372721004232
-------------------------   --------------------



           ************************************************************
           *        Program running with 8 parallel MPI-processes     *
           *              working on a common directory               *
           ************************************************************
------------------------------------------------------------------------------
                         ORCA SCF GRADIENT CALCULATION
------------------------------------------------------------------------------


------------------------
TD-DFT GRADIENT XC SETUP
------------------------

Building densities                     ... done
Calculating rho(r) on the grid         ... done
Building xc-kernel on the grid         ... done
Building xc 3rd derivative on the grid      ... done
                *** TD-DFT GRADIENT CALCULATION INITIALIZED ***

-------------------
TD-DFT/TDA GRADIENT
-------------------

Reference wavefunction             ... RHF
State of interest                  ... 1
Basis dimension                    ... 117
DFT-XC contribution needed         ... YES
RI-approximation                   ... ON
CIS-vectors being read from        ... ox_es1_A_orca0036.cis

 => Number of Vectors found: 1
 => Orbital Window: 3...11 -> 12...116

Reading the CIS file                     ... done
Norm of the CI vector                    ... 1.000000000
Making the CIS (pseudo)densities         ... done
Making operators G(D) and Q(T)           ... done
Transforming the Fock operators          ... done
Making the frozen-core relaxed density   ... done
Constructing the G(H) operator           ... done
Transforming the G(H) operator           ... done
Calculating the CIS Lagrangian           ... done
Solving the Z-vector equations           ... done
Finalizing the relaxed density           ... done
Storing the relaxed density              ... done
Constructing the G(Z) operator           ... done
Transforming the G(Z) operator           ... done
Making the W-matrix                      ... done
Finalizing the W-matrix                  ... done
Transforming the W-matrix                ... done
Nuclear repulsion gradient               ... done
One-Electron gradient                    ... done
Dispersion correction                    ... done
Prescreening matrices                    ... done
COSX-gradient                            ... done
Coulomb gradient (RI)                    ... done
Exchange-Correlation gradient            ... done

                 ---------------------------
                 EXCITED STATE GRADIENT DONE
                 ---------------------------

------------------
CARTESIAN GRADIENT
------------------

   1   O   :    0.066317556   -0.057217232   -0.003462472
   2   C   :    0.015675008   -0.001216761   -0.047816022
   3   C   :    0.005034749    0.044601758    0.046198500
   4   H   :   -0.018085306   -0.018157474    0.037518136
   5   H   :    0.008772690   -0.000341912    0.005630409
   6   H   :   -0.035434802    0.006736468    0.039900733
   7   H   :   -0.042362913    0.025585274   -0.077986545

Difference to translation invariance:
           :   -0.0000830192   -0.0000098786   -0.0000172596

Difference to rotation invariance:
           :   -0.0001957582    0.0000201918    0.0002836541

Norm of the cartesian gradient     ...    0.1672235106
RMS gradient                       ...    0.0364911617
MAX gradient                       ...    0.0779865447

------------------------------------------------------------------------------
                  RELAXED CIS/TDA DENSITY POPULATION ANALYSIS
                                   IROOT 1
------------------------------------------------------------------------------
------------------------------------------------------------------------------
                           ORCA POPULATION ANALYSIS
------------------------------------------------------------------------------
Input electron density              ... ox_es1_A_orca0036.cisp
BaseName (.gbw .S,...)              ... ox_es1_A_orca0036

                    ********************************
                    * MULLIKEN POPULATION ANALYSIS *
                    ********************************

-----------------------
MULLIKEN ATOMIC CHARGES
-----------------------
   0 O :    0.071537
   1 C :   -0.138664
   2 C :   -0.511622
   3 H :    0.125254
   4 H :    0.130178
   5 H :    0.152708
   6 H :    0.170609
Sum of atomic charges:   -0.0000000

--------------------------------
MULLIKEN REDUCED ORBITAL CHARGES
--------------------------------
  0 O s       :     3.834465  s :     3.834465
      pz      :     1.121170  p :     4.054500
      px      :     1.546769
      py      :     1.386560
      dz2     :     0.004317  d :     0.038135
      dxz     :     0.002937
      dyz     :     0.006431
      dx2y2   :     0.011455
      dxy     :     0.012996
      f0      :     0.000079  f :     0.001363
      f+1     :    -0.000037
      f-1     :     0.000185
      f+2     :     0.000081
      f-2     :     0.000195
      f+3     :     0.000349
      f-3     :     0.000511
  1 C s       :     3.227342  s :     3.227342
      pz      :     1.030485  p :     2.819284
      px      :     1.034076
      py      :     0.754722
      dz2     :     0.005896  d :     0.082253
      dxz     :     0.019669
      dyz     :     0.009516
      dx2y2   :     0.031180
      dxy     :     0.015991
      f0      :     0.000847  f :     0.009786
      f+1     :     0.001614
      f-1     :     0.000467
      f+2     :     0.000897
      f-2     :     0.000988
      f+3     :     0.002511
      f-3     :     0.002462
  2 C s       :     3.236243  s :     3.236243
      pz      :     1.070670  p :     3.180965
      px      :     0.910225
      py      :     1.200070
      dz2     :     0.011083  d :     0.084953
      dxz     :     0.009955
      dyz     :     0.005098
      dx2y2   :     0.028879
      dxy     :     0.029939
      f0      :     0.001105  f :     0.009461
      f+1     :     0.001227
      f-1     :     0.000818
      f+2     :     0.000599
      f-2     :     0.001102
      f+3     :     0.002596
      f-3     :     0.002014
  3 H s       :     0.854344  s :     0.854344
      pz      :     0.009800  p :     0.020402
      px      :     0.007335
      py      :     0.003268
  4 H s       :     0.845689  s :     0.845689
      pz      :     0.010692  p :     0.024133
      px      :     0.008973
      py      :     0.004468
  5 H s       :     0.819808  s :     0.819808
      pz      :     0.011392  p :     0.027484
      px      :     0.007053
      py      :     0.009040
  6 H s       :     0.798900  s :     0.798900
      pz      :     0.009980  p :     0.030491
      px      :     0.007924
      py      :     0.012586


                     *******************************
                     * LOEWDIN POPULATION ANALYSIS *
                     *******************************

----------------------
LOEWDIN ATOMIC CHARGES
----------------------
   0 O :    0.374428
   1 C :   -0.323104
   2 C :   -0.522612
   3 H :    0.149478
   4 H :    0.119411
   5 H :    0.111860
   6 H :    0.090539

-------------------------------
LOEWDIN REDUCED ORBITAL CHARGES
-------------------------------
  0 O s       :     3.448667  s :     3.448667
      pz      :     1.069279  p :     4.073876
      px      :     1.539104
      py      :     1.465493
      dz2     :     0.011283  d :     0.097644
      dxz     :     0.008576
      dyz     :     0.013270
      dx2y2   :     0.031308
      dxy     :     0.033207
      f0      :     0.000540  f :     0.005385
      f+1     :     0.000141
      f-1     :     0.000575
      f+2     :     0.000138
      f-2     :     0.000896
      f+3     :     0.001014
      f-3     :     0.002080
  1 C s       :     2.890217  s :     2.890217
      pz      :     1.029067  p :     2.954026
      px      :     1.061971
      py      :     0.862988
      dz2     :     0.051689  d :     0.416800
      dxz     :     0.106066
      dyz     :     0.033315
      dx2y2   :     0.135724
      dxy     :     0.090005
      f0      :     0.005890  f :     0.062061
      f+1     :     0.006846
      f-1     :     0.005771
      f+2     :     0.005667
      f-2     :     0.004230
      f+3     :     0.016139
      f-3     :     0.017517
  2 C s       :     2.815301  s :     2.815301
      pz      :     1.077533  p :     3.146869
      px      :     1.005536
      py      :     1.063799
      dz2     :     0.061473  d :     0.493882
      dxz     :     0.079312
      dyz     :     0.031294
      dx2y2   :     0.160514
      dxy     :     0.161289
      f0      :     0.006866  f :     0.066560
      f+1     :     0.005403
      f-1     :     0.007792
      f+2     :     0.003393
      f-2     :     0.004877
      f+3     :     0.023226
      f-3     :     0.015004
  3 H s       :     0.794429  s :     0.794429
      pz      :     0.028061  p :     0.056093
      px      :     0.019164
      py      :     0.008868
  4 H s       :     0.808729  s :     0.808729
      pz      :     0.033074  p :     0.071860
      px      :     0.025180
      py      :     0.013606
  5 H s       :     0.804643  s :     0.804643
      pz      :     0.036374  p :     0.083498
      px      :     0.020259
      py      :     0.026864
  6 H s       :     0.811867  s :     0.811867
      pz      :     0.035895  p :     0.097594
      px      :     0.024140
      py      :     0.037559


                      *****************************
                      * MAYER POPULATION ANALYSIS *
                      *****************************

  NA   - Mulliken gross atomic population
  ZA   - Total nuclear charge
  QA   - Mulliken gross atomic charge
  VA   - Mayer's total valence
  BVA  - Mayer's bonded valence
  FA   - Mayer's free valence

  ATOM       NA         ZA         QA         VA         BVA        FA
  0 O      7.9285     8.0000     0.0715     2.0680     1.3137     0.7544
  1 C      6.1387     6.0000    -0.1387     3.3491     3.1666     0.1825
  2 C      6.5116     6.0000    -0.5116     3.8223     3.0727     0.7497
  3 H      0.8747     1.0000     0.1253     1.0184     0.9304     0.0879
  4 H      0.8698     1.0000     0.1302     1.0028     0.9444     0.0584
  5 H      0.8473     1.0000     0.1527     0.9880     0.9640     0.0240
  6 H      0.8294     1.0000     0.1706     0.9826     0.9610     0.0216

  Mayer bond orders larger than 0.100000
B(  0-O ,  1-C ) :   0.8416 B(  0-O ,  2-C ) :   0.4447 B(  1-C ,  2-C ) :   0.6075 
B(  1-C ,  3-H ) :   0.8551 B(  1-C ,  4-H ) :   0.8904 B(  2-C ,  5-H ) :   0.9728 
B(  2-C ,  6-H ) :   0.9704 


-------
TIMINGS
-------

Total TD-DFT gradient time         ...        4.967 sec

Fock matrix formation       ....       0.852 sec  ( 17.1%)
  Coulomb formation         ....       0.691 sec  ( 81.1% of F)
  RI-J                      ....       0.300 sec  ( 35.2% of F)
  Chain of spheres X        ....       0.391 sec  ( 45.9% of F)
  XC integration            ....       0.161 sec  ( 18.9% of F)
Z-vector equation           ....       1.238 sec  ( 24.9%)
One electron gradient       ....       0.032 sec  (  0.6%)
Prescreening matrices       ....       0.155 sec  (  3.1%)
RI-J Coulomb gradient       ....       0.266 sec  (  5.4%)
COSX gradient               ....       0.348 sec  (  7.0%)
XC gradient                 ....       1.736 sec  ( 35.0%)

Maximum memory used throughout the entire SCFGRAD-calculation: 130.3 MB

                            ***************************************
                            *     ORCA property calculations      *
                            ***************************************

                                    ---------------------
                                    Active property flags
                                    ---------------------
   (+) Dipole Moment


------------------------------------------------------------------------------
                       ORCA ELECTRIC PROPERTIES CALCULATION
------------------------------------------------------------------------------

Dipole Moment Calculation                       ... on
Quadrupole Moment Calculation                   ... off
Polarizability Calculation                      ... off
GBWName                                         ... ox_es1_A_orca0036.gbw
Electron density                                ... ox_es1_A_orca0036.scfp
The origin for moment calculation is the CENTER OF MASS  = ( 0.098174, -0.059025  0.009185)

-------------
DIPOLE MOMENT
-------------
                                X             Y             Z
Electronic contribution:      0.30077       1.59185      -0.07830
Nuclear contribution   :     -0.25497      -2.33928       0.10883
                        -----------------------------------------
Total Dipole Moment    :      0.04580      -0.74743       0.03053
                        -----------------------------------------
Magnitude (a.u.)       :      0.74946
Magnitude (Debye)      :      1.90497



--------------------
Rotational spectrum 
--------------------
 
Rotational constants in cm-1:     0.846994     0.688075     0.446590 
Rotational constants in MHz : 25392.254147 20627.982131 13388.443967 

 Dipole components along the rotational axes: 
x,y,z [a.u.] :     0.122869    -0.738505    -0.034612 
x,y,z [Debye]:     0.312308    -1.877132    -0.087976 

 

                        *** CIS RELAXED DENSITY ***

------------------------------------------------------------------------------
                       ORCA ELECTRIC PROPERTIES CALCULATION
------------------------------------------------------------------------------

Dipole Moment Calculation                       ... on
Quadrupole Moment Calculation                   ... off
Polarizability Calculation                      ... off
GBWName                                         ... ox_es1_A_orca0036.gbw
Electron density                                ... ox_es1_A_orca0036.cisp
The origin for moment calculation is the CENTER OF MASS  = ( 0.098174, -0.059025  0.009185)

-------------
DIPOLE MOMENT
-------------
                                X             Y             Z
Electronic contribution:     -0.28393       2.21310      -0.13875
Nuclear contribution   :     -0.25497      -2.33928       0.10883
                        -----------------------------------------
Total Dipole Moment    :     -0.53891      -0.12619      -0.02992
                        -----------------------------------------
Magnitude (a.u.)       :      0.55429
Magnitude (Debye)      :      1.40890



--------------------
Rotational spectrum 
--------------------
 
Rotational constants in cm-1:     0.846994     0.688075     0.446590 
Rotational constants in MHz : 25392.254147 20627.982131 13388.443967 

 Dipole components along the rotational axes: 
x,y,z [a.u.] :    -0.523833    -0.178837    -0.029247 
x,y,z [Debye]:    -1.331477    -0.454569    -0.074339 

 

Timings for individual modules:

Sum of individual times         ...        7.730 sec (=   0.129 min)
GTO integral calculation        ...        0.307 sec (=   0.005 min)   4.0 %
SCF iterations                  ...        1.181 sec (=   0.020 min)  15.3 %
CIS module                      ...        1.075 sec (=   0.018 min)  13.9 %
SCF Gradient evaluation         ...        5.167 sec (=   0.086 min)  66.8 %
                             ****ORCA TERMINATED NORMALLY****
TOTAL RUN TIME: 0 days 0 hours 0 minutes 8 seconds 111 msec
