
                                 *****************
                                 * O   R   C   A *
                                 *****************

                                            #,                                       
                                            ###                                      
                                            ####                                     
                                            #####                                    
                                            ######                                   
                                           ########,                                 
                                     ,,################,,,,,                         
                               ,,#################################,,                 
                          ,,##########################################,,             
                       ,#########################################, ''#####,          
                    ,#############################################,,   '####,        
                  ,##################################################,,,,####,       
                ,###########''''           ''''###############################       
              ,#####''   ,,,,##########,,,,          '''####'''          '####       
            ,##' ,,,,###########################,,,                        '##       
           ' ,,###''''                  '''############,,,                           
         ,,##''                                '''############,,,,        ,,,,,,###''
      ,#''                                            '''#######################'''  
     '                                                          ''''####''''         
             ,#######,   #######,   ,#######,      ##                                
            ,#'     '#,  ##    ##  ,#'     '#,    #''#        ######   ,####,        
            ##       ##  ##   ,#'  ##            #'  '#       #        #'  '#        
            ##       ##  #######   ##           ,######,      #####,   #    #        
            '#,     ,#'  ##    ##  '#,     ,#' ,#      #,         ##   #,  ,#        
             '#######'   ##     ##  '#######'  #'      '#     #####' # '####'        



                  #######################################################
                  #                        -***-                        #
                  #          Department of theory and spectroscopy      #
                  #    Directorship and core code : Frank Neese         #
                  #        Max Planck Institute fuer Kohlenforschung    #
                  #                Kaiser Wilhelm Platz 1               #
                  #                 D-45470 Muelheim/Ruhr               #
                  #                      Germany                        #
                  #                                                     #
                  #                  All rights reserved                #
                  #                        -***-                        #
                  #######################################################


                         Program Version 5.0.2 -  RELEASE  -


 With contributions from (in alphabetic order):
   Daniel Aravena         : Magnetic Suceptibility
   Michael Atanasov       : Ab Initio Ligand Field Theory (pilot matlab implementation)
   Alexander A. Auer      : GIAO ZORA, VPT2 properties, NMR spectrum
   Ute Becker             : Parallelization
   Giovanni Bistoni       : ED, misc. LED, open-shell LED, HFLD
   Martin Brehm           : Molecular dynamics
   Dmytro Bykov           : SCF Hessian
   Vijay G. Chilkuri      : MRCI spin determinant printing, contributions to CSF-ICE
   Dipayan Datta          : RHF DLPNO-CCSD density
   Achintya Kumar Dutta   : EOM-CC, STEOM-CC
   Dmitry Ganyushin       : Spin-Orbit,Spin-Spin,Magnetic field MRCI
   Miquel Garcia          : C-PCM and meta-GGA Hessian, CC/C-PCM, Gaussian charge scheme
   Yang Guo               : DLPNO-NEVPT2, F12-NEVPT2, CIM, IAO-localization
   Andreas Hansen         : Spin unrestricted coupled pair/coupled cluster methods
   Benjamin Helmich-Paris : MC-RPA, TRAH-SCF, COSX integrals
   Lee Huntington         : MR-EOM, pCC
   Robert Izsak           : Overlap fitted RIJCOSX, COSX-SCS-MP3, EOM
   Marcus Kettner         : VPT2
   Christian Kollmar      : KDIIS, OOCD, Brueckner-CCSD(T), CCSD density, CASPT2, CASPT2-K
   Simone Kossmann        : Meta GGA functionals, TD-DFT gradient, OOMP2, MP2 Hessian
   Martin Krupicka        : Initial AUTO-CI
   Lucas Lang             : DCDCAS
   Marvin Lechner         : AUTO-CI (C++ implementation), FIC-MRCC
   Dagmar Lenk            : GEPOL surface, SMD
   Dimitrios Liakos       : Extrapolation schemes; Compound Job, initial MDCI parallelization
   Dimitrios Manganas     : Further ROCIS development; embedding schemes
   Dimitrios Pantazis     : SARC Basis sets
   Anastasios Papadopoulos: AUTO-CI, single reference methods and gradients
   Taras Petrenko         : DFT Hessian,TD-DFT gradient, ASA, ECA, R-Raman, ABS, FL, XAS/XES, NRVS
   Peter Pinski           : DLPNO-MP2, DLPNO-MP2 Gradient
   Christoph Reimann      : Effective Core Potentials
   Marius Retegan         : Local ZFS, SOC
   Christoph Riplinger    : Optimizer, TS searches, QM/MM, DLPNO-CCSD(T), (RO)-DLPNO pert. Triples
   Tobias Risthaus        : Range-separated hybrids, TD-DFT gradient, RPA, STAB
   Michael Roemelt        : Original ROCIS implementation
   Masaaki Saitow         : Open-shell DLPNO-CCSD energy and density
   Barbara Sandhoefer     : DKH picture change effects
   Avijit Sen             : IP-ROCIS
   Kantharuban Sivalingam : CASSCF convergence, NEVPT2, FIC-MRCI
   Bernardo de Souza      : ESD, SOC TD-DFT
   Georgi Stoychev        : AutoAux, RI-MP2 NMR, DLPNO-MP2 response
   Willem Van den Heuvel  : Paramagnetic NMR
   Boris Wezisla          : Elementary symmetry handling
   Frank Wennmohs         : Technical directorship


 We gratefully acknowledge several colleagues who have allowed us to
 interface, adapt or use parts of their codes:
   Stefan Grimme, W. Hujo, H. Kruse, P. Pracht,  : VdW corrections, initial TS optimization,
                  C. Bannwarth, S. Ehlert          DFT functionals, gCP, sTDA/sTD-DF
   Ed Valeev, F. Pavosevic, A. Kumar             : LibInt (2-el integral package), F12 methods
   Garnet Chan, S. Sharma, J. Yang, R. Olivares  : DMRG
   Ulf Ekstrom                                   : XCFun DFT Library
   Mihaly Kallay                                 : mrcc  (arbitrary order and MRCC methods)
   Jiri Pittner, Ondrej Demel                    : Mk-CCSD
   Frank Weinhold                                : gennbo (NPA and NBO analysis)
   Christopher J. Cramer and Donald G. Truhlar   : smd solvation model
   Lars Goerigk                                  : TD-DFT with DH, B97 family of functionals
   V. Asgeirsson, H. Jonsson                     : NEB implementation
   FAccTs GmbH                                   : IRC, NEB, NEB-TS, DLPNO-Multilevel, CI-OPT
                                                   MM, QMMM, 2- and 3-layer-ONIOM, Crystal-QMMM,
                                                   LR-CPCM, SF, NACMEs, symmetry and pop. for TD-DFT,
                                                   nearIR, NL-DFT gradient (VV10), updates on ESD,
                                                   ML-optimized integration grids
   S Lehtola, MJT Oliveira, MAL Marques          : LibXC Library
   Liviu Ungur et al                             : ANISO software


 Your calculation uses the libint2 library for the computation of 2-el integrals
 For citations please refer to: http://libint.valeyev.net

 Your ORCA version has been built with support for libXC version: 5.1.0
 For citations please refer to: https://tddft.org/programs/libxc/

 This ORCA versions uses:
   CBLAS   interface :  Fast vector & matrix operations
   LAPACKE interface :  Fast linear algebra routines
   SCALAPACK package :  Parallel linear algebra routines
   Shared memory     :  Shared parallel matrices
   BLAS/LAPACK       :  OpenBLAS 0.3.15  USE64BITINT DYNAMIC_ARCH NO_AFFINITY SkylakeX SINGLE_THREADED
        Core in use  :  SkylakeX
   Copyright (c) 2011-2014, The OpenBLAS Project


Your calculation utilizes the atom-pairwise dispersion correction
with the Becke-Johnson damping scheme (D3BJ)
Cite in your paper:
S.Grimme, S.Ehrlich, L.Goerigk, J Comput Chem, (2011), 32, 1456–1465 
S.Grimme, J.Antony, S.Ehrlich and H.Krieg, J.Chem.Phys., 132, (2010), 154104 
   

================================================================================

----- Orbital basis set information -----
Your calculation utilizes the basis: def2-TZVP
   F. Weigend and R. Ahlrichs, Phys. Chem. Chem. Phys. 7, 3297 (2005).

----- AuxJ basis set information -----
Your calculation utilizes the auxiliary basis: def2/J
   F. Weigend, Phys. Chem. Chem. Phys. 8, 1057 (2006).

================================================================================
                                        WARNINGS
                       Please study these warnings very carefully!
================================================================================

INFO   : Checking CIS options ...

WARNING: CIS/ROCIS methods need fully converged wavefunctions
  ===> : Setting SCFConvForced true
         You can overwrite this default with %scf ConvForced false 


INFO   : the flag for use of the SHARK integral package has been found!

================================================================================
                                       INPUT FILE
================================================================================
NAME = ox_es1_A_orca0010.inp
|  1> ! engrad PBE0 D3BJ def2-TZVP  
|  2> %pal nprocs 8 end
|  3> %maxcore 3000
|  4> 
|  5> %tddft
|  6>   nroots 1
|  7>   tda true
|  8>   Iroot 1
|  9>   end 
| 10> *xyz 0 1 
| 11> O   0.02854457553465835 0.82370259200903 0.04770019817466012
| 12> C   -0.6963200274347101 -0.4627839522320173 0.03794846102466337
| 13> C   0.6902482792731214 -0.45886142033700045 -0.024268177391455176
| 14> H   -1.2597292230306838 -0.5525378816663246 0.8266129603704127
| 15> H   -1.2295097604812744 -0.7489067035594826 -0.9435728132894717
| 16> H   1.318270349848368 -0.6650568590452269 -0.9738634588964653
| 17> H   1.2280576845370017 -0.6342909225532662 0.8834578384141432
| 18> *
| 19> 
| 20>                          ****END OF INPUT****
================================================================================

                     *******************************
                     * Energy+Gradient Calculation *
                     *******************************

---------------------------------
CARTESIAN COORDINATES (ANGSTROEM)
---------------------------------
  O      0.028545    0.823703    0.047700
  C     -0.696320   -0.462784    0.037948
  C      0.690248   -0.458861   -0.024268
  H     -1.259729   -0.552538    0.826613
  H     -1.229510   -0.748907   -0.943573
  H      1.318270   -0.665057   -0.973863
  H      1.228058   -0.634291    0.883458

----------------------------
CARTESIAN COORDINATES (A.U.)
----------------------------
  NO LB      ZA    FRAG     MASS         X           Y           Z
   0 O     8.0000    0    15.999    0.053941    1.556572    0.090140
   1 C     6.0000    0    12.011   -1.315854   -0.874535    0.071712
   2 C     6.0000    0    12.011    1.304380   -0.867122   -0.045860
   3 H     1.0000    0     1.008   -2.380543   -1.044145    1.562072
   4 H     1.0000    0     1.008   -2.323437   -1.415229   -1.783094
   5 H     1.0000    0     1.008    2.491170   -1.256775   -1.840335
   6 H     1.0000    0     1.008    2.320693   -1.198636    1.669493

--------------------------------
INTERNAL COORDINATES (ANGSTROEM)
--------------------------------
 O      0   0   0     0.000000000000     0.00000000     0.00000000
 C      1   0   0     1.476675799737     0.00000000     0.00000000
 C      2   1   0     1.387969007406    60.49189772     0.00000000
 H      2   1   3     0.973384498571   111.04540373   122.62718539
 H      2   1   3     1.153057471328   116.66622116   254.83582293
 H      3   2   1     1.157004528397   125.34782246   255.37838096
 H      3   2   1     1.069570468183   117.63347498    98.87210898

---------------------------
INTERNAL COORDINATES (A.U.)
---------------------------
 O      0   0   0     0.000000000000     0.00000000     0.00000000
 C      1   0   0     2.790512850092     0.00000000     0.00000000
 C      2   1   0     2.622881306367    60.49189772     0.00000000
 H      2   1   3     1.839430125304   111.04540373   122.62718539
 H      2   1   3     2.178962837481   116.66622116   254.83582293
 H      3   2   1     2.186421694376   125.34782246   255.37838096
 H      3   2   1     2.021195265795   117.63347498    98.87210898

---------------------
BASIS SET INFORMATION
---------------------
There are 3 groups of distinct atoms

 Group   1 Type O   : 11s6p2d1f contracted to 5s3p2d1f pattern {62111/411/11/1}
 Group   2 Type C   : 11s6p2d1f contracted to 5s3p2d1f pattern {62111/411/11/1}
 Group   3 Type H   : 5s1p contracted to 3s1p pattern {311/1}

Atom   0O    basis set group =>   1
Atom   1C    basis set group =>   2
Atom   2C    basis set group =>   2
Atom   3H    basis set group =>   3
Atom   4H    basis set group =>   3
Atom   5H    basis set group =>   3
Atom   6H    basis set group =>   3
---------------------------------
AUXILIARY/J BASIS SET INFORMATION
---------------------------------
There are 3 groups of distinct atoms

 Group   1 Type O   : 12s5p4d2f1g contracted to 6s4p3d1f1g pattern {711111/2111/211/2/1}
 Group   2 Type C   : 12s5p4d2f1g contracted to 6s4p3d1f1g pattern {711111/2111/211/2/1}
 Group   3 Type H   : 5s2p1d contracted to 3s1p1d pattern {311/2/1}

Atom   0O    basis set group =>   1
Atom   1C    basis set group =>   2
Atom   2C    basis set group =>   2
Atom   3H    basis set group =>   3
Atom   4H    basis set group =>   3
Atom   5H    basis set group =>   3
Atom   6H    basis set group =>   3

Checking for AutoStart:
The File: ox_es1_A_orca0010.gbw exists
Trying to determine its content:
     ... Fine, the file contains calculation information
     ... Fine, the calculation information was read
     ... Fine, the file contains a basis set
     ... Fine, the basis set was read
     ... Fine, the file contains a geometry
     ... Fine, the geometry was read
     ... Fine, the file contains a set of orbitals
     ... Fine, the orbitals can be read
     => possible old guess file was deleted
     => GBW file was renamed to GES file
     => GES file is set as startup file
     => Guess is set to MORead
     ... now leaving AutoStart



           ************************************************************
           *        Program running with 8 parallel MPI-processes     *
           *              working on a common directory               *
           ************************************************************
------------------------------------------------------------------------------
                           ORCA GTO INTEGRAL CALCULATION
                           -- RI-GTO INTEGRALS CHOSEN --
------------------------------------------------------------------------------
------------------------------------------------------------------------------
                   ___                                                        
                  /   \      - P O W E R E D   B Y -                         
                 /     \                                                     
                 |  |  |   _    _      __       _____    __    __             
                 |  |  |  | |  | |    /  \     |  _  \  |  |  /  |          
                  \  \/   | |  | |   /    \    | | | |  |  | /  /          
                 / \  \   | |__| |  /  /\  \   | |_| |  |  |/  /          
                |  |  |   |  __  | /  /__\  \  |    /   |      \           
                |  |  |   | |  | | |   __   |  |    \   |  |\   \          
                \     /   | |  | | |  |  |  |  | |\  \  |  | \   \       
                 \___/    |_|  |_| |__|  |__|  |_| \__\ |__|  \__/        
                                                                              
                      - O R C A' S   B I G   F R I E N D -                    
                                      &                                       
                       - I N T E G R A L  F E E D E R -                       
                                                                              
 v1 FN, 2020, v2 2021                                                         
------------------------------------------------------------------------------


Reading SHARK input file ox_es1_A_orca0010.SHARKINP.tmp ... ok
----------------------
SHARK INTEGRAL PACKAGE
----------------------

Number of atoms                             ...      7
Number of basis functions                   ...    117
Number of shells                            ...     49
Maximum angular momentum                    ...      3
Integral batch strategy                     ... SHARK/LIBINT Hybrid
RI-J (if used) integral strategy            ... SPLIT-RIJ (Revised 2003 algorithm where possible)
Printlevel                                  ...      1
Contraction scheme used                     ... SEGMENTED contraction
Coulomb Range Separation                    ... NOT USED
Exchange Range Separation                   ... NOT USED
Finite Nucleus Model                        ... NOT USED
Auxiliary Coulomb fitting basis             ... AVAILABLE
   # of basis functions in Aux-J            ...    191
   # of shells in Aux-J                     ...     65
   Maximum angular momentum in Aux-J        ...      4
Auxiliary J/K fitting basis                 ... NOT available
Auxiliary Correlation fitting basis         ... NOT available
Auxiliary 'external' fitting basis          ... NOT available
Integral threshold                          ...     2.500000e-11
Primitive cut-off                           ...     2.500000e-12
Primitive pair pre-selection threshold      ...     2.500000e-12

Calculating pre-screening integrals         ... done (  0.0 sec) Dimension = 49
Organizing shell pair data                  ... done (  0.0 sec)
Shell pair information
Total number of shell pairs                 ...      1225
Shell pairs after pre-screening             ...      1220
Total number of primitive shell pairs       ...      3648
Primitive shell pairs kept                  ...      3152
          la=0 lb=0:    373 shell pairs
          la=1 lb=0:    351 shell pairs
          la=1 lb=1:     91 shell pairs
          la=2 lb=0:    162 shell pairs
          la=2 lb=1:     78 shell pairs
          la=2 lb=2:     21 shell pairs
          la=3 lb=0:     81 shell pairs
          la=3 lb=1:     39 shell pairs
          la=3 lb=2:     18 shell pairs
          la=3 lb=3:      6 shell pairs

Calculating one electron integrals          ... done (  0.0 sec)
Calculating RI/J V-Matrix + Cholesky decomp.... done (  0.0 sec)
Calculating Nuclear repulsion               ... done (  0.0 sec) ENN=     75.372648897652 Eh

SHARK setup successfully completed in   0.1 seconds

Maximum memory used throughout the entire GTOINT-calculation: 14.9 MB


           ************************************************************
           *        Program running with 8 parallel MPI-processes     *
           *              working on a common directory               *
           ************************************************************
-------------------------------------------------------------------------------
                                 ORCA SCF
-------------------------------------------------------------------------------

------------
SCF SETTINGS
------------
Hamiltonian:
 Density Functional     Method          .... DFT(GTOs)
 Exchange Functional    Exchange        .... PBE
   PBE kappa parameter   XKappa         ....  0.804000
   PBE mue parameter    XMuePBE         ....  0.219520
 Correlation Functional Correlation     .... PBE
   PBE beta parameter  CBetaPBE         ....  0.066725
 LDA part of GGA corr.  LDAOpt          .... PW91-LDA
 Gradients option       PostSCFGGA      .... off
 Hybrid DFT is turned on
   Fraction HF Exchange ScalHFX         ....  0.250000
   Scaling of DF-GGA-X  ScalDFX         ....  0.750000
   Scaling of DF-GGA-C  ScalDFC         ....  1.000000
   Scaling of DF-LDA-C  ScalLDAC        ....  1.000000
   Perturbative correction              ....  0.000000
   Density functional embedding theory  .... OFF
   NL short-range parameter             ....  6.900000
 RI-approximation to the Coulomb term is turned on
   Number of AuxJ basis functions       .... 191
   RIJ-COSX (HFX calculated with COS-X)).... on


General Settings:
 Integral files         IntName         .... ox_es1_A_orca0010
 Hartree-Fock type      HFTyp           .... RHF
 Total Charge           Charge          ....    0
 Multiplicity           Mult            ....    1
 Number of Electrons    NEL             ....   24
 Basis Dimension        Dim             ....  117
 Nuclear Repulsion      ENuc            ....     75.3726488977 Eh

Convergence Acceleration:
 DIIS                   CNVDIIS         .... on
   Start iteration      DIISMaxIt       ....    12
   Startup error        DIISStart       ....  0.200000
   # of expansion vecs  DIISMaxEq       ....     5
   Bias factor          DIISBfac        ....   1.050
   Max. coefficient     DIISMaxC        ....  10.000
 Trust-Rad. Augm. Hess. CNVTRAH         .... auto
   Auto Start mean grad. ratio tolernc. ....  1.125000
   Auto Start start iteration           ....     1
   Auto Start num. interpolation iter.  ....    10
   Max. Number of Micro iterations      ....    16
   Max. Number of Macro iterations      .... Maxiter - #DIIS iter
   Number of Davidson start vectors     ....     2
   Converg. threshold I  (grad. norm)   ....   1.000e-05
   Converg. threshold II (energy diff.) ....   1.000e-08
   Grad. Scal. Fac. for Micro threshold ....   0.100
   Minimum threshold for Micro iter.    ....   0.010
   NR start threshold (gradient norm)   ....   0.001
   Initial trust radius                 ....   0.400
   Minimum AH scaling param. (alpha)    ....   1.000
   Maximum AH scaling param. (alpha)    .... 1000.000
   Orbital update algorithm             .... Taylor
   White noise on init. David. guess    .... on
   Maximum white noise                  ....   0.010
   Quad. conv. algorithm                .... NR
 SOSCF                  CNVSOSCF        .... on
   Start iteration      SOSCFMaxIt      ....   150
   Startup grad/error   SOSCFStart      ....  0.003300
 Level Shifting         CNVShift        .... on
   Level shift para.    LevelShift      ....    0.2500
   Turn off err/grad.   ShiftErr        ....    0.0010
 Zerner damping         CNVZerner       .... off
 Static damping         CNVDamp         .... on
   Fraction old density DampFac         ....    0.7000
   Max. Damping (<1)    DampMax         ....    0.9800
   Min. Damping (>=0)   DampMin         ....    0.0000
   Turn off err/grad.   DampErr         ....    0.1000
 Fernandez-Rico         CNVRico         .... off

SCF Procedure:
 Maximum # iterations   MaxIter         ....   125
 SCF integral mode      SCFMode         .... Direct
   Integral package                     .... SHARK and LIBINT hybrid scheme
 Reset frequency        DirectResetFreq ....    20
 Integral Threshold     Thresh          ....  2.500e-11 Eh
 Primitive CutOff       TCut            ....  2.500e-12 Eh

Convergence Tolerance:
 Convergence Check Mode ConvCheckMode   .... Total+1el-Energy
 Convergence forced     ConvForced      .... 1
 Energy Change          TolE            ....  1.000e-08 Eh
 1-El. energy change                    ....  1.000e-05 Eh
 Orbital Gradient       TolG            ....  1.000e-05
 Orbital Rotation angle TolX            ....  1.000e-05
 DIIS Error             TolErr          ....  5.000e-07


Diagonalization of the overlap matrix:
Smallest eigenvalue                        ... 2.430e-04
Time for diagonalization                   ...    0.001 sec
Threshold for overlap eigenvalues          ... 1.000e-08
Number of eigenvalues below threshold      ... 0
Time for construction of square roots      ...    0.001 sec
Total time needed                          ...    0.003 sec

---------------------
INITIAL GUESS: MOREAD
---------------------
Guess MOs are being read from file: ox_es1_A_orca0010.ges
Input Geometry matches current geometry (good)
Input basis set matches current basis set (good)
MOs were renormalized
MOs were reorthogonalized (Cholesky)
                      ------------------
                      INITIAL GUESS DONE (   0.0 sec)
                      ------------------
-------------------
DFT GRID GENERATION
-------------------

General Integration Accuracy     IntAcc      ... 4.388
Radial Grid Type                 RadialGrid  ... OptM3 with GC (2021)
Angular Grid (max. ang.)         AngularGrid ... 4 (Lebedev-302)
Angular grid pruning method      GridPruning ... 4 (adaptive)
Weight generation scheme         WeightScheme... Becke
Basis function cutoff            BFCut       ... 1.0000e-11
Integration weight cutoff        WCut        ... 1.0000e-14
Angular grids for H and He will be reduced by one unit
Partially contracted basis set               ... off
Rotationally invariant grid construction     ... off

Total number of grid points                  ...    31303
Total number of batches                      ...      494
Average number of points per batch           ...       63
Average number of grid points per atom       ...     4472
Time for grid setup =    0.119 sec

--------------------
COSX GRID GENERATION
--------------------

GRIDX 1
-------
General Integration Accuracy     IntAcc      ... 3.816
Radial Grid Type                 RadialGrid  ... OptM3 with GC (2021)
Angular Grid (max. ang.)         AngularGrid ... 1 (Lebedev-50)
Angular grid pruning method      GridPruning ... 4 (adaptive)
Weight generation scheme         WeightScheme... Becke
Basis function cutoff            BFCut       ... 1.0000e-11
Integration weight cutoff        WCut        ... 1.0000e-14
Angular grids for H and He will be reduced by one unit
Partially contracted basis set               ... on
Rotationally invariant grid construction     ... off

Total number of grid points                  ...     4034
Total number of batches                      ...       67
Average number of points per batch           ...       60
Average number of grid points per atom       ...      576
UseSFitting                                  ... on

GRIDX 2
-------
General Integration Accuracy     IntAcc      ... 4.020
Radial Grid Type                 RadialGrid  ... OptM3 with GC (2021)
Angular Grid (max. ang.)         AngularGrid ... 2 (Lebedev-110)
Angular grid pruning method      GridPruning ... 4 (adaptive)
Weight generation scheme         WeightScheme... Becke
Basis function cutoff            BFCut       ... 1.0000e-11
Integration weight cutoff        WCut        ... 1.0000e-14
Angular grids for H and He will be reduced by one unit
Partially contracted basis set               ... on
Rotationally invariant grid construction     ... off

Total number of grid points                  ...     8710
Total number of batches                      ...      141
Average number of points per batch           ...       61
Average number of grid points per atom       ...     1244
UseSFitting                                  ... on

GRIDX 3
-------
General Integration Accuracy     IntAcc      ... 4.338
Radial Grid Type                 RadialGrid  ... OptM3 with GC (2021)
Angular Grid (max. ang.)         AngularGrid ... 3 (Lebedev-194)
Angular grid pruning method      GridPruning ... 4 (adaptive)
Weight generation scheme         WeightScheme... Becke
Basis function cutoff            BFCut       ... 1.0000e-11
Integration weight cutoff        WCut        ... 1.0000e-14
Angular grids for H and He will be reduced by one unit
Partially contracted basis set               ... on
Rotationally invariant grid construction     ... off

Total number of grid points                  ...    19243
Total number of batches                      ...      305
Average number of points per batch           ...       63
Average number of grid points per atom       ...     2749
UseSFitting                                  ... on

Time for X-Grid setup             =    0.072 sec

--------------
SCF ITERATIONS
--------------
ITER       Energy         Delta-E        Max-DP      RMS-DP      [F,P]     Damp
               ***  Starting incremental Fock matrix formation  ***
                      *** Initiating the SOSCF procedure ***
                      *** Re-Reading the Fockian *** 
                      *** Removing any level shift *** 
ITER      Energy       Delta-E        Grad      Rot      Max-DP    RMS-DP
  0   -153.64920331 -153.6492033068  0.000001  0.000001  0.000001  0.000000
               *** Restarting incremental Fock matrix formation ***
                  ***Gradient check signals convergence***
              ***Rediagonalizing the Fockian in SOSCF/NRSCF***

               *****************************************************
               *                     SUCCESS                       *
               *           SCF CONVERGED AFTER   1 CYCLES          *
               *****************************************************

Old exchange energy                            =     -5.000263478 Eh
New exchange energy                            =     -5.000253467 Eh
Exchange energy change after final integration =      0.000010011 Eh
Total energy after final integration           =   -153.649193296 Eh
Final COS-X integration done in                =     0.249 sec

----------------
TOTAL SCF ENERGY
----------------

Total Energy       :         -153.64919330 Eh           -4181.00711 eV

Components:
Nuclear Repulsion  :           75.37264890 Eh            2050.99405 eV
Electronic Energy  :         -229.02184219 Eh           -6232.00115 eV
One Electron Energy:         -357.41149013 Eh           -9725.66109 eV
Two Electron Energy:          128.38964794 Eh            3493.65993 eV
Max COSX asymmetry :            0.00000219 Eh               0.00006 eV

Virial components:
Potential Energy   :         -306.73077466 Eh           -8346.56871 eV
Kinetic Energy     :          153.08158137 Eh            4165.56160 eV
Virial Ratio       :            2.00370790


DFT components:
N(Alpha)           :       12.000000090465 electrons
N(Beta)            :       12.000000090465 electrons
N(Total)           :       24.000000180931 electrons
E(X)               :      -14.972277032362 Eh       
E(C)               :       -0.790398706836 Eh       
E(XC)              :      -15.762675739198 Eh       
DFET-embed. en.    :        0.000000000000 Eh       

---------------
SCF CONVERGENCE
---------------

  Last Energy change         ...   -3.0155e-11  Tolerance :   1.0000e-08
  Last MAX-Density change    ...    4.4409e-16  Tolerance :   1.0000e-07
  Last RMS-Density change    ...    1.5297e-17  Tolerance :   5.0000e-09
  Last Orbital Gradient      ...    2.2801e-07  Tolerance :   1.0000e-05
  Last Orbital Rotation      ...    3.1263e-07  Tolerance :   1.0000e-05

             **** THE GBW FILE WAS UPDATED (ox_es1_A_orca0010.gbw) ****
             **** DENSITY ox_es1_A_orca0010.scfp WAS UPDATED ****
             **** ENERGY FILE WAS UPDATED (ox_es1_A_orca0010.en.tmp) ****
             **** THE GBW FILE WAS UPDATED (ox_es1_A_orca0010.gbw) ****
             **** DENSITY ox_es1_A_orca0010.scfp WAS UPDATED ****
----------------
ORBITAL ENERGIES
----------------

  NO   OCC          E(Eh)            E(eV) 
   0   2.0000     -19.219253      -522.9825 
   1   2.0000     -10.276956      -279.6502 
   2   2.0000     -10.268906      -279.4311 
   3   2.0000      -1.091781       -29.7089 
   4   2.0000      -0.719358       -19.5747 
   5   2.0000      -0.652878       -17.7657 
   6   2.0000      -0.535806       -14.5800 
   7   2.0000      -0.503029       -13.6881 
   8   2.0000      -0.392309       -10.6753 
   9   2.0000      -0.392023       -10.6675 
  10   2.0000      -0.349947        -9.5225 
  11   2.0000      -0.287270        -7.8170 
  12   0.0000       0.056617         1.5406 
  13   0.0000       0.068043         1.8515 
  14   0.0000       0.086382         2.3506 
  15   0.0000       0.095394         2.5958 
  16   0.0000       0.102639         2.7930 
  17   0.0000       0.152175         4.1409 
  18   0.0000       0.189162         5.1474 
  19   0.0000       0.220891         6.0107 
  20   0.0000       0.269357         7.3296 
  21   0.0000       0.273192         7.4339 
  22   0.0000       0.289231         7.8704 
  23   0.0000       0.309741         8.4285 
  24   0.0000       0.387021        10.5314 
  25   0.0000       0.401413        10.9230 
  26   0.0000       0.423695        11.5293 
  27   0.0000       0.450007        12.2453 
  28   0.0000       0.457282        12.4433 
  29   0.0000       0.468516        12.7490 
  30   0.0000       0.502617        13.6769 
  31   0.0000       0.517788        14.0897 
  32   0.0000       0.564238        15.3537 
  33   0.0000       0.685012        18.6401 
  34   0.0000       0.714512        19.4429 
  35   0.0000       0.733518        19.9600 
  36   0.0000       0.816296        22.2125 
  37   0.0000       0.844257        22.9734 
  38   0.0000       0.880642        23.9635 
  39   0.0000       0.957113        26.0444 
  40   0.0000       1.015029        27.6203 
  41   0.0000       1.041738        28.3471 
  42   0.0000       1.086989        29.5785 
  43   0.0000       1.097940        29.8765 
  44   0.0000       1.195222        32.5236 
  45   0.0000       1.356765        36.9194 
  46   0.0000       1.476903        40.1886 
  47   0.0000       1.496672        40.7265 
  48   0.0000       1.515734        41.2452 
  49   0.0000       1.533288        41.7229 
  50   0.0000       1.580108        42.9969 
  51   0.0000       1.620417        44.0938 
  52   0.0000       1.661018        45.1986 
  53   0.0000       1.685900        45.8757 
  54   0.0000       1.776267        48.3347 
  55   0.0000       1.810911        49.2774 
  56   0.0000       1.840221        50.0750 
  57   0.0000       1.882849        51.2349 
  58   0.0000       1.911841        52.0238 
  59   0.0000       1.995838        54.3095 
  60   0.0000       2.125972        57.8506 
  61   0.0000       2.166481        58.9529 
  62   0.0000       2.228770        60.6479 
  63   0.0000       2.258710        61.4626 
  64   0.0000       2.265964        61.6600 
  65   0.0000       2.375607        64.6436 
  66   0.0000       2.396301        65.2067 
  67   0.0000       2.506925        68.2169 
  68   0.0000       2.532811        68.9213 
  69   0.0000       2.564936        69.7954 
  70   0.0000       2.626616        71.4739 
  71   0.0000       2.682392        72.9916 
  72   0.0000       2.725036        74.1520 
  73   0.0000       2.749311        74.8125 
  74   0.0000       2.767714        75.3133 
  75   0.0000       2.804379        76.3110 
  76   0.0000       2.918804        79.4247 
  77   0.0000       2.948951        80.2450 
  78   0.0000       2.972578        80.8880 
  79   0.0000       3.011449        81.9457 
  80   0.0000       3.040585        82.7385 
  81   0.0000       3.072143        83.5972 
  82   0.0000       3.179250        86.5118 
  83   0.0000       3.255900        88.5976 
  84   0.0000       3.318745        90.3076 
  85   0.0000       3.367164        91.6252 
  86   0.0000       3.384129        92.0868 
  87   0.0000       3.396365        92.4198 
  88   0.0000       3.576417        97.3192 
  89   0.0000       3.598152        97.9107 
  90   0.0000       3.694580       100.5346 
  91   0.0000       3.701438       100.7213 
  92   0.0000       3.955654       107.6388 
  93   0.0000       4.113918       111.9454 
  94   0.0000       4.199836       114.2833 
  95   0.0000       4.207907       114.5030 
  96   0.0000       4.244269       115.4924 
  97   0.0000       4.303502       117.1042 
  98   0.0000       4.501098       122.4811 
  99   0.0000       4.562002       124.1384 
 100   0.0000       4.789247       130.3220 
 101   0.0000       4.881840       132.8416 
 102   0.0000       5.273980       143.5123 
 103   0.0000       5.412640       147.2854 
 104   0.0000       5.658192       153.9672 
 105   0.0000       5.697067       155.0251 
 106   0.0000       5.723596       155.7470 
 107   0.0000       5.859363       159.4414 
 108   0.0000       6.005530       163.4188 
 109   0.0000       6.549232       178.2137 
 110   0.0000       6.600873       179.6189 
 111   0.0000       6.785088       184.6316 
 112   0.0000       6.970302       189.6716 
 113   0.0000       7.170328       195.1145 
 114   0.0000      22.277074       606.1900 
 115   0.0000      22.562032       613.9441 
 116   0.0000      43.833502      1192.7702 

                    ********************************
                    * MULLIKEN POPULATION ANALYSIS *
                    ********************************

-----------------------
MULLIKEN ATOMIC CHARGES
-----------------------
   0 O :   -0.332939
   1 C :   -0.078132
   2 C :   -0.053561
   3 H :    0.129739
   4 H :    0.104116
   5 H :    0.122177
   6 H :    0.108599
Sum of atomic charges:   -0.0000000

--------------------------------
MULLIKEN REDUCED ORBITAL CHARGES
--------------------------------
  0 O s       :     3.872576  s :     3.872576
      pz      :     1.852216  p :     4.418908
      px      :     1.356478
      py      :     1.210214
      dz2     :     0.005607  d :     0.039381
      dxz     :     0.002241
      dyz     :     0.006354
      dx2y2   :     0.011603
      dxy     :     0.013577
      f0      :     0.000233  f :     0.002074
      f+1     :     0.000161
      f-1     :     0.000464
      f+2     :     0.000102
      f-2     :     0.000173
      f+3     :     0.000400
      f-3     :     0.000541
  1 C s       :     3.212021  s :     3.212021
      pz      :     1.052162  p :     2.743615
      px      :     0.927157
      py      :     0.764296
      dz2     :     0.005634  d :     0.111246
      dxz     :     0.026684
      dyz     :     0.028092
      dx2y2   :     0.029158
      dxy     :     0.021678
      f0      :     0.001465  f :     0.011250
      f+1     :     0.001299
      f-1     :     0.000586
      f+2     :     0.001623
      f-2     :     0.001407
      f+3     :     0.001860
      f-3     :     0.003010
  2 C s       :     3.211975  s :     3.211975
      pz      :     1.043323  p :     2.711852
      px      :     0.914934
      py      :     0.753596
      dz2     :     0.005607  d :     0.118150
      dxz     :     0.027337
      dyz     :     0.031460
      dx2y2   :     0.030917
      dxy     :     0.022829
      f0      :     0.001501  f :     0.011584
      f+1     :     0.001305
      f-1     :     0.000636
      f+2     :     0.001773
      f-2     :     0.001400
      f+3     :     0.001776
      f-3     :     0.003192
  3 H s       :     0.845951  s :     0.845951
      pz      :     0.010718  p :     0.024310
      px      :     0.008418
      py      :     0.005173
  4 H s       :     0.877117  s :     0.877117
      pz      :     0.010064  p :     0.018767
      px      :     0.005332
      py      :     0.003372
  5 H s       :     0.859292  s :     0.859292
      pz      :     0.009551  p :     0.018531
      px      :     0.006134
      py      :     0.002846
  6 H s       :     0.869520  s :     0.869520
      pz      :     0.011076  p :     0.021881
      px      :     0.006624
      py      :     0.004181


                     *******************************
                     * LOEWDIN POPULATION ANALYSIS *
                     *******************************

----------------------
LOEWDIN ATOMIC CHARGES
----------------------
   0 O :    0.089817
   1 C :   -0.260909
   2 C :   -0.306295
   3 H :    0.089064
   4 H :    0.136612
   5 H :    0.135016
   6 H :    0.116695

-------------------------------
LOEWDIN REDUCED ORBITAL CHARGES
-------------------------------
  0 O s       :     3.423528  s :     3.423528
      pz      :     1.745926  p :     4.399563
      px      :     1.336132
      py      :     1.317506
      dz2     :     0.011428  d :     0.081347
      dxz     :     0.006265
      dyz     :     0.013500
      dx2y2   :     0.028823
      dxy     :     0.021330
      f0      :     0.000540  f :     0.005745
      f+1     :     0.000189
      f-1     :     0.000924
      f+2     :     0.000207
      f-2     :     0.000728
      f+3     :     0.001025
      f-3     :     0.002133
  1 C s       :     2.802021  s :     2.802021
      pz      :     1.047131  p :     2.905034
      px      :     1.064587
      py      :     0.793315
      dz2     :     0.051096  d :     0.481845
      dxz     :     0.145178
      dyz     :     0.074686
      dx2y2   :     0.108185
      dxy     :     0.102699
      f0      :     0.008966  f :     0.072009
      f+1     :     0.006168
      f-1     :     0.005809
      f+2     :     0.009845
      f-2     :     0.005376
      f+3     :     0.014365
      f-3     :     0.021480
  2 C s       :     2.817425  s :     2.817425
      pz      :     1.036754  p :     2.899965
      px      :     1.060584
      py      :     0.802628
      dz2     :     0.052745  d :     0.511708
      dxz     :     0.149927
      dyz     :     0.084077
      dx2y2   :     0.116253
      dxy     :     0.108706
      f0      :     0.010035  f :     0.077196
      f+1     :     0.006017
      f-1     :     0.006047
      f+2     :     0.011126
      f-2     :     0.005690
      f+3     :     0.014728
      f-3     :     0.023552
  3 H s       :     0.829458  s :     0.829458
      pz      :     0.037984  p :     0.081478
      px      :     0.025939
      py      :     0.017555
  4 H s       :     0.813056  s :     0.813056
      pz      :     0.027905  p :     0.050333
      px      :     0.013224
      py      :     0.009204
  5 H s       :     0.814258  s :     0.814258
      pz      :     0.027471  p :     0.050726
      px      :     0.015207
      py      :     0.008048
  6 H s       :     0.819839  s :     0.819839
      pz      :     0.033324  p :     0.063466
      px      :     0.017827
      py      :     0.012314


                      *****************************
                      * MAYER POPULATION ANALYSIS *
                      *****************************

  NA   - Mulliken gross atomic population
  ZA   - Total nuclear charge
  QA   - Mulliken gross atomic charge
  VA   - Mayer's total valence
  BVA  - Mayer's bonded valence
  FA   - Mayer's free valence

  ATOM       NA         ZA         QA         VA         BVA        FA
  0 O      8.3329     8.0000    -0.3329     1.9808     1.9808    -0.0000
  1 C      6.0781     6.0000    -0.0781     3.9978     3.9978     0.0000
  2 C      6.0536     6.0000    -0.0536     3.9944     3.9944    -0.0000
  3 H      0.8703     1.0000     0.1297     0.9602     0.9602     0.0000
  4 H      0.8959     1.0000     0.1041     0.9621     0.9621    -0.0000
  5 H      0.8778     1.0000     0.1222     0.9592     0.9592    -0.0000
  6 H      0.8914     1.0000     0.1086     0.9609     0.9609     0.0000

  Mayer bond orders larger than 0.100000
B(  0-O ,  1-C ) :   0.9742 B(  0-O ,  2-C ) :   0.9855 B(  1-C ,  2-C ) :   1.0990 
B(  1-C ,  3-H ) :   0.9639 B(  1-C ,  4-H ) :   0.9417 B(  2-C ,  5-H ) :   0.9386 
B(  2-C ,  6-H ) :   0.9568 

-------
TIMINGS
-------

Total SCF time: 0 days 0 hours 0 min 0 sec 

Total time                  ....       0.966 sec
Sum of individual times     ....       0.881 sec  ( 91.2%)

Fock matrix formation       ....       0.675 sec  ( 69.9%)
  Split-RI-J                ....       0.113 sec  ( 16.7% of F)
  Chain of spheres X        ....       0.499 sec  ( 73.9% of F)
  XC integration            ....       0.062 sec  (  9.1% of F)
    Basis function eval.    ....       0.017 sec  ( 27.3% of XC)
    Density eval.           ....       0.013 sec  ( 21.0% of XC)
    XC-Functional eval.     ....       0.004 sec  (  6.0% of XC)
    XC-Potential eval.      ....       0.019 sec  ( 30.6% of XC)
Diagonalization             ....       0.002 sec  (  0.2%)
Density matrix formation    ....       0.000 sec  (  0.0%)
Population analysis         ....       0.003 sec  (  0.3%)
Initial guess               ....       0.007 sec  (  0.7%)
Orbital Transformation      ....       0.000 sec  (  0.0%)
Orbital Orthonormalization  ....       0.001 sec  (  0.1%)
DIIS solution               ....       0.001 sec  (  0.1%)
SOSCF solution              ....       0.002 sec  (  0.2%)
Grid generation             ....       0.191 sec  ( 19.7%)

Maximum memory used throughout the entire SCF-calculation: 61.1 MB


           ************************************************************
           *        Program running with 8 parallel MPI-processes     *
           *              working on a common directory               *
           ************************************************************
------------------------------------------------------------------------------
                        ORCA TD-DFT/TDA CALCULATION
------------------------------------------------------------------------------

Input orbitals are from        ... ox_es1_A_orca0010.gbw
CI-vector output               ... ox_es1_A_orca0010.cis
Tamm-Dancoff approximation     ... operative
CIS-Integral strategy          ... AO-integrals
Integral handling              ... AO integral Direct
Max. core memory used          ... 3000 MB
Reference state                ... RHF
Generation of triplets         ... off
Follow IRoot                   ... off
Number of operators            ... 1
Orbital ranges used for CIS calculation:
 Operator 0:  Orbitals   3... 11  to  12...116
XAS localization array:
 Operator 0:  Orbitals  -1... -1

-------------------
XC-INTEGRATION GRID
-------------------

General Integration Accuracy     IntAcc      ... 3.467
Radial Grid Type                 RadialGrid  ... OptM3 with GC (2021)
Angular Grid (max. ang.)         AngularGrid ... 1 (Lebedev-50)
Angular grid pruning method      GridPruning ... 4 (adaptive)
Weight generation scheme         WeightScheme... Becke
Basis function cutoff            BFCut       ... 1.0000e-11
Integration weight cutoff        WCut        ... 1.0000e-14
Angular grids for H and He will be reduced by one unit
Partially contracted basis set               ... off
Rotationally invariant grid construction     ... off

Total number of grid points                  ...     4538
Total number of batches                      ...       75
Average number of points per batch           ...       60
Average number of grid points per atom       ...      648

---------------------
COSX-INTEGRATION GRID
---------------------

General Integration Accuracy     IntAcc      ... 3.067
Radial Grid Type                 RadialGrid  ... OptM3 with GC (2021)
Angular Grid (max. ang.)         AngularGrid ... 1 (Lebedev-50)
Angular grid pruning method      GridPruning ... 4 (adaptive)
Weight generation scheme         WeightScheme... Becke
Basis function cutoff            BFCut       ... 1.0000e-11
Integration weight cutoff        WCut        ... 1.0000e-14
Angular grids for H and He will be reduced by one unit
Partially contracted basis set               ... on
Rotationally invariant grid construction     ... off

Total number of grid points                  ...     2085
Total number of batches                      ...       38
Average number of points per batch           ...       54
Average number of grid points per atom       ...      298

---------------
TD-DFT XC SETUP
---------------

DFT calculation                         ... on
Name of the grid file                   ... ox_es1_A_orca0010.grid_cis.tmp
Exchange functional (TD-DFT)            ... PBE
   PBE kappa parameter  XKappa (TD-DFT) ...  0.804000
   PBE mue parameter   XMuePBE (TD-DFT) ...  0.219520
Correlation functional (TD-DFT)         ... PBE
   PBE beta parameter CBetaPBE (TD-DFT) ...  0.066725
 LDA part of GGA corr.  LDAOpt (TD-DFT) ... PW91-LDA
Hybrid DFT                              ... on
   Exchange mixing (TD-DFT)             ...  0.250
   GGA exch. scaling (TD-DFT)           ...  0.750
   GGA corr. scaling (TD-DFT)           ...  1.000

Building densities             ... done
Calculating rho(r) on the grid ... done
Building xc-kernel on the grid ... done
                    *** TD-DFT CALCULATION INITIALIZED ***

------------------------
DAVIDSON-DIAGONALIZATION
------------------------

Dimension of the eigenvalue problem            ...    945
Number of roots to be determined               ...      1
Maximum size of the expansion space            ...     10
Maximum number of iterations                   ...    100
Convergence tolerance for the residual         ...    2.500e-07
Convergence tolerance for the energies         ...    2.500e-07
Orthogonality tolerance                        ...    1.000e-14
Level Shift                                    ...    0.000e+00
Constructing the preconditioner                ... o.k.
Building the initial guess                     ... o.k.
Number of trial vectors determined             ...     10


                       ****Iteration    0****

   Memory handling for direct AO based CIS:
   Memory per vector needed      ...     1 MB
   Memory needed                 ...     1 MB
   Memory available              ...  3000 MB
   Number of vectors per batch   ...  3000
   Number of batches             ...     1
   Time for densities:            0.001
   Time for RI-J (Direct):        0.015
   Time for K (COSX):             0.053
   Time for XC-Integration:       0.016
   Time for Sigma-Completion:     0.000
   Size of expansion space: 3
   Lowest Energy          :     0.282671959841
   Maximum Energy change  :     0.282671959841 (vector 0)
   Maximum residual norm  :     0.004564971246

                       ****Iteration    1****
   Time for densities:            0.000
   Time for RI-J (Direct):        0.012
   Time for K (COSX):             0.047
   Time for XC-Integration:       0.006
   Time for Sigma-Completion:     0.000
   Size of expansion space: 4
   Lowest Energy          :     0.279074952321
   Maximum Energy change  :     0.003597007520 (vector 0)
   Maximum residual norm  :     0.000407021932

                       ****Iteration    2****
   Time for densities:            0.000
   Time for RI-J (Direct):        0.012
   Time for K (COSX):             0.047
   Time for XC-Integration:       0.006
   Time for Sigma-Completion:     0.000
   Size of expansion space: 5
   Lowest Energy          :     0.278584846292
   Maximum Energy change  :     0.000490106029 (vector 0)
   Maximum residual norm  :     0.000104265286

                       ****Iteration    3****
   Time for densities:            0.000
   Time for RI-J (Direct):        0.012
   Time for K (COSX):             0.047
   Time for XC-Integration:       0.006
   Time for Sigma-Completion:     0.000
   Size of expansion space: 6
   Lowest Energy          :     0.278477888455
   Maximum Energy change  :     0.000106957837 (vector 0)
   Maximum residual norm  :     0.000012751569

                       ****Iteration    4****
   Time for densities:            0.000
   Time for RI-J (Direct):        0.012
   Time for K (COSX):             0.047
   Time for XC-Integration:       0.006
   Time for Sigma-Completion:     0.000
   Size of expansion space: 7
   Lowest Energy          :     0.278439955113
   Maximum Energy change  :     0.000037933342 (vector 0)
   Maximum residual norm  :     0.000010187971

                       ****Iteration    5****
   Time for densities:            0.000
   Time for RI-J (Direct):        0.012
   Time for K (COSX):             0.047
   Time for XC-Integration:       0.006
   Time for Sigma-Completion:     0.000
   Size of expansion space: 8
   Lowest Energy          :     0.278426639516
   Maximum Energy change  :     0.000013315597 (vector 0)
   Maximum residual norm  :     0.000000917404

                       ****Iteration    6****
   Time for densities:            0.000
   Time for RI-J (Direct):        0.012
   Time for K (COSX):             0.048
   Time for XC-Integration:       0.006
   Time for Sigma-Completion:     0.000
   Size of expansion space: 9
   Lowest Energy          :     0.278425158350
   Maximum Energy change  :     0.000001481165 (vector 0)
   Maximum residual norm  :     0.000000155957

      *** CONVERGENCE OF RESIDUAL NORM REACHED ***

Storing the converged CI vectors               ... ox_es1_A_orca0010.cis1

                 *** DAVIDSON DONE ***

Total time for solving the CIS problem:     0.487sec

------------------------------------
TD-DFT/TDA EXCITED STATES (SINGLETS)
------------------------------------

the weight of the individual excitations are printed if larger than 1.0e-02

STATE  1:  E=   0.278425 au      7.576 eV    61107.3 cm**-1 <S**2> =   0.000000
    11a ->  12a  :     0.468288 (c=  0.68431596)
    11a ->  13a  :     0.503143 (c=  0.70932576)
    11a ->  16a  :     0.010213 (c= -0.10106140)


-----------------------------
TD-DFT/TDA-EXCITATION SPECTRA
-----------------------------

Center of mass = (  0.0189, -0.0220,  0.0308)
Calculating the Dipole integrals                  ... done
Transforming integrals                            ... done
Calculating the Linear Momentum integrals         ... done
Transforming integrals                            ... done
Calculating angular momentum integrals            ... done
Transforming integrals                            ... done

-----------------------------------------------------------------------------
         ABSORPTION SPECTRUM VIA TRANSITION ELECTRIC DIPOLE MOMENTS
-----------------------------------------------------------------------------
State   Energy    Wavelength  fosc         T2        TX        TY        TZ  
        (cm-1)      (nm)                 (au**2)    (au)      (au)      (au) 
-----------------------------------------------------------------------------
   1   61107.3    163.6   0.010517668   0.05666  -0.00148   0.05301   0.23206

-----------------------------------------------------------------------------
         ABSORPTION SPECTRUM VIA TRANSITION VELOCITY DIPOLE MOMENTS
-----------------------------------------------------------------------------
State   Energy    Wavelength   fosc        P2         PX        PY        PZ  
        (cm-1)      (nm)                 (au**2)     (au)      (au)      (au) 
-----------------------------------------------------------------------------
   1   61107.3    163.6   0.031736872   0.01325  -0.00502  -0.00287  -0.11498

-------------------------------------------------------------------
                             CD SPECTRUM
-------------------------------------------------------------------
State  Energy     Wavelength     R         MX        MY        MZ   
       (cm-1)       (nm)     (1e40*cgs)   (au)      (au)      (au)  
-------------------------------------------------------------------
   1   61107.3    163.6      0.14763   0.24898   0.07964  -0.01525

-------------------------------------------------------------------
         CD SPECTRUM VIA TRANSITION VELOCITY DIPOLE MOMENTS        
-------------------------------------------------------------------
State  Energy     Wavelength     R         MX        MY        MZ   
       (cm-1)       (nm)     (1e40*cgs)   (au)      (au)      (au)  
-------------------------------------------------------------------
   1   61107.3    163.6      0.46851   0.24898   0.07964  -0.01525

Total run time:        0.773 sec

           *** ORCA-CIS/TD-DFT FINISHED WITHOUT ERROR ***

Maximum memory used throughout the entire CIS-calculation: 49.4 MB

-----------------------
CIS/TD-DFT TOTAL ENERGY
-----------------------

    E(SCF)  =   -153.649193296 Eh
    DE(CIS) =      0.278425158 Eh (Root  1)
    ----------------------------- ---------
    E(tot)  =   -153.370768137 Eh



-------------------------------------------------------------------------------
                          DFT DISPERSION CORRECTION                            
                                                                               
                              DFTD3 V3.1  Rev 1                                
                          USING Becke-Johnson damping                          
-------------------------------------------------------------------------------
The PBE0 functional is recognized
Active option DFTDOPT                   ...         4   

molecular C6(AA) [au] = 351.059230 


            DFT-D V3
 parameters
 s6 scaling factor         :     1.0000 
 a1 scaling factor         :     0.4145 
 s8 scaling factor         :     1.2177 
 a2 scaling factor         :     4.8593 
 ad hoc parameters k1-k3   :    16.0000     1.3333    -4.0000 

 Edisp/kcal,au: -1.513421145086  -0.002411789855 
 E6   /kcal   :  -0.992549077 
 E8   /kcal   :  -0.520872068 
 % E8         :  34.416862100 

-------------------------   ----------------
Dispersion correction           -0.002411790
-------------------------   ----------------


-------------------------   --------------------
FINAL SINGLE POINT ENERGY      -153.373179927234
-------------------------   --------------------



           ************************************************************
           *        Program running with 8 parallel MPI-processes     *
           *              working on a common directory               *
           ************************************************************
------------------------------------------------------------------------------
                         ORCA SCF GRADIENT CALCULATION
------------------------------------------------------------------------------


------------------------
TD-DFT GRADIENT XC SETUP
------------------------

Building densities                     ... done
Calculating rho(r) on the grid         ... done
Building xc-kernel on the grid         ... done
Building xc 3rd derivative on the grid      ... done
                *** TD-DFT GRADIENT CALCULATION INITIALIZED ***

-------------------
TD-DFT/TDA GRADIENT
-------------------

Reference wavefunction             ... RHF
State of interest                  ... 1
Basis dimension                    ... 117
DFT-XC contribution needed         ... YES
RI-approximation                   ... ON
CIS-vectors being read from        ... ox_es1_A_orca0010.cis

 => Number of Vectors found: 1
 => Orbital Window: 3...11 -> 12...116

Reading the CIS file                     ... done
Norm of the CI vector                    ... 1.000000000
Making the CIS (pseudo)densities         ... done
Making operators G(D) and Q(T)           ... done
Transforming the Fock operators          ... done
Making the frozen-core relaxed density   ... done
Constructing the G(H) operator           ... done
Transforming the G(H) operator           ... done
Calculating the CIS Lagrangian           ... done
Solving the Z-vector equations           ... done
Finalizing the relaxed density           ... done
Storing the relaxed density              ... done
Constructing the G(Z) operator           ... done
Transforming the G(Z) operator           ... done
Making the W-matrix                      ... done
Finalizing the W-matrix                  ... done
Transforming the W-matrix                ... done
Nuclear repulsion gradient               ... done
One-Electron gradient                    ... done
Dispersion correction                    ... done
Prescreening matrices                    ... done
COSX-gradient                            ... done
Coulomb gradient (RI)                    ... done
Exchange-Correlation gradient            ... done

                 ---------------------------
                 EXCITED STATE GRADIENT DONE
                 ---------------------------

------------------
CARTESIAN GRADIENT
------------------

   1   O   :   -0.063719355   -0.135635333   -0.008366104
   2   C   :    0.051955404    0.126272588    0.139630305
   3   C   :   -0.043731372    0.021844707    0.028190810
   4   H   :    0.057338552    0.006595565   -0.088502647
   5   H   :   -0.010285073   -0.009241854   -0.031123026
   6   H   :    0.023811089   -0.005820295   -0.028709758
   7   H   :   -0.015416908   -0.004060469   -0.011171877

Difference to translation invariance:
           :   -0.0000476641   -0.0000450911   -0.0000522971

Difference to rotation invariance:
           :   -0.0001918441    0.0001985567    0.0003306428

Norm of the cartesian gradient     ...    0.2792490469
RMS gradient                       ...    0.0609371379
MAX gradient                       ...    0.1396303052

------------------------------------------------------------------------------
                  RELAXED CIS/TDA DENSITY POPULATION ANALYSIS
                                   IROOT 1
------------------------------------------------------------------------------
------------------------------------------------------------------------------
                           ORCA POPULATION ANALYSIS
------------------------------------------------------------------------------
Input electron density              ... ox_es1_A_orca0010.cisp
BaseName (.gbw .S,...)              ... ox_es1_A_orca0010

                    ********************************
                    * MULLIKEN POPULATION ANALYSIS *
                    ********************************

-----------------------
MULLIKEN ATOMIC CHARGES
-----------------------
   0 O :    0.215630
   1 C :   -0.658943
   2 C :   -0.243162
   3 H :    0.182887
   4 H :    0.162895
   5 H :    0.177690
   6 H :    0.163003
Sum of atomic charges:   -0.0000000

--------------------------------
MULLIKEN REDUCED ORBITAL CHARGES
--------------------------------
  0 O s       :     3.666108  s :     3.666108
      pz      :     1.108093  p :     4.084200
      px      :     1.514814
      py      :     1.461293
      dz2     :     0.002678  d :     0.032718
      dxz     :     0.002689
      dyz     :     0.006224
      dx2y2   :     0.010051
      dxy     :     0.011076
      f0      :     0.000085  f :     0.001344
      f+1     :    -0.000007
      f-1     :     0.000125
      f+2     :     0.000093
      f-2     :     0.000184
      f+3     :     0.000322
      f-3     :     0.000542
  1 C s       :     3.285288  s :     3.285288
      pz      :     1.085992  p :     3.274117
      px      :     0.909518
      py      :     1.278607
      dz2     :     0.005713  d :     0.089227
      dxz     :     0.020763
      dyz     :     0.006209
      dx2y2   :     0.036117
      dxy     :     0.020425
      f0      :     0.000952  f :     0.010311
      f+1     :     0.001254
      f-1     :     0.000794
      f+2     :     0.001201
      f-2     :     0.000898
      f+3     :     0.002608
      f-3     :     0.002604
  2 C s       :     3.227817  s :     3.227817
      pz      :     1.058229  p :     2.910997
      px      :     0.963627
      py      :     0.889141
      dz2     :     0.007663  d :     0.093973
      dxz     :     0.027765
      dyz     :     0.010197
      dx2y2   :     0.029633
      dxy     :     0.018714
      f0      :     0.001001  f :     0.010375
      f+1     :     0.001384
      f-1     :     0.000594
      f+2     :     0.001099
      f-2     :     0.000925
      f+3     :     0.002479
      f-3     :     0.002894
  3 H s       :     0.788702  s :     0.788702
      pz      :     0.010420  p :     0.028411
      px      :     0.008585
      py      :     0.009406
  4 H s       :     0.813604  s :     0.813604
      pz      :     0.009519  p :     0.023500
      px      :     0.005620
      py      :     0.008361
  5 H s       :     0.802036  s :     0.802036
      pz      :     0.009866  p :     0.020273
      px      :     0.006812
      py      :     0.003595
  6 H s       :     0.813926  s :     0.813926
      pz      :     0.011639  p :     0.023071
      px      :     0.006981
      py      :     0.004452


                     *******************************
                     * LOEWDIN POPULATION ANALYSIS *
                     *******************************

----------------------
LOEWDIN ATOMIC CHARGES
----------------------
   0 O :    0.391045
   1 C :   -0.576847
   2 C :   -0.387639
   3 H :    0.101440
   4 H :    0.161045
   5 H :    0.167297
   6 H :    0.143659

-------------------------------
LOEWDIN REDUCED ORBITAL CHARGES
-------------------------------
  0 O s       :     3.497645  s :     3.497645
      pz      :     1.054096  p :     4.015648
      px      :     1.469527
      py      :     1.492025
      dz2     :     0.014334  d :     0.090096
      dxz     :     0.007370
      dyz     :     0.014280
      dx2y2   :     0.033003
      dxy     :     0.021110
      f0      :     0.000564  f :     0.005566
      f+1     :     0.000078
      f-1     :     0.000846
      f+2     :     0.000215
      f-2     :     0.000789
      f+3     :     0.000867
      f-3     :     0.002208
  1 C s       :     2.812962  s :     2.812962
      pz      :     1.044733  p :     3.151019
      px      :     1.054733
      py      :     1.051553
      dz2     :     0.073046  d :     0.532225
      dxz     :     0.128015
      dyz     :     0.028753
      dx2y2   :     0.158116
      dxy     :     0.144295
      f0      :     0.007048  f :     0.080642
      f+1     :     0.006485
      f-1     :     0.009364
      f+2     :     0.007066
      f-2     :     0.003630
      f+3     :     0.026264
      f-3     :     0.020785
  2 C s       :     2.828691  s :     2.828691
      pz      :     1.023097  p :     2.993827
      px      :     1.094684
      py      :     0.876045
      dz2     :     0.066979  d :     0.484732
      dxz     :     0.144668
      dyz     :     0.036171
      dx2y2   :     0.129865
      dxy     :     0.107049
      f0      :     0.007872  f :     0.080389
      f+1     :     0.006285
      f-1     :     0.007288
      f+2     :     0.007672
      f-2     :     0.003845
      f+3     :     0.024420
      f-3     :     0.023007
  3 H s       :     0.808274  s :     0.808274
      pz      :     0.037464  p :     0.090286
      px      :     0.026508
      py      :     0.026314
  4 H s       :     0.776544  s :     0.776544
      pz      :     0.027084  p :     0.062411
      px      :     0.014453
      py      :     0.020874
  5 H s       :     0.777567  s :     0.777567
      pz      :     0.028268  p :     0.055136
      px      :     0.017608
      py      :     0.009259
  6 H s       :     0.790365  s :     0.790365
      pz      :     0.034818  p :     0.065976
      px      :     0.018902
      py      :     0.012256


                      *****************************
                      * MAYER POPULATION ANALYSIS *
                      *****************************

  NA   - Mulliken gross atomic population
  ZA   - Total nuclear charge
  QA   - Mulliken gross atomic charge
  VA   - Mayer's total valence
  BVA  - Mayer's bonded valence
  FA   - Mayer's free valence

  ATOM       NA         ZA         QA         VA         BVA        FA
  0 O      7.7844     8.0000     0.2156     1.5767     0.9241     0.6526
  1 C      6.6589     6.0000    -0.6589     4.2208     3.4150     0.8058
  2 C      6.2432     6.0000    -0.2432     4.1219     3.8101     0.3118
  3 H      0.8171     1.0000     0.1829     0.9634     0.9470     0.0164
  4 H      0.8371     1.0000     0.1629     1.0004     0.9448     0.0556
  5 H      0.8223     1.0000     0.1777     0.9714     0.9330     0.0384
  6 H      0.8370     1.0000     0.1630     0.9611     0.9380     0.0231

  Mayer bond orders larger than 0.100000
B(  0-O ,  1-C ) :   0.2222 B(  0-O ,  2-C ) :   0.6951 B(  1-C ,  2-C ) :   1.2917 
B(  1-C ,  3-H ) :   0.9540 B(  1-C ,  4-H ) :   0.9263 B(  2-C ,  5-H ) :   0.8987 
B(  2-C ,  6-H ) :   0.9258 


-------
TIMINGS
-------

Total TD-DFT gradient time         ...        4.997 sec

Fock matrix formation       ....       0.823 sec  ( 16.5%)
  Coulomb formation         ....       0.666 sec  ( 80.9% of F)
  RI-J                      ....       0.291 sec  ( 35.3% of F)
  Chain of spheres X        ....       0.374 sec  ( 45.5% of F)
  XC integration            ....       0.158 sec  ( 19.1% of F)
Z-vector equation           ....       1.366 sec  ( 27.3%)
One electron gradient       ....       0.032 sec  (  0.6%)
Prescreening matrices       ....       0.158 sec  (  3.2%)
RI-J Coulomb gradient       ....       0.261 sec  (  5.2%)
COSX gradient               ....       0.330 sec  (  6.6%)
XC gradient                 ....       1.700 sec  ( 34.0%)

Maximum memory used throughout the entire SCFGRAD-calculation: 130.3 MB

                            ***************************************
                            *     ORCA property calculations      *
                            ***************************************

                                    ---------------------
                                    Active property flags
                                    ---------------------
   (+) Dipole Moment


------------------------------------------------------------------------------
                       ORCA ELECTRIC PROPERTIES CALCULATION
------------------------------------------------------------------------------

Dipole Moment Calculation                       ... on
Quadrupole Moment Calculation                   ... off
Polarizability Calculation                      ... off
GBWName                                         ... ox_es1_A_orca0010.gbw
Electron density                                ... ox_es1_A_orca0010.scfp
The origin for moment calculation is the CENTER OF MASS  = ( 0.018930, -0.022009  0.030819)

-------------
DIPOLE MOMENT
-------------
                                X             Y             Z
Electronic contribution:     -0.04032       1.55895       0.26081
Nuclear contribution   :      0.01624      -2.38394      -0.25528
                        -----------------------------------------
Total Dipole Moment    :     -0.02408      -0.82499       0.00553
                        -----------------------------------------
Magnitude (a.u.)       :      0.82536
Magnitude (Debye)      :      2.09790



--------------------
Rotational spectrum 
--------------------
 
Rotational constants in cm-1:     0.812050     0.782620     0.472112 
Rotational constants in MHz : 24344.637854 23462.360396 14153.576119 

 Dipole components along the rotational axes: 
x,y,z [a.u.] :    -0.503838    -0.651246     0.056958 
x,y,z [Debye]:    -1.280653    -1.655335     0.144775 

 

                        *** CIS RELAXED DENSITY ***

------------------------------------------------------------------------------
                       ORCA ELECTRIC PROPERTIES CALCULATION
------------------------------------------------------------------------------

Dipole Moment Calculation                       ... on
Quadrupole Moment Calculation                   ... off
Polarizability Calculation                      ... off
GBWName                                         ... ox_es1_A_orca0010.gbw
Electron density                                ... ox_es1_A_orca0010.cisp
The origin for moment calculation is the CENTER OF MASS  = ( 0.018930, -0.022009  0.030819)

-------------
DIPOLE MOMENT
-------------
                                X             Y             Z
Electronic contribution:      0.47517       2.44343       0.22104
Nuclear contribution   :      0.01624      -2.38394      -0.25528
                        -----------------------------------------
Total Dipole Moment    :      0.49141       0.05949      -0.03424
                        -----------------------------------------
Magnitude (a.u.)       :      0.49618
Magnitude (Debye)      :      1.26119



--------------------
Rotational spectrum 
--------------------
 
Rotational constants in cm-1:     0.812050     0.782620     0.472112 
Rotational constants in MHz : 24344.637854 23462.360396 14153.576119 

 Dipole components along the rotational axes: 
x,y,z [a.u.] :     0.432592    -0.242389    -0.017503 
x,y,z [Debye]:     1.099562    -0.616105    -0.044490 

 

Timings for individual modules:

Sum of individual times         ...        7.769 sec (=   0.129 min)
GTO integral calculation        ...        0.424 sec (=   0.007 min)   5.5 %
SCF iterations                  ...        1.158 sec (=   0.019 min)  14.9 %
CIS module                      ...        0.999 sec (=   0.017 min)  12.9 %
SCF Gradient evaluation         ...        5.188 sec (=   0.086 min)  66.8 %
                             ****ORCA TERMINATED NORMALLY****
TOTAL RUN TIME: 0 days 0 hours 0 minutes 8 seconds 168 msec
