
                                 *****************
                                 * O   R   C   A *
                                 *****************

                                            #,                                       
                                            ###                                      
                                            ####                                     
                                            #####                                    
                                            ######                                   
                                           ########,                                 
                                     ,,################,,,,,                         
                               ,,#################################,,                 
                          ,,##########################################,,             
                       ,#########################################, ''#####,          
                    ,#############################################,,   '####,        
                  ,##################################################,,,,####,       
                ,###########''''           ''''###############################       
              ,#####''   ,,,,##########,,,,          '''####'''          '####       
            ,##' ,,,,###########################,,,                        '##       
           ' ,,###''''                  '''############,,,                           
         ,,##''                                '''############,,,,        ,,,,,,###''
      ,#''                                            '''#######################'''  
     '                                                          ''''####''''         
             ,#######,   #######,   ,#######,      ##                                
            ,#'     '#,  ##    ##  ,#'     '#,    #''#        ######   ,####,        
            ##       ##  ##   ,#'  ##            #'  '#       #        #'  '#        
            ##       ##  #######   ##           ,######,      #####,   #    #        
            '#,     ,#'  ##    ##  '#,     ,#' ,#      #,         ##   #,  ,#        
             '#######'   ##     ##  '#######'  #'      '#     #####' # '####'        



                  #######################################################
                  #                        -***-                        #
                  #          Department of theory and spectroscopy      #
                  #    Directorship and core code : Frank Neese         #
                  #        Max Planck Institute fuer Kohlenforschung    #
                  #                Kaiser Wilhelm Platz 1               #
                  #                 D-45470 Muelheim/Ruhr               #
                  #                      Germany                        #
                  #                                                     #
                  #                  All rights reserved                #
                  #                        -***-                        #
                  #######################################################


                         Program Version 5.0.2 -  RELEASE  -


 With contributions from (in alphabetic order):
   Daniel Aravena         : Magnetic Suceptibility
   Michael Atanasov       : Ab Initio Ligand Field Theory (pilot matlab implementation)
   Alexander A. Auer      : GIAO ZORA, VPT2 properties, NMR spectrum
   Ute Becker             : Parallelization
   Giovanni Bistoni       : ED, misc. LED, open-shell LED, HFLD
   Martin Brehm           : Molecular dynamics
   Dmytro Bykov           : SCF Hessian
   Vijay G. Chilkuri      : MRCI spin determinant printing, contributions to CSF-ICE
   Dipayan Datta          : RHF DLPNO-CCSD density
   Achintya Kumar Dutta   : EOM-CC, STEOM-CC
   Dmitry Ganyushin       : Spin-Orbit,Spin-Spin,Magnetic field MRCI
   Miquel Garcia          : C-PCM and meta-GGA Hessian, CC/C-PCM, Gaussian charge scheme
   Yang Guo               : DLPNO-NEVPT2, F12-NEVPT2, CIM, IAO-localization
   Andreas Hansen         : Spin unrestricted coupled pair/coupled cluster methods
   Benjamin Helmich-Paris : MC-RPA, TRAH-SCF, COSX integrals
   Lee Huntington         : MR-EOM, pCC
   Robert Izsak           : Overlap fitted RIJCOSX, COSX-SCS-MP3, EOM
   Marcus Kettner         : VPT2
   Christian Kollmar      : KDIIS, OOCD, Brueckner-CCSD(T), CCSD density, CASPT2, CASPT2-K
   Simone Kossmann        : Meta GGA functionals, TD-DFT gradient, OOMP2, MP2 Hessian
   Martin Krupicka        : Initial AUTO-CI
   Lucas Lang             : DCDCAS
   Marvin Lechner         : AUTO-CI (C++ implementation), FIC-MRCC
   Dagmar Lenk            : GEPOL surface, SMD
   Dimitrios Liakos       : Extrapolation schemes; Compound Job, initial MDCI parallelization
   Dimitrios Manganas     : Further ROCIS development; embedding schemes
   Dimitrios Pantazis     : SARC Basis sets
   Anastasios Papadopoulos: AUTO-CI, single reference methods and gradients
   Taras Petrenko         : DFT Hessian,TD-DFT gradient, ASA, ECA, R-Raman, ABS, FL, XAS/XES, NRVS
   Peter Pinski           : DLPNO-MP2, DLPNO-MP2 Gradient
   Christoph Reimann      : Effective Core Potentials
   Marius Retegan         : Local ZFS, SOC
   Christoph Riplinger    : Optimizer, TS searches, QM/MM, DLPNO-CCSD(T), (RO)-DLPNO pert. Triples
   Tobias Risthaus        : Range-separated hybrids, TD-DFT gradient, RPA, STAB
   Michael Roemelt        : Original ROCIS implementation
   Masaaki Saitow         : Open-shell DLPNO-CCSD energy and density
   Barbara Sandhoefer     : DKH picture change effects
   Avijit Sen             : IP-ROCIS
   Kantharuban Sivalingam : CASSCF convergence, NEVPT2, FIC-MRCI
   Bernardo de Souza      : ESD, SOC TD-DFT
   Georgi Stoychev        : AutoAux, RI-MP2 NMR, DLPNO-MP2 response
   Willem Van den Heuvel  : Paramagnetic NMR
   Boris Wezisla          : Elementary symmetry handling
   Frank Wennmohs         : Technical directorship


 We gratefully acknowledge several colleagues who have allowed us to
 interface, adapt or use parts of their codes:
   Stefan Grimme, W. Hujo, H. Kruse, P. Pracht,  : VdW corrections, initial TS optimization,
                  C. Bannwarth, S. Ehlert          DFT functionals, gCP, sTDA/sTD-DF
   Ed Valeev, F. Pavosevic, A. Kumar             : LibInt (2-el integral package), F12 methods
   Garnet Chan, S. Sharma, J. Yang, R. Olivares  : DMRG
   Ulf Ekstrom                                   : XCFun DFT Library
   Mihaly Kallay                                 : mrcc  (arbitrary order and MRCC methods)
   Jiri Pittner, Ondrej Demel                    : Mk-CCSD
   Frank Weinhold                                : gennbo (NPA and NBO analysis)
   Christopher J. Cramer and Donald G. Truhlar   : smd solvation model
   Lars Goerigk                                  : TD-DFT with DH, B97 family of functionals
   V. Asgeirsson, H. Jonsson                     : NEB implementation
   FAccTs GmbH                                   : IRC, NEB, NEB-TS, DLPNO-Multilevel, CI-OPT
                                                   MM, QMMM, 2- and 3-layer-ONIOM, Crystal-QMMM,
                                                   LR-CPCM, SF, NACMEs, symmetry and pop. for TD-DFT,
                                                   nearIR, NL-DFT gradient (VV10), updates on ESD,
                                                   ML-optimized integration grids
   S Lehtola, MJT Oliveira, MAL Marques          : LibXC Library
   Liviu Ungur et al                             : ANISO software


 Your calculation uses the libint2 library for the computation of 2-el integrals
 For citations please refer to: http://libint.valeyev.net

 Your ORCA version has been built with support for libXC version: 5.1.0
 For citations please refer to: https://tddft.org/programs/libxc/

 This ORCA versions uses:
   CBLAS   interface :  Fast vector & matrix operations
   LAPACKE interface :  Fast linear algebra routines
   SCALAPACK package :  Parallel linear algebra routines
   Shared memory     :  Shared parallel matrices
   BLAS/LAPACK       :  OpenBLAS 0.3.15  USE64BITINT DYNAMIC_ARCH NO_AFFINITY SkylakeX SINGLE_THREADED
        Core in use  :  SkylakeX
   Copyright (c) 2011-2014, The OpenBLAS Project


Your calculation utilizes the atom-pairwise dispersion correction
with the Becke-Johnson damping scheme (D3BJ)
Cite in your paper:
S.Grimme, S.Ehrlich, L.Goerigk, J Comput Chem, (2011), 32, 1456–1465 
S.Grimme, J.Antony, S.Ehrlich and H.Krieg, J.Chem.Phys., 132, (2010), 154104 
   

================================================================================

----- Orbital basis set information -----
Your calculation utilizes the basis: def2-TZVP
   F. Weigend and R. Ahlrichs, Phys. Chem. Chem. Phys. 7, 3297 (2005).

----- AuxJ basis set information -----
Your calculation utilizes the auxiliary basis: def2/J
   F. Weigend, Phys. Chem. Chem. Phys. 8, 1057 (2006).

================================================================================
                                        WARNINGS
                       Please study these warnings very carefully!
================================================================================

INFO   : Checking CIS options ...

WARNING: CIS/ROCIS methods need fully converged wavefunctions
  ===> : Setting SCFConvForced true
         You can overwrite this default with %scf ConvForced false 


INFO   : the flag for use of the SHARK integral package has been found!

================================================================================
                                       INPUT FILE
================================================================================
NAME = ox_es1_A_orca0017.inp
|  1> ! engrad PBE0 D3BJ def2-TZVP  
|  2> %pal nprocs 8 end
|  3> %maxcore 3000
|  4> 
|  5> %tddft
|  6>   nroots 1
|  7>   tda true
|  8>   Iroot 1
|  9>   end 
| 10> *xyz 0 1 
| 11> O   -0.014432881946006917 0.7830602380169045 -0.04136143717761615
| 12> C   -0.7029222642879414 -0.3703835443498711 -0.00543800742284288
| 13> C   0.748975126104947 -0.41251329041444434 -0.020061023594291814
| 14> H   -1.252618305909479 -0.6676411899609103 0.9248600249274416
| 15> H   -1.3024732591927732 -0.6670454012870529 -0.8950763054377275
| 16> H   1.336380000389752 -0.6203073186957396 -0.8123170971244222
| 17> H   1.2254554918555975 -0.6246547781639661 0.9291432702869176
| 18> *
| 19> 
| 20>                          ****END OF INPUT****
================================================================================

                     *******************************
                     * Energy+Gradient Calculation *
                     *******************************

---------------------------------
CARTESIAN COORDINATES (ANGSTROEM)
---------------------------------
  O     -0.014433    0.783060   -0.041361
  C     -0.702922   -0.370384   -0.005438
  C      0.748975   -0.412513   -0.020061
  H     -1.252618   -0.667641    0.924860
  H     -1.302473   -0.667045   -0.895076
  H      1.336380   -0.620307   -0.812317
  H      1.225455   -0.624655    0.929143

----------------------------
CARTESIAN COORDINATES (A.U.)
----------------------------
  NO LB      ZA    FRAG     MASS         X           Y           Z
   0 O     8.0000    0    15.999   -0.027274    1.479769   -0.078162
   1 C     6.0000    0    12.011   -1.328331   -0.699923   -0.010276
   2 C     6.0000    0    12.011    1.415358   -0.779537   -0.037910
   3 H     1.0000    0     1.008   -2.367106   -1.261659    1.747732
   4 H     1.0000    0     1.008   -2.461318   -1.260533   -1.691449
   5 H     1.0000    0     1.008    2.525392   -1.172211   -1.535057
   6 H     1.0000    0     1.008    2.315775   -1.180426    1.755826

--------------------------------
INTERNAL COORDINATES (ANGSTROEM)
--------------------------------
 O      0   0   0     0.000000000000     0.00000000     0.00000000
 C      1   0   0     1.343778509087     0.00000000     0.00000000
 C      1   2   0     1.418675987060    63.38010187     0.00000000
 H      2   1   3     1.120706150176   120.07730271   109.05001156
 H      2   1   3     1.113070507267   118.90670243   247.94794915
 H      3   1   2     1.007914942130   118.39498661   116.89282475
 H      3   1   2     1.083063405943   114.51701963   254.32385294

---------------------------
INTERNAL COORDINATES (A.U.)
---------------------------
 O      0   0   0     0.000000000000     0.00000000     0.00000000
 C      1   0   0     2.539373366823     0.00000000     0.00000000
 C      1   2   0     2.680909088314    63.38010187     0.00000000
 H      2   1   3     2.117827700435   120.07730271   109.05001156
 H      2   1   3     2.103398426479   118.90670243   247.94794915
 H      3   1   2     1.904683206912   118.39498661   116.89282475
 H      3   1   2     2.046693222904   114.51701963   254.32385294

---------------------
BASIS SET INFORMATION
---------------------
There are 3 groups of distinct atoms

 Group   1 Type O   : 11s6p2d1f contracted to 5s3p2d1f pattern {62111/411/11/1}
 Group   2 Type C   : 11s6p2d1f contracted to 5s3p2d1f pattern {62111/411/11/1}
 Group   3 Type H   : 5s1p contracted to 3s1p pattern {311/1}

Atom   0O    basis set group =>   1
Atom   1C    basis set group =>   2
Atom   2C    basis set group =>   2
Atom   3H    basis set group =>   3
Atom   4H    basis set group =>   3
Atom   5H    basis set group =>   3
Atom   6H    basis set group =>   3
---------------------------------
AUXILIARY/J BASIS SET INFORMATION
---------------------------------
There are 3 groups of distinct atoms

 Group   1 Type O   : 12s5p4d2f1g contracted to 6s4p3d1f1g pattern {711111/2111/211/2/1}
 Group   2 Type C   : 12s5p4d2f1g contracted to 6s4p3d1f1g pattern {711111/2111/211/2/1}
 Group   3 Type H   : 5s2p1d contracted to 3s1p1d pattern {311/2/1}

Atom   0O    basis set group =>   1
Atom   1C    basis set group =>   2
Atom   2C    basis set group =>   2
Atom   3H    basis set group =>   3
Atom   4H    basis set group =>   3
Atom   5H    basis set group =>   3
Atom   6H    basis set group =>   3

Checking for AutoStart:
The File: ox_es1_A_orca0017.gbw exists
Trying to determine its content:
     ... Fine, the file contains calculation information
     ... Fine, the calculation information was read
     ... Fine, the file contains a basis set
     ... Fine, the basis set was read
     ... Fine, the file contains a geometry
     ... Fine, the geometry was read
     ... Fine, the file contains a set of orbitals
     ... Fine, the orbitals can be read
     => possible old guess file was deleted
     => GBW file was renamed to GES file
     => GES file is set as startup file
     => Guess is set to MORead
     ... now leaving AutoStart



           ************************************************************
           *        Program running with 8 parallel MPI-processes     *
           *              working on a common directory               *
           ************************************************************
------------------------------------------------------------------------------
                           ORCA GTO INTEGRAL CALCULATION
                           -- RI-GTO INTEGRALS CHOSEN --
------------------------------------------------------------------------------
------------------------------------------------------------------------------
                   ___                                                        
                  /   \      - P O W E R E D   B Y -                         
                 /     \                                                     
                 |  |  |   _    _      __       _____    __    __             
                 |  |  |  | |  | |    /  \     |  _  \  |  |  /  |          
                  \  \/   | |  | |   /    \    | | | |  |  | /  /          
                 / \  \   | |__| |  /  /\  \   | |_| |  |  |/  /          
                |  |  |   |  __  | /  /__\  \  |    /   |      \           
                |  |  |   | |  | | |   __   |  |    \   |  |\   \          
                \     /   | |  | | |  |  |  |  | |\  \  |  | \   \       
                 \___/    |_|  |_| |__|  |__|  |_| \__\ |__|  \__/        
                                                                              
                      - O R C A' S   B I G   F R I E N D -                    
                                      &                                       
                       - I N T E G R A L  F E E D E R -                       
                                                                              
 v1 FN, 2020, v2 2021                                                         
------------------------------------------------------------------------------


Reading SHARK input file ox_es1_A_orca0017.SHARKINP.tmp ... ok
----------------------
SHARK INTEGRAL PACKAGE
----------------------

Number of atoms                             ...      7
Number of basis functions                   ...    117
Number of shells                            ...     49
Maximum angular momentum                    ...      3
Integral batch strategy                     ... SHARK/LIBINT Hybrid
RI-J (if used) integral strategy            ... SPLIT-RIJ (Revised 2003 algorithm where possible)
Printlevel                                  ...      1
Contraction scheme used                     ... SEGMENTED contraction
Coulomb Range Separation                    ... NOT USED
Exchange Range Separation                   ... NOT USED
Finite Nucleus Model                        ... NOT USED
Auxiliary Coulomb fitting basis             ... AVAILABLE
   # of basis functions in Aux-J            ...    191
   # of shells in Aux-J                     ...     65
   Maximum angular momentum in Aux-J        ...      4
Auxiliary J/K fitting basis                 ... NOT available
Auxiliary Correlation fitting basis         ... NOT available
Auxiliary 'external' fitting basis          ... NOT available
Integral threshold                          ...     2.500000e-11
Primitive cut-off                           ...     2.500000e-12
Primitive pair pre-selection threshold      ...     2.500000e-12

Calculating pre-screening integrals         ... done (  0.1 sec) Dimension = 49
Organizing shell pair data                  ... done (  0.0 sec)
Shell pair information
Total number of shell pairs                 ...      1225
Shell pairs after pre-screening             ...      1221
Total number of primitive shell pairs       ...      3648
Primitive shell pairs kept                  ...      3155
          la=0 lb=0:    374 shell pairs
          la=1 lb=0:    351 shell pairs
          la=1 lb=1:     91 shell pairs
          la=2 lb=0:    162 shell pairs
          la=2 lb=1:     78 shell pairs
          la=2 lb=2:     21 shell pairs
          la=3 lb=0:     81 shell pairs
          la=3 lb=1:     39 shell pairs
          la=3 lb=2:     18 shell pairs
          la=3 lb=3:      6 shell pairs

Calculating one electron integrals          ... done (  0.0 sec)
Calculating RI/J V-Matrix + Cholesky decomp.... done (  0.0 sec)
Calculating Nuclear repulsion               ... done (  0.0 sec) ENN=     76.788307966763 Eh

SHARK setup successfully completed in   0.3 seconds

Maximum memory used throughout the entire GTOINT-calculation: 14.9 MB


           ************************************************************
           *        Program running with 8 parallel MPI-processes     *
           *              working on a common directory               *
           ************************************************************
-------------------------------------------------------------------------------
                                 ORCA SCF
-------------------------------------------------------------------------------

------------
SCF SETTINGS
------------
Hamiltonian:
 Density Functional     Method          .... DFT(GTOs)
 Exchange Functional    Exchange        .... PBE
   PBE kappa parameter   XKappa         ....  0.804000
   PBE mue parameter    XMuePBE         ....  0.219520
 Correlation Functional Correlation     .... PBE
   PBE beta parameter  CBetaPBE         ....  0.066725
 LDA part of GGA corr.  LDAOpt          .... PW91-LDA
 Gradients option       PostSCFGGA      .... off
 Hybrid DFT is turned on
   Fraction HF Exchange ScalHFX         ....  0.250000
   Scaling of DF-GGA-X  ScalDFX         ....  0.750000
   Scaling of DF-GGA-C  ScalDFC         ....  1.000000
   Scaling of DF-LDA-C  ScalLDAC        ....  1.000000
   Perturbative correction              ....  0.000000
   Density functional embedding theory  .... OFF
   NL short-range parameter             ....  6.900000
 RI-approximation to the Coulomb term is turned on
   Number of AuxJ basis functions       .... 191
   RIJ-COSX (HFX calculated with COS-X)).... on


General Settings:
 Integral files         IntName         .... ox_es1_A_orca0017
 Hartree-Fock type      HFTyp           .... RHF
 Total Charge           Charge          ....    0
 Multiplicity           Mult            ....    1
 Number of Electrons    NEL             ....   24
 Basis Dimension        Dim             ....  117
 Nuclear Repulsion      ENuc            ....     76.7883079668 Eh

Convergence Acceleration:
 DIIS                   CNVDIIS         .... on
   Start iteration      DIISMaxIt       ....    12
   Startup error        DIISStart       ....  0.200000
   # of expansion vecs  DIISMaxEq       ....     5
   Bias factor          DIISBfac        ....   1.050
   Max. coefficient     DIISMaxC        ....  10.000
 Trust-Rad. Augm. Hess. CNVTRAH         .... auto
   Auto Start mean grad. ratio tolernc. ....  1.125000
   Auto Start start iteration           ....     1
   Auto Start num. interpolation iter.  ....    10
   Max. Number of Micro iterations      ....    16
   Max. Number of Macro iterations      .... Maxiter - #DIIS iter
   Number of Davidson start vectors     ....     2
   Converg. threshold I  (grad. norm)   ....   1.000e-05
   Converg. threshold II (energy diff.) ....   1.000e-08
   Grad. Scal. Fac. for Micro threshold ....   0.100
   Minimum threshold for Micro iter.    ....   0.010
   NR start threshold (gradient norm)   ....   0.001
   Initial trust radius                 ....   0.400
   Minimum AH scaling param. (alpha)    ....   1.000
   Maximum AH scaling param. (alpha)    .... 1000.000
   Orbital update algorithm             .... Taylor
   White noise on init. David. guess    .... on
   Maximum white noise                  ....   0.010
   Quad. conv. algorithm                .... NR
 SOSCF                  CNVSOSCF        .... on
   Start iteration      SOSCFMaxIt      ....   150
   Startup grad/error   SOSCFStart      ....  0.003300
 Level Shifting         CNVShift        .... on
   Level shift para.    LevelShift      ....    0.2500
   Turn off err/grad.   ShiftErr        ....    0.0010
 Zerner damping         CNVZerner       .... off
 Static damping         CNVDamp         .... on
   Fraction old density DampFac         ....    0.7000
   Max. Damping (<1)    DampMax         ....    0.9800
   Min. Damping (>=0)   DampMin         ....    0.0000
   Turn off err/grad.   DampErr         ....    0.1000
 Fernandez-Rico         CNVRico         .... off

SCF Procedure:
 Maximum # iterations   MaxIter         ....   125
 SCF integral mode      SCFMode         .... Direct
   Integral package                     .... SHARK and LIBINT hybrid scheme
 Reset frequency        DirectResetFreq ....    20
 Integral Threshold     Thresh          ....  2.500e-11 Eh
 Primitive CutOff       TCut            ....  2.500e-12 Eh

Convergence Tolerance:
 Convergence Check Mode ConvCheckMode   .... Total+1el-Energy
 Convergence forced     ConvForced      .... 1
 Energy Change          TolE            ....  1.000e-08 Eh
 1-El. energy change                    ....  1.000e-05 Eh
 Orbital Gradient       TolG            ....  1.000e-05
 Orbital Rotation angle TolX            ....  1.000e-05
 DIIS Error             TolErr          ....  5.000e-07


Diagonalization of the overlap matrix:
Smallest eigenvalue                        ... 3.420e-04
Time for diagonalization                   ...    0.004 sec
Threshold for overlap eigenvalues          ... 1.000e-08
Number of eigenvalues below threshold      ... 0
Time for construction of square roots      ...    0.004 sec
Total time needed                          ...    0.009 sec

---------------------
INITIAL GUESS: MOREAD
---------------------
Guess MOs are being read from file: ox_es1_A_orca0017.ges
Input Geometry matches current geometry (good)
Input basis set matches current basis set (good)
MOs were renormalized
MOs were reorthogonalized (Cholesky)
                      ------------------
                      INITIAL GUESS DONE (   0.0 sec)
                      ------------------
-------------------
DFT GRID GENERATION
-------------------

General Integration Accuracy     IntAcc      ... 4.388
Radial Grid Type                 RadialGrid  ... OptM3 with GC (2021)
Angular Grid (max. ang.)         AngularGrid ... 4 (Lebedev-302)
Angular grid pruning method      GridPruning ... 4 (adaptive)
Weight generation scheme         WeightScheme... Becke
Basis function cutoff            BFCut       ... 1.0000e-11
Integration weight cutoff        WCut        ... 1.0000e-14
Angular grids for H and He will be reduced by one unit
Partially contracted basis set               ... off
Rotationally invariant grid construction     ... off

Total number of grid points                  ...    31286
Total number of batches                      ...      491
Average number of points per batch           ...       63
Average number of grid points per atom       ...     4469
Time for grid setup =    0.419 sec

--------------------
COSX GRID GENERATION
--------------------

GRIDX 1
-------
General Integration Accuracy     IntAcc      ... 3.816
Radial Grid Type                 RadialGrid  ... OptM3 with GC (2021)
Angular Grid (max. ang.)         AngularGrid ... 1 (Lebedev-50)
Angular grid pruning method      GridPruning ... 4 (adaptive)
Weight generation scheme         WeightScheme... Becke
Basis function cutoff            BFCut       ... 1.0000e-11
Integration weight cutoff        WCut        ... 1.0000e-14
Angular grids for H and He will be reduced by one unit
Partially contracted basis set               ... on
Rotationally invariant grid construction     ... off

Total number of grid points                  ...     4034
Total number of batches                      ...       67
Average number of points per batch           ...       60
Average number of grid points per atom       ...      576
UseSFitting                                  ... on

GRIDX 2
-------
General Integration Accuracy     IntAcc      ... 4.020
Radial Grid Type                 RadialGrid  ... OptM3 with GC (2021)
Angular Grid (max. ang.)         AngularGrid ... 2 (Lebedev-110)
Angular grid pruning method      GridPruning ... 4 (adaptive)
Weight generation scheme         WeightScheme... Becke
Basis function cutoff            BFCut       ... 1.0000e-11
Integration weight cutoff        WCut        ... 1.0000e-14
Angular grids for H and He will be reduced by one unit
Partially contracted basis set               ... on
Rotationally invariant grid construction     ... off

Total number of grid points                  ...     8708
Total number of batches                      ...      139
Average number of points per batch           ...       62
Average number of grid points per atom       ...     1244
UseSFitting                                  ... on

GRIDX 3
-------
General Integration Accuracy     IntAcc      ... 4.338
Radial Grid Type                 RadialGrid  ... OptM3 with GC (2021)
Angular Grid (max. ang.)         AngularGrid ... 3 (Lebedev-194)
Angular grid pruning method      GridPruning ... 4 (adaptive)
Weight generation scheme         WeightScheme... Becke
Basis function cutoff            BFCut       ... 1.0000e-11
Integration weight cutoff        WCut        ... 1.0000e-14
Angular grids for H and He will be reduced by one unit
Partially contracted basis set               ... on
Rotationally invariant grid construction     ... off

Total number of grid points                  ...    19249
Total number of batches                      ...      305
Average number of points per batch           ...       63
Average number of grid points per atom       ...     2750
UseSFitting                                  ... on

Time for X-Grid setup             =    0.203 sec

--------------
SCF ITERATIONS
--------------
ITER       Energy         Delta-E        Max-DP      RMS-DP      [F,P]     Damp
               ***  Starting incremental Fock matrix formation  ***
                      *** Initiating the SOSCF procedure ***
                      *** Re-Reading the Fockian *** 
                      *** Removing any level shift *** 
ITER      Energy       Delta-E        Grad      Rot      Max-DP    RMS-DP
  0   -153.66436803 -153.6643680266  0.000000  0.000000  0.000001  0.000000
               *** Restarting incremental Fock matrix formation ***
                 **** Energy Check signals convergence ****
              ***Rediagonalizing the Fockian in SOSCF/NRSCF***

               *****************************************************
               *                     SUCCESS                       *
               *           SCF CONVERGED AFTER   1 CYCLES          *
               *****************************************************

Old exchange energy                            =     -5.011667379 Eh
New exchange energy                            =     -5.011651908 Eh
Exchange energy change after final integration =      0.000015472 Eh
Total energy after final integration           =   -153.664352555 Eh
Final COS-X integration done in                =     0.554 sec

----------------
TOTAL SCF ENERGY
----------------

Total Energy       :         -153.66435255 Eh           -4181.41961 eV

Components:
Nuclear Repulsion  :           76.78830797 Eh            2089.51609 eV
Electronic Energy  :         -230.45266052 Eh           -6270.93570 eV
One Electron Energy:         -360.08472131 Eh           -9798.40341 eV
Two Electron Energy:          129.63206079 Eh            3527.46771 eV
Max COSX asymmetry :            0.00000308 Eh               0.00008 eV

Virial components:
Potential Energy   :         -306.84128685 Eh           -8349.57590 eV
Kinetic Energy     :          153.17693429 Eh            4168.15629 eV
Virial Ratio       :            2.00318206


DFT components:
N(Alpha)           :       12.000002069886 electrons
N(Beta)            :       12.000002069886 electrons
N(Total)           :       24.000004139772 electrons
E(X)               :      -14.998483922865 Eh       
E(C)               :       -0.794084238734 Eh       
E(XC)              :      -15.792568161599 Eh       
DFET-embed. en.    :        0.000000000000 Eh       

---------------
SCF CONVERGENCE
---------------

  Last Energy change         ...    7.9581e-13  Tolerance :   1.0000e-08
  Last MAX-Density change    ...    9.9920e-16  Tolerance :   1.0000e-07
  Last RMS-Density change    ...    2.1517e-17  Tolerance :   5.0000e-09
  Last Orbital Gradient      ...    2.1694e-07  Tolerance :   1.0000e-05
  Last Orbital Rotation      ...    4.8536e-07  Tolerance :   1.0000e-05

             **** THE GBW FILE WAS UPDATED (ox_es1_A_orca0017.gbw) ****
             **** DENSITY ox_es1_A_orca0017.scfp WAS UPDATED ****
             **** ENERGY FILE WAS UPDATED (ox_es1_A_orca0017.en.tmp) ****
             **** THE GBW FILE WAS UPDATED (ox_es1_A_orca0017.gbw) ****
             **** DENSITY ox_es1_A_orca0017.scfp WAS UPDATED ****
----------------
ORBITAL ENERGIES
----------------

  NO   OCC          E(Eh)            E(eV) 
   0   2.0000     -19.227690      -523.2120 
   1   2.0000     -10.277096      -279.6540 
   2   2.0000     -10.265183      -279.3298 
   3   2.0000      -1.139828       -31.0163 
   4   2.0000      -0.702431       -19.1141 
   5   2.0000      -0.660312       -17.9680 
   6   2.0000      -0.537639       -14.6299 
   7   2.0000      -0.515159       -14.0182 
   8   2.0000      -0.436647       -11.8818 
   9   2.0000      -0.391609       -10.6562 
  10   2.0000      -0.328749        -8.9457 
  11   2.0000      -0.291450        -7.9308 
  12   0.0000       0.064876         1.7654 
  13   0.0000       0.082238         2.2378 
  14   0.0000       0.089410         2.4330 
  15   0.0000       0.103560         2.8180 
  16   0.0000       0.114162         3.1065 
  17   0.0000       0.157005         4.2723 
  18   0.0000       0.193173         5.2565 
  19   0.0000       0.223691         6.0870 
  20   0.0000       0.267328         7.2744 
  21   0.0000       0.271557         7.3894 
  22   0.0000       0.293793         7.9945 
  23   0.0000       0.357173         9.7192 
  24   0.0000       0.379364        10.3230 
  25   0.0000       0.396850        10.7988 
  26   0.0000       0.402964        10.9652 
  27   0.0000       0.446636        12.1536 
  28   0.0000       0.453789        12.3482 
  29   0.0000       0.463319        12.6076 
  30   0.0000       0.500700        13.6247 
  31   0.0000       0.525579        14.3017 
  32   0.0000       0.534481        14.5440 
  33   0.0000       0.703127        19.1331 
  34   0.0000       0.709997        19.3200 
  35   0.0000       0.729610        19.8537 
  36   0.0000       0.829922        22.5833 
  37   0.0000       0.874123        23.7861 
  38   0.0000       0.894999        24.3542 
  39   0.0000       0.951258        25.8850 
  40   0.0000       1.023267        27.8445 
  41   0.0000       1.040818        28.3221 
  42   0.0000       1.080048        29.3896 
  43   0.0000       1.095893        29.8208 
  44   0.0000       1.169389        31.8207 
  45   0.0000       1.358637        36.9704 
  46   0.0000       1.450857        39.4798 
  47   0.0000       1.490755        40.5655 
  48   0.0000       1.518804        41.3287 
  49   0.0000       1.524032        41.4710 
  50   0.0000       1.578460        42.9521 
  51   0.0000       1.615161        43.9508 
  52   0.0000       1.676615        45.6230 
  53   0.0000       1.715397        46.6783 
  54   0.0000       1.778613        48.3985 
  55   0.0000       1.800935        49.0059 
  56   0.0000       1.819934        49.5229 
  57   0.0000       1.929131        52.4943 
  58   0.0000       1.966799        53.5193 
  59   0.0000       1.974883        53.7393 
  60   0.0000       2.120677        57.7065 
  61   0.0000       2.159487        58.7626 
  62   0.0000       2.165591        58.9287 
  63   0.0000       2.280408        62.0531 
  64   0.0000       2.314218        62.9731 
  65   0.0000       2.410261        65.5865 
  66   0.0000       2.437656        66.3320 
  67   0.0000       2.526555        68.7511 
  68   0.0000       2.565058        69.7988 
  69   0.0000       2.613012        71.1037 
  70   0.0000       2.625043        71.4310 
  71   0.0000       2.662189        72.4418 
  72   0.0000       2.687654        73.1348 
  73   0.0000       2.718486        73.9738 
  74   0.0000       2.769033        75.3492 
  75   0.0000       2.831069        77.0373 
  76   0.0000       2.892369        78.7054 
  77   0.0000       2.947036        80.1929 
  78   0.0000       3.007629        81.8417 
  79   0.0000       3.021391        82.2162 
  80   0.0000       3.051848        83.0450 
  81   0.0000       3.072081        83.5956 
  82   0.0000       3.158817        85.9558 
  83   0.0000       3.257030        88.6283 
  84   0.0000       3.331262        90.6483 
  85   0.0000       3.349343        91.1403 
  86   0.0000       3.410294        92.7988 
  87   0.0000       3.442717        93.6811 
  88   0.0000       3.574065        97.2553 
  89   0.0000       3.648453        99.2795 
  90   0.0000       3.670422        99.8773 
  91   0.0000       3.730354       101.5081 
  92   0.0000       3.915281       106.5402 
  93   0.0000       4.098017       111.5127 
  94   0.0000       4.105458       111.7152 
  95   0.0000       4.195180       114.1566 
  96   0.0000       4.265270       116.0639 
  97   0.0000       4.303829       117.1131 
  98   0.0000       4.383624       119.2845 
  99   0.0000       4.592018       124.9552 
 100   0.0000       4.753781       129.3570 
 101   0.0000       4.869175       132.4970 
 102   0.0000       5.339289       145.2894 
 103   0.0000       5.491771       149.4387 
 104   0.0000       5.756062       156.6304 
 105   0.0000       5.831722       158.6892 
 106   0.0000       5.892864       160.3530 
 107   0.0000       5.972466       162.5191 
 108   0.0000       6.135943       166.9675 
 109   0.0000       6.632863       180.4894 
 110   0.0000       6.649504       180.9422 
 111   0.0000       6.812563       185.3793 
 112   0.0000       6.980568       189.9509 
 113   0.0000       7.179412       195.3617 
 114   0.0000      22.411002       609.8344 
 115   0.0000      22.580908       614.4578 
 116   0.0000      43.894141      1194.4203 

                    ********************************
                    * MULLIKEN POPULATION ANALYSIS *
                    ********************************

-----------------------
MULLIKEN ATOMIC CHARGES
-----------------------
   0 O :   -0.302531
   1 C :   -0.040814
   2 C :   -0.087693
   3 H :    0.098596
   4 H :    0.101747
   5 H :    0.123775
   6 H :    0.106919
Sum of atomic charges:   -0.0000000

--------------------------------
MULLIKEN REDUCED ORBITAL CHARGES
--------------------------------
  0 O s       :     3.843005  s :     3.843005
      pz      :     1.814593  p :     4.409031
      px      :     1.303119
      py      :     1.291319
      dz2     :     0.006027  d :     0.047995
      dxz     :     0.003132
      dyz     :     0.007819
      dx2y2   :     0.013881
      dxy     :     0.017135
      f0      :     0.000313  f :     0.002500
      f+1     :     0.000228
      f-1     :     0.000496
      f+2     :     0.000098
      f-2     :     0.000250
      f+3     :     0.000387
      f-3     :     0.000728
  1 C s       :     3.203035  s :     3.203035
      pz      :     1.036520  p :     2.699458
      px      :     0.894033
      py      :     0.768905
      dz2     :     0.004232  d :     0.125102
      dxz     :     0.028831
      dyz     :     0.036366
      dx2y2   :     0.032535
      dxy     :     0.023137
      f0      :     0.001709  f :     0.013219
      f+1     :     0.001361
      f-1     :     0.000821
      f+2     :     0.001412
      f-2     :     0.002090
      f+3     :     0.002318
      f-3     :     0.003507
  2 C s       :     3.211651  s :     3.211651
      pz      :     1.056058  p :     2.755508
      px      :     0.907937
      py      :     0.791512
      dz2     :     0.005544  d :     0.108549
      dxz     :     0.025976
      dyz     :     0.028718
      dx2y2   :     0.028977
      dxy     :     0.019334
      f0      :     0.001596  f :     0.011985
      f+1     :     0.001345
      f-1     :     0.000587
      f+2     :     0.001255
      f-2     :     0.001844
      f+3     :     0.002361
      f-3     :     0.002996
  3 H s       :     0.881492  s :     0.881492
      pz      :     0.010057  p :     0.019912
      px      :     0.006190
      py      :     0.003665
  4 H s       :     0.878008  s :     0.878008
      pz      :     0.009623  p :     0.020245
      px      :     0.006797
      py      :     0.003825
  5 H s       :     0.852741  s :     0.852741
      pz      :     0.010168  p :     0.023484
      px      :     0.008321
      py      :     0.004994
  6 H s       :     0.871638  s :     0.871638
      pz      :     0.011313  p :     0.021443
      px      :     0.005976
      py      :     0.004154


                     *******************************
                     * LOEWDIN POPULATION ANALYSIS *
                     *******************************

----------------------
LOEWDIN ATOMIC CHARGES
----------------------
   0 O :    0.189366
   1 C :   -0.364805
   2 C :   -0.273469
   3 H :    0.118209
   4 H :    0.116405
   5 H :    0.095398
   6 H :    0.118896

-------------------------------
LOEWDIN REDUCED ORBITAL CHARGES
-------------------------------
  0 O s       :     3.332381  s :     3.332381
      pz      :     1.679900  p :     4.360997
      px      :     1.282108
      py      :     1.398989
      dz2     :     0.012142  d :     0.108880
      dxz     :     0.009965
      dyz     :     0.018174
      dx2y2   :     0.039839
      dxy     :     0.028760
      f0      :     0.000823  f :     0.008376
      f+1     :     0.000316
      f-1     :     0.000999
      f+2     :     0.000191
      f-2     :     0.001219
      f+3     :     0.001416
      f-3     :     0.003412
  1 C s       :     2.807577  s :     2.807577
      pz      :     1.039694  p :     2.918456
      px      :     1.022850
      py      :     0.855912
      dz2     :     0.052255  d :     0.550122
      dxz     :     0.147211
      dyz     :     0.113168
      dx2y2   :     0.121927
      dxy     :     0.115561
      f0      :     0.011829  f :     0.088650
      f+1     :     0.006251
      f-1     :     0.006560
      f+2     :     0.009764
      f-2     :     0.010087
      f+3     :     0.017139
      f-3     :     0.027021
  2 C s       :     2.798720  s :     2.798720
      pz      :     1.059635  p :     2.931415
      px      :     1.031767
      py      :     0.840013
      dz2     :     0.052600  d :     0.468927
      dxz     :     0.137112
      dyz     :     0.080820
      dx2y2   :     0.103827
      dxy     :     0.094567
      f0      :     0.010069  f :     0.074406
      f+1     :     0.006283
      f-1     :     0.005712
      f+2     :     0.008015
      f-2     :     0.007701
      f+3     :     0.015251
      f-3     :     0.021374
  3 H s       :     0.825889  s :     0.825889
      pz      :     0.029717  p :     0.055902
      px      :     0.015660
      py      :     0.010525
  4 H s       :     0.826457  s :     0.826457
      pz      :     0.028896  p :     0.057137
      px      :     0.017179
      py      :     0.011062
  5 H s       :     0.829230  s :     0.829230
      pz      :     0.034428  p :     0.075372
      px      :     0.024509
      py      :     0.016435
  6 H s       :     0.819500  s :     0.819500
      pz      :     0.033155  p :     0.061603
      px      :     0.016160
      py      :     0.012288


                      *****************************
                      * MAYER POPULATION ANALYSIS *
                      *****************************

  NA   - Mulliken gross atomic population
  ZA   - Total nuclear charge
  QA   - Mulliken gross atomic charge
  VA   - Mayer's total valence
  BVA  - Mayer's bonded valence
  FA   - Mayer's free valence

  ATOM       NA         ZA         QA         VA         BVA        FA
  0 O      8.3025     8.0000    -0.3025     2.0193     2.0193    -0.0000
  1 C      6.0408     6.0000    -0.0408     3.9808     3.9808    -0.0000
  2 C      6.0877     6.0000    -0.0877     3.9691     3.9691    -0.0000
  3 H      0.9014     1.0000     0.0986     0.9579     0.9579    -0.0000
  4 H      0.8983     1.0000     0.1017     0.9582     0.9582    -0.0000
  5 H      0.8762     1.0000     0.1238     0.9608     0.9608     0.0000
  6 H      0.8931     1.0000     0.1069     0.9639     0.9639    -0.0000

  Mayer bond orders larger than 0.100000
B(  0-O ,  1-C ) :   1.0167 B(  0-O ,  2-C ) :   0.9698 B(  1-C ,  2-C ) :   1.0612 
B(  1-C ,  3-H ) :   0.9445 B(  1-C ,  4-H ) :   0.9494 B(  2-C ,  5-H ) :   0.9621 
B(  2-C ,  6-H ) :   0.9600 

-------
TIMINGS
-------

Total SCF time: 0 days 0 hours 0 min 2 sec 

Total time                  ....       2.605 sec
Sum of individual times     ....       2.343 sec  ( 89.9%)

Fock matrix formation       ....       1.679 sec  ( 64.5%)
  Split-RI-J                ....       0.269 sec  ( 16.0% of F)
  Chain of spheres X        ....       1.221 sec  ( 72.7% of F)
  XC integration            ....       0.172 sec  ( 10.2% of F)
    Basis function eval.    ....       0.032 sec  ( 18.9% of XC)
    Density eval.           ....       0.034 sec  ( 19.7% of XC)
    XC-Functional eval.     ....       0.007 sec  (  4.1% of XC)
    XC-Potential eval.      ....       0.038 sec  ( 22.1% of XC)
Diagonalization             ....       0.005 sec  (  0.2%)
Density matrix formation    ....       0.002 sec  (  0.1%)
Population analysis         ....       0.014 sec  (  0.5%)
Initial guess               ....       0.009 sec  (  0.4%)
Orbital Transformation      ....       0.000 sec  (  0.0%)
Orbital Orthonormalization  ....       0.003 sec  (  0.1%)
DIIS solution               ....       0.003 sec  (  0.1%)
SOSCF solution              ....       0.008 sec  (  0.3%)
Grid generation             ....       0.622 sec  ( 23.9%)

Maximum memory used throughout the entire SCF-calculation: 61.1 MB


           ************************************************************
           *        Program running with 8 parallel MPI-processes     *
           *              working on a common directory               *
           ************************************************************
------------------------------------------------------------------------------
                        ORCA TD-DFT/TDA CALCULATION
------------------------------------------------------------------------------

Input orbitals are from        ... ox_es1_A_orca0017.gbw
CI-vector output               ... ox_es1_A_orca0017.cis
Tamm-Dancoff approximation     ... operative
CIS-Integral strategy          ... AO-integrals
Integral handling              ... AO integral Direct
Max. core memory used          ... 3000 MB
Reference state                ... RHF
Generation of triplets         ... off
Follow IRoot                   ... off
Number of operators            ... 1
Orbital ranges used for CIS calculation:
 Operator 0:  Orbitals   3... 11  to  12...116
XAS localization array:
 Operator 0:  Orbitals  -1... -1

-------------------
XC-INTEGRATION GRID
-------------------

General Integration Accuracy     IntAcc      ... 3.467
Radial Grid Type                 RadialGrid  ... OptM3 with GC (2021)
Angular Grid (max. ang.)         AngularGrid ... 1 (Lebedev-50)
Angular grid pruning method      GridPruning ... 4 (adaptive)
Weight generation scheme         WeightScheme... Becke
Basis function cutoff            BFCut       ... 1.0000e-11
Integration weight cutoff        WCut        ... 1.0000e-14
Angular grids for H and He will be reduced by one unit
Partially contracted basis set               ... off
Rotationally invariant grid construction     ... off

Total number of grid points                  ...     4536
Total number of batches                      ...       74
Average number of points per batch           ...       61
Average number of grid points per atom       ...      648

---------------------
COSX-INTEGRATION GRID
---------------------

General Integration Accuracy     IntAcc      ... 3.067
Radial Grid Type                 RadialGrid  ... OptM3 with GC (2021)
Angular Grid (max. ang.)         AngularGrid ... 1 (Lebedev-50)
Angular grid pruning method      GridPruning ... 4 (adaptive)
Weight generation scheme         WeightScheme... Becke
Basis function cutoff            BFCut       ... 1.0000e-11
Integration weight cutoff        WCut        ... 1.0000e-14
Angular grids for H and He will be reduced by one unit
Partially contracted basis set               ... on
Rotationally invariant grid construction     ... off

Total number of grid points                  ...     2083
Total number of batches                      ...       37
Average number of points per batch           ...       56
Average number of grid points per atom       ...      298

---------------
TD-DFT XC SETUP
---------------

DFT calculation                         ... on
Name of the grid file                   ... ox_es1_A_orca0017.grid_cis.tmp
Exchange functional (TD-DFT)            ... PBE
   PBE kappa parameter  XKappa (TD-DFT) ...  0.804000
   PBE mue parameter   XMuePBE (TD-DFT) ...  0.219520
Correlation functional (TD-DFT)         ... PBE
   PBE beta parameter CBetaPBE (TD-DFT) ...  0.066725
 LDA part of GGA corr.  LDAOpt (TD-DFT) ... PW91-LDA
Hybrid DFT                              ... on
   Exchange mixing (TD-DFT)             ...  0.250
   GGA exch. scaling (TD-DFT)           ...  0.750
   GGA corr. scaling (TD-DFT)           ...  1.000

Building densities             ... done
Calculating rho(r) on the grid ... done
Building xc-kernel on the grid ... done
                    *** TD-DFT CALCULATION INITIALIZED ***

------------------------
DAVIDSON-DIAGONALIZATION
------------------------

Dimension of the eigenvalue problem            ...    945
Number of roots to be determined               ...      1
Maximum size of the expansion space            ...     10
Maximum number of iterations                   ...    100
Convergence tolerance for the residual         ...    2.500e-07
Convergence tolerance for the energies         ...    2.500e-07
Orthogonality tolerance                        ...    1.000e-14
Level Shift                                    ...    0.000e+00
Constructing the preconditioner                ... o.k.
Building the initial guess                     ... o.k.
Number of trial vectors determined             ...     10


                       ****Iteration    0****

   Memory handling for direct AO based CIS:
   Memory per vector needed      ...     1 MB
   Memory needed                 ...     1 MB
   Memory available              ...  3000 MB
   Number of vectors per batch   ...  3000
   Number of batches             ...     1
   Time for densities:            0.001
   Time for RI-J (Direct):        0.071
   Time for K (COSX):             0.178
   Time for XC-Integration:       0.074
   Time for Sigma-Completion:     0.002
   Size of expansion space: 3
   Lowest Energy          :     0.306562662037
   Maximum Energy change  :     0.306562662037 (vector 0)
   Maximum residual norm  :     0.002576606402

                       ****Iteration    1****
   Time for densities:            0.000
   Time for RI-J (Direct):        0.067
   Time for K (COSX):             0.165
   Time for XC-Integration:       0.023
   Time for Sigma-Completion:     0.000
   Size of expansion space: 4
   Lowest Energy          :     0.303819853872
   Maximum Energy change  :     0.002742808164 (vector 0)
   Maximum residual norm  :     0.000337625583

                       ****Iteration    2****
   Time for densities:            0.000
   Time for RI-J (Direct):        0.056
   Time for K (COSX):             0.177
   Time for XC-Integration:       0.028
   Time for Sigma-Completion:     0.001
   Size of expansion space: 5
   Lowest Energy          :     0.303147098295
   Maximum Energy change  :     0.000672755577 (vector 0)
   Maximum residual norm  :     0.000190864210

                       ****Iteration    3****
   Time for densities:            0.001
   Time for RI-J (Direct):        0.068
   Time for K (COSX):             0.203
   Time for XC-Integration:       0.016
   Time for Sigma-Completion:     0.001
   Size of expansion space: 6
   Lowest Energy          :     0.302784335611
   Maximum Energy change  :     0.000362762684 (vector 0)
   Maximum residual norm  :     0.000039483836

                       ****Iteration    4****
   Time for densities:            0.000
   Time for RI-J (Direct):        0.056
   Time for K (COSX):             0.179
   Time for XC-Integration:       0.035
   Time for Sigma-Completion:     0.004
   Size of expansion space: 7
   Lowest Energy          :     0.302709551568
   Maximum Energy change  :     0.000074784043 (vector 0)
   Maximum residual norm  :     0.000015464263

                       ****Iteration    5****
   Time for densities:            0.001
   Time for RI-J (Direct):        0.045
   Time for K (COSX):             0.107
   Time for XC-Integration:       0.013
   Time for Sigma-Completion:     0.000
   Size of expansion space: 8
   Lowest Energy          :     0.302690494971
   Maximum Energy change  :     0.000019056597 (vector 0)
   Maximum residual norm  :     0.000001443360

                       ****Iteration    6****
   Time for densities:            0.000
   Time for RI-J (Direct):        0.025
   Time for K (COSX):             0.089
   Time for XC-Integration:       0.020
   Time for Sigma-Completion:     0.000
   Size of expansion space: 9
   Lowest Energy          :     0.302688634817
   Maximum Energy change  :     0.000001860153 (vector 0)
   Maximum residual norm  :     0.000000224894

      *** CONVERGENCE OF RESIDUAL NORM REACHED ***

Storing the converged CI vectors               ... ox_es1_A_orca0017.cis1

                 *** DAVIDSON DONE ***

Total time for solving the CIS problem:     1.776sec

------------------------------------
TD-DFT/TDA EXCITED STATES (SINGLETS)
------------------------------------

the weight of the individual excitations are printed if larger than 1.0e-02

STATE  1:  E=   0.302689 au      8.237 eV    66432.5 cm**-1 <S**2> =   0.000000
    11a ->  12a  :     0.516989 (c=  0.71901916)
    11a ->  13a  :     0.383080 (c= -0.61893457)
    11a ->  14a  :     0.045302 (c=  0.21284217)
    11a ->  16a  :     0.042648 (c= -0.20651301)


-----------------------------
TD-DFT/TDA-EXCITATION SPECTRA
-----------------------------

Center of mass = (  0.0141,  0.0225, -0.0352)
Calculating the Dipole integrals                  ... done
Transforming integrals                            ... done
Calculating the Linear Momentum integrals         ... done
Transforming integrals                            ... done
Calculating angular momentum integrals            ... done
Transforming integrals                            ... done

-----------------------------------------------------------------------------
         ABSORPTION SPECTRUM VIA TRANSITION ELECTRIC DIPOLE MOMENTS
-----------------------------------------------------------------------------
State   Energy    Wavelength  fosc         T2        TX        TY        TZ  
        (cm-1)      (nm)                 (au**2)    (au)      (au)      (au) 
-----------------------------------------------------------------------------
   1   66432.5    150.5   0.041435233   0.20534   0.06604   0.01230  -0.44813

-----------------------------------------------------------------------------
         ABSORPTION SPECTRUM VIA TRANSITION VELOCITY DIPOLE MOMENTS
-----------------------------------------------------------------------------
State   Energy    Wavelength   fosc        P2         PX        PY        PZ  
        (cm-1)      (nm)                 (au**2)     (au)      (au)      (au) 
-----------------------------------------------------------------------------
   1   66432.5    150.5   0.049838553   0.02263  -0.00923   0.00460   0.15007

-------------------------------------------------------------------
                             CD SPECTRUM
-------------------------------------------------------------------
State  Energy     Wavelength     R         MX        MY        MZ   
       (cm-1)       (nm)     (1e40*cgs)   (au)      (au)      (au)  
-------------------------------------------------------------------
   1   66432.5    150.5     -7.11865  -0.09139   0.10842   0.02320

-------------------------------------------------------------------
         CD SPECTRUM VIA TRANSITION VELOCITY DIPOLE MOMENTS        
-------------------------------------------------------------------
State  Energy     Wavelength     R         MX        MY        MZ   
       (cm-1)       (nm)     (1e40*cgs)   (au)      (au)      (au)  
-------------------------------------------------------------------
   1   66432.5    150.5      7.51377  -0.09139   0.10842   0.02320

Total run time:        2.543 sec

           *** ORCA-CIS/TD-DFT FINISHED WITHOUT ERROR ***

Maximum memory used throughout the entire CIS-calculation: 49.4 MB

-----------------------
CIS/TD-DFT TOTAL ENERGY
-----------------------

    E(SCF)  =   -153.664352555 Eh
    DE(CIS) =      0.302688635 Eh (Root  1)
    ----------------------------- ---------
    E(tot)  =   -153.361663920 Eh



-------------------------------------------------------------------------------
                          DFT DISPERSION CORRECTION                            
                                                                               
                              DFTD3 V3.1  Rev 1                                
                          USING Becke-Johnson damping                          
-------------------------------------------------------------------------------
The PBE0 functional is recognized
Active option DFTDOPT                   ...         4   

molecular C6(AA) [au] = 350.767107 


            DFT-D V3
 parameters
 s6 scaling factor         :     1.0000 
 a1 scaling factor         :     0.4145 
 s8 scaling factor         :     1.2177 
 a2 scaling factor         :     4.8593 
 ad hoc parameters k1-k3   :    16.0000     1.3333    -4.0000 

 Edisp/kcal,au: -1.510250651209  -0.002406737352 
 E6   /kcal   :  -0.990362856 
 E8   /kcal   :  -0.519887795 
 % E8         :  34.423941123 

-------------------------   ----------------
Dispersion correction           -0.002406737
-------------------------   ----------------


-------------------------   --------------------
FINAL SINGLE POINT ENERGY      -153.364070657450
-------------------------   --------------------



           ************************************************************
           *        Program running with 8 parallel MPI-processes     *
           *              working on a common directory               *
           ************************************************************
------------------------------------------------------------------------------
                         ORCA SCF GRADIENT CALCULATION
------------------------------------------------------------------------------


------------------------
TD-DFT GRADIENT XC SETUP
------------------------

Building densities                     ... done
Calculating rho(r) on the grid         ... done
Building xc-kernel on the grid         ... done
Building xc 3rd derivative on the grid      ... done
                *** TD-DFT GRADIENT CALCULATION INITIALIZED ***

-------------------
TD-DFT/TDA GRADIENT
-------------------

Reference wavefunction             ... RHF
State of interest                  ... 1
Basis dimension                    ... 117
DFT-XC contribution needed         ... YES
RI-approximation                   ... ON
CIS-vectors being read from        ... ox_es1_A_orca0017.cis

 => Number of Vectors found: 1
 => Orbital Window: 3...11 -> 12...116

Reading the CIS file                     ... done
Norm of the CI vector                    ... 1.000000000
Making the CIS (pseudo)densities         ... done
Making operators G(D) and Q(T)           ... done
Transforming the Fock operators          ... done
Making the frozen-core relaxed density   ... done
Constructing the G(H) operator           ... done
Transforming the G(H) operator           ... done
Calculating the CIS Lagrangian           ... done
Solving the Z-vector equations           ... done
Finalizing the relaxed density           ... done
Storing the relaxed density              ... done
Constructing the G(Z) operator           ... done
Transforming the G(Z) operator           ... done
Making the W-matrix                      ... done
Finalizing the W-matrix                  ... done
Transforming the W-matrix                ... done
Nuclear repulsion gradient               ... done
One-Electron gradient                    ... done
Dispersion correction                    ... done
Prescreening matrices                    ... done
COSX-gradient                            ... done
Coulomb gradient (RI)                    ... done
Exchange-Correlation gradient            ... done

                 ---------------------------
                 EXCITED STATE GRADIENT DONE
                 ---------------------------

------------------
CARTESIAN GRADIENT
------------------

   1   O   :    0.058060968   -0.127879120    0.010031018
   2   C   :    0.029944099    0.044796091    0.000418776
   3   C   :   -0.052889176    0.096729092   -0.062420789
   4   H   :   -0.000558129   -0.008751224    0.003814833
   5   H   :    0.003570297   -0.011793906   -0.002793056
   6   H   :   -0.034952352    0.006131169    0.054442506
   7   H   :   -0.003206478    0.000731892   -0.003454841

Difference to translation invariance:
           :   -0.0000307715   -0.0000360066    0.0000384493

Difference to rotation invariance:
           :   -0.0002177063    0.0000136331    0.0006646158

Norm of the cartesian gradient     ...    0.2080276629
RMS gradient                       ...    0.0453953577
MAX gradient                       ...    0.1278791203

------------------------------------------------------------------------------
                  RELAXED CIS/TDA DENSITY POPULATION ANALYSIS
                                   IROOT 1
------------------------------------------------------------------------------
------------------------------------------------------------------------------
                           ORCA POPULATION ANALYSIS
------------------------------------------------------------------------------
Input electron density              ... ox_es1_A_orca0017.cisp
BaseName (.gbw .S,...)              ... ox_es1_A_orca0017

                    ********************************
                    * MULLIKEN POPULATION ANALYSIS *
                    ********************************

-----------------------
MULLIKEN ATOMIC CHARGES
-----------------------
   0 O :    0.147085
   1 C :    0.225137
   2 C :   -0.708143
   3 H :   -0.022974
   4 H :    0.003342
   5 H :    0.189212
   6 H :    0.166340
Sum of atomic charges:   -0.0000000

--------------------------------
MULLIKEN REDUCED ORBITAL CHARGES
--------------------------------
  0 O s       :     3.747899  s :     3.747899
      pz      :     1.167014  p :     4.056889
      px      :     1.463851
      py      :     1.426024
      dz2     :     0.003950  d :     0.046142
      dxz     :     0.003780
      dyz     :     0.008694
      dx2y2   :     0.014110
      dxy     :     0.015609
      f0      :     0.000185  f :     0.001985
      f+1     :     0.000029
      f-1     :     0.000235
      f+2     :     0.000110
      f-2     :     0.000283
      f+3     :     0.000379
      f-3     :     0.000764
  1 C s       :     2.930073  s :     2.930073
      pz      :     1.043121  p :     2.744045
      px      :     1.024667
      py      :     0.676256
      dz2     :     0.003420  d :     0.088473
      dxz     :     0.023235
      dyz     :     0.011945
      dx2y2   :     0.031615
      dxy     :     0.018258
      f0      :     0.001123  f :     0.012273
      f+1     :     0.001588
      f-1     :     0.000725
      f+2     :     0.000988
      f-2     :     0.001635
      f+3     :     0.002917
      f-3     :     0.003297
  2 C s       :     3.304026  s :     3.304026
      pz      :     1.097484  p :     3.309662
      px      :     0.923451
      py      :     1.288728
      dz2     :     0.007774  d :     0.083725
      dxz     :     0.016789
      dyz     :     0.006377
      dx2y2   :     0.027356
      dxy     :     0.025428
      f0      :     0.001127  f :     0.010729
      f+1     :     0.001286
      f-1     :     0.000684
      f+2     :     0.000946
      f-2     :     0.001325
      f+3     :     0.002733
      f-3     :     0.002628
  3 H s       :     0.997351  s :     0.997351
      pz      :     0.012609  p :     0.025623
      px      :     0.009187
      py      :     0.003827
  4 H s       :     0.971804  s :     0.971804
      pz      :     0.011353  p :     0.024854
      px      :     0.009603
      py      :     0.003898
  5 H s       :     0.781589  s :     0.781589
      pz      :     0.009687  p :     0.029198
      px      :     0.008651
      py      :     0.010861
  6 H s       :     0.807306  s :     0.807306
      pz      :     0.011044  p :     0.026354
      px      :     0.006190
      py      :     0.009120


                     *******************************
                     * LOEWDIN POPULATION ANALYSIS *
                     *******************************

----------------------
LOEWDIN ATOMIC CHARGES
----------------------
   0 O :    0.481817
   1 C :   -0.349353
   2 C :   -0.592045
   3 H :    0.101001
   4 H :    0.106314
   5 H :    0.112496
   6 H :    0.139770

-------------------------------
LOEWDIN REDUCED ORBITAL CHARGES
-------------------------------
  0 O s       :     3.375301  s :     3.375301
      pz      :     1.092712  p :     4.016663
      px      :     1.432960
      py      :     1.490992
      dz2     :     0.014575  d :     0.118057
      dxz     :     0.011583
      dyz     :     0.018204
      dx2y2   :     0.043381
      dxy     :     0.030313
      f0      :     0.000825  f :     0.008162
      f+1     :     0.000172
      f-1     :     0.000851
      f+2     :     0.000188
      f-2     :     0.001337
      f+3     :     0.001233
      f-3     :     0.003555
  1 C s       :     2.850302  s :     2.850302
      pz      :     1.010416  p :     2.944148
      px      :     1.070867
      py      :     0.862866
      dz2     :     0.052843  d :     0.467291
      dxz     :     0.125099
      dyz     :     0.049357
      dx2y2   :     0.128298
      dxy     :     0.111694
      f0      :     0.008825  f :     0.087612
      f+1     :     0.007949
      f-1     :     0.007201
      f+2     :     0.006844
      f-2     :     0.007913
      f+3     :     0.020966
      f-3     :     0.027914
  2 C s       :     2.806955  s :     2.806955
      pz      :     1.054409  p :     3.160108
      px      :     1.021296
      py      :     1.084403
      dz2     :     0.055525  d :     0.542685
      dxz     :     0.115736
      dyz     :     0.033252
      dx2y2   :     0.172962
      dxy     :     0.165210
      f0      :     0.008064  f :     0.082298
      f+1     :     0.006276
      f-1     :     0.008823
      f+2     :     0.005411
      f-2     :     0.005564
      f+3     :     0.026713
      f-3     :     0.021447
  3 H s       :     0.828211  s :     0.828211
      pz      :     0.037118  p :     0.070787
      px      :     0.023334
      py      :     0.010336
  4 H s       :     0.824220  s :     0.824220
      pz      :     0.034406  p :     0.069466
      px      :     0.024393
      py      :     0.010667
  5 H s       :     0.799061  s :     0.799061
      pz      :     0.033920  p :     0.088442
      px      :     0.025480
      py      :     0.029041
  6 H s       :     0.785760  s :     0.785760
      pz      :     0.033361  p :     0.074470
      px      :     0.016543
      py      :     0.024566


                      *****************************
                      * MAYER POPULATION ANALYSIS *
                      *****************************

  NA   - Mulliken gross atomic population
  ZA   - Total nuclear charge
  QA   - Mulliken gross atomic charge
  VA   - Mayer's total valence
  BVA  - Mayer's bonded valence
  FA   - Mayer's free valence

  ATOM       NA         ZA         QA         VA         BVA        FA
  0 O      7.8529     8.0000     0.1471     1.9335     1.3300     0.6035
  1 C      5.7749     6.0000     0.2251     2.7917     2.8835    -0.0918
  2 C      6.7081     6.0000    -0.7081     4.1172     3.2956     0.8216
  3 H      1.0230     1.0000    -0.0230     1.2555     0.9901     0.2654
  4 H      0.9967     1.0000     0.0033     1.2135     0.9929     0.2206
  5 H      0.8108     1.0000     0.1892     0.9856     0.9605     0.0250
  6 H      0.8337     1.0000     0.1663     1.0119     0.9529     0.0589

  Mayer bond orders larger than 0.100000
B(  0-O ,  1-C ) :   0.8518 B(  0-O ,  2-C ) :   0.4387 B(  1-C ,  2-C ) :   0.6246 
B(  1-C ,  3-H ) :   0.7057 B(  1-C ,  4-H ) :   0.7466 B(  2-C ,  3-H ) :   0.1811 
B(  2-C ,  4-H ) :   0.1487 B(  2-C ,  5-H ) :   0.9565 B(  2-C ,  6-H ) :   0.9460 



-------
TIMINGS
-------

Total TD-DFT gradient time         ...       11.930 sec

Fock matrix formation       ....       2.294 sec  ( 19.2%)
  Coulomb formation         ....       1.781 sec  ( 77.7% of F)
  RI-J                      ....       0.694 sec  ( 30.3% of F)
  Chain of spheres X        ....       1.085 sec  ( 47.3% of F)
  XC integration            ....       0.513 sec  ( 22.3% of F)
Z-vector equation           ....       4.103 sec  ( 34.4%)
One electron gradient       ....       0.052 sec  (  0.4%)
Prescreening matrices       ....       0.266 sec  (  2.2%)
RI-J Coulomb gradient       ....       0.502 sec  (  4.2%)
COSX gradient               ....       0.847 sec  (  7.1%)
XC gradient                 ....       3.024 sec  ( 25.4%)

Maximum memory used throughout the entire SCFGRAD-calculation: 130.3 MB

                            ***************************************
                            *     ORCA property calculations      *
                            ***************************************

                                    ---------------------
                                    Active property flags
                                    ---------------------
   (+) Dipole Moment


------------------------------------------------------------------------------
                       ORCA ELECTRIC PROPERTIES CALCULATION
------------------------------------------------------------------------------

Dipole Moment Calculation                       ... on
Quadrupole Moment Calculation                   ... off
Polarizability Calculation                      ... off
GBWName                                         ... ox_es1_A_orca0017.gbw
Electron density                                ... ox_es1_A_orca0017.scfp
The origin for moment calculation is the CENTER OF MASS  = ( 0.014114,  0.022500 -0.035185)

-------------
DIPOLE MOMENT
-------------
                                X             Y             Z
Electronic contribution:      0.08272       1.78805      -0.19948
Nuclear contribution   :     -0.02203      -2.45344       0.20708
                        -----------------------------------------
Total Dipole Moment    :      0.06070      -0.66540       0.00760
                        -----------------------------------------
Magnitude (a.u.)       :      0.66820
Magnitude (Debye)      :      1.69843



--------------------
Rotational spectrum 
--------------------
 
Rotational constants in cm-1:     0.921463     0.746443     0.489005 
Rotational constants in MHz : 27624.763018 22377.784362 14659.997621 

 Dipole components along the rotational axes: 
x,y,z [a.u.] :     0.162740    -0.647800    -0.019077 
x,y,z [Debye]:     0.413653    -1.646576    -0.048490 

 

                        *** CIS RELAXED DENSITY ***

------------------------------------------------------------------------------
                       ORCA ELECTRIC PROPERTIES CALCULATION
------------------------------------------------------------------------------

Dipole Moment Calculation                       ... on
Quadrupole Moment Calculation                   ... off
Polarizability Calculation                      ... off
GBWName                                         ... ox_es1_A_orca0017.gbw
Electron density                                ... ox_es1_A_orca0017.cisp
The origin for moment calculation is the CENTER OF MASS  = ( 0.014114,  0.022500 -0.035185)

-------------
DIPOLE MOMENT
-------------
                                X             Y             Z
Electronic contribution:     -0.21312       2.77350      -0.25364
Nuclear contribution   :     -0.02203      -2.45344       0.20708
                        -----------------------------------------
Total Dipole Moment    :     -0.23514       0.32006      -0.04656
                        -----------------------------------------
Magnitude (a.u.)       :      0.39987
Magnitude (Debye)      :      1.01639



--------------------
Rotational spectrum 
--------------------
 
Rotational constants in cm-1:     0.921463     0.746443     0.489005 
Rotational constants in MHz : 27624.763018 22377.784362 14659.997621 

 Dipole components along the rotational axes: 
x,y,z [a.u.] :    -0.281800     0.281557    -0.034773 
x,y,z [Debye]:    -0.716280     0.715661    -0.088385 

 

Timings for individual modules:

Sum of individual times         ...       19.843 sec (=   0.331 min)
GTO integral calculation        ...        0.954 sec (=   0.016 min)   4.8 %
SCF iterations                  ...        3.310 sec (=   0.055 min)  16.7 %
CIS module                      ...        3.071 sec (=   0.051 min)  15.5 %
SCF Gradient evaluation         ...       12.508 sec (=   0.208 min)  63.0 %
                             ****ORCA TERMINATED NORMALLY****
TOTAL RUN TIME: 0 days 0 hours 0 minutes 20 seconds 704 msec
