
                                 *****************
                                 * O   R   C   A *
                                 *****************

                                            #,                                       
                                            ###                                      
                                            ####                                     
                                            #####                                    
                                            ######                                   
                                           ########,                                 
                                     ,,################,,,,,                         
                               ,,#################################,,                 
                          ,,##########################################,,             
                       ,#########################################, ''#####,          
                    ,#############################################,,   '####,        
                  ,##################################################,,,,####,       
                ,###########''''           ''''###############################       
              ,#####''   ,,,,##########,,,,          '''####'''          '####       
            ,##' ,,,,###########################,,,                        '##       
           ' ,,###''''                  '''############,,,                           
         ,,##''                                '''############,,,,        ,,,,,,###''
      ,#''                                            '''#######################'''  
     '                                                          ''''####''''         
             ,#######,   #######,   ,#######,      ##                                
            ,#'     '#,  ##    ##  ,#'     '#,    #''#        ######   ,####,        
            ##       ##  ##   ,#'  ##            #'  '#       #        #'  '#        
            ##       ##  #######   ##           ,######,      #####,   #    #        
            '#,     ,#'  ##    ##  '#,     ,#' ,#      #,         ##   #,  ,#        
             '#######'   ##     ##  '#######'  #'      '#     #####' # '####'        



                  #######################################################
                  #                        -***-                        #
                  #          Department of theory and spectroscopy      #
                  #    Directorship and core code : Frank Neese         #
                  #        Max Planck Institute fuer Kohlenforschung    #
                  #                Kaiser Wilhelm Platz 1               #
                  #                 D-45470 Muelheim/Ruhr               #
                  #                      Germany                        #
                  #                                                     #
                  #                  All rights reserved                #
                  #                        -***-                        #
                  #######################################################


                         Program Version 5.0.2 -  RELEASE  -


 With contributions from (in alphabetic order):
   Daniel Aravena         : Magnetic Suceptibility
   Michael Atanasov       : Ab Initio Ligand Field Theory (pilot matlab implementation)
   Alexander A. Auer      : GIAO ZORA, VPT2 properties, NMR spectrum
   Ute Becker             : Parallelization
   Giovanni Bistoni       : ED, misc. LED, open-shell LED, HFLD
   Martin Brehm           : Molecular dynamics
   Dmytro Bykov           : SCF Hessian
   Vijay G. Chilkuri      : MRCI spin determinant printing, contributions to CSF-ICE
   Dipayan Datta          : RHF DLPNO-CCSD density
   Achintya Kumar Dutta   : EOM-CC, STEOM-CC
   Dmitry Ganyushin       : Spin-Orbit,Spin-Spin,Magnetic field MRCI
   Miquel Garcia          : C-PCM and meta-GGA Hessian, CC/C-PCM, Gaussian charge scheme
   Yang Guo               : DLPNO-NEVPT2, F12-NEVPT2, CIM, IAO-localization
   Andreas Hansen         : Spin unrestricted coupled pair/coupled cluster methods
   Benjamin Helmich-Paris : MC-RPA, TRAH-SCF, COSX integrals
   Lee Huntington         : MR-EOM, pCC
   Robert Izsak           : Overlap fitted RIJCOSX, COSX-SCS-MP3, EOM
   Marcus Kettner         : VPT2
   Christian Kollmar      : KDIIS, OOCD, Brueckner-CCSD(T), CCSD density, CASPT2, CASPT2-K
   Simone Kossmann        : Meta GGA functionals, TD-DFT gradient, OOMP2, MP2 Hessian
   Martin Krupicka        : Initial AUTO-CI
   Lucas Lang             : DCDCAS
   Marvin Lechner         : AUTO-CI (C++ implementation), FIC-MRCC
   Dagmar Lenk            : GEPOL surface, SMD
   Dimitrios Liakos       : Extrapolation schemes; Compound Job, initial MDCI parallelization
   Dimitrios Manganas     : Further ROCIS development; embedding schemes
   Dimitrios Pantazis     : SARC Basis sets
   Anastasios Papadopoulos: AUTO-CI, single reference methods and gradients
   Taras Petrenko         : DFT Hessian,TD-DFT gradient, ASA, ECA, R-Raman, ABS, FL, XAS/XES, NRVS
   Peter Pinski           : DLPNO-MP2, DLPNO-MP2 Gradient
   Christoph Reimann      : Effective Core Potentials
   Marius Retegan         : Local ZFS, SOC
   Christoph Riplinger    : Optimizer, TS searches, QM/MM, DLPNO-CCSD(T), (RO)-DLPNO pert. Triples
   Tobias Risthaus        : Range-separated hybrids, TD-DFT gradient, RPA, STAB
   Michael Roemelt        : Original ROCIS implementation
   Masaaki Saitow         : Open-shell DLPNO-CCSD energy and density
   Barbara Sandhoefer     : DKH picture change effects
   Avijit Sen             : IP-ROCIS
   Kantharuban Sivalingam : CASSCF convergence, NEVPT2, FIC-MRCI
   Bernardo de Souza      : ESD, SOC TD-DFT
   Georgi Stoychev        : AutoAux, RI-MP2 NMR, DLPNO-MP2 response
   Willem Van den Heuvel  : Paramagnetic NMR
   Boris Wezisla          : Elementary symmetry handling
   Frank Wennmohs         : Technical directorship


 We gratefully acknowledge several colleagues who have allowed us to
 interface, adapt or use parts of their codes:
   Stefan Grimme, W. Hujo, H. Kruse, P. Pracht,  : VdW corrections, initial TS optimization,
                  C. Bannwarth, S. Ehlert          DFT functionals, gCP, sTDA/sTD-DF
   Ed Valeev, F. Pavosevic, A. Kumar             : LibInt (2-el integral package), F12 methods
   Garnet Chan, S. Sharma, J. Yang, R. Olivares  : DMRG
   Ulf Ekstrom                                   : XCFun DFT Library
   Mihaly Kallay                                 : mrcc  (arbitrary order and MRCC methods)
   Jiri Pittner, Ondrej Demel                    : Mk-CCSD
   Frank Weinhold                                : gennbo (NPA and NBO analysis)
   Christopher J. Cramer and Donald G. Truhlar   : smd solvation model
   Lars Goerigk                                  : TD-DFT with DH, B97 family of functionals
   V. Asgeirsson, H. Jonsson                     : NEB implementation
   FAccTs GmbH                                   : IRC, NEB, NEB-TS, DLPNO-Multilevel, CI-OPT
                                                   MM, QMMM, 2- and 3-layer-ONIOM, Crystal-QMMM,
                                                   LR-CPCM, SF, NACMEs, symmetry and pop. for TD-DFT,
                                                   nearIR, NL-DFT gradient (VV10), updates on ESD,
                                                   ML-optimized integration grids
   S Lehtola, MJT Oliveira, MAL Marques          : LibXC Library
   Liviu Ungur et al                             : ANISO software


 Your calculation uses the libint2 library for the computation of 2-el integrals
 For citations please refer to: http://libint.valeyev.net

 Your ORCA version has been built with support for libXC version: 5.1.0
 For citations please refer to: https://tddft.org/programs/libxc/

 This ORCA versions uses:
   CBLAS   interface :  Fast vector & matrix operations
   LAPACKE interface :  Fast linear algebra routines
   SCALAPACK package :  Parallel linear algebra routines
   Shared memory     :  Shared parallel matrices
   BLAS/LAPACK       :  OpenBLAS 0.3.15  USE64BITINT DYNAMIC_ARCH NO_AFFINITY SkylakeX SINGLE_THREADED
        Core in use  :  SkylakeX
   Copyright (c) 2011-2014, The OpenBLAS Project


Your calculation utilizes the atom-pairwise dispersion correction
with the Becke-Johnson damping scheme (D3BJ)
Cite in your paper:
S.Grimme, S.Ehrlich, L.Goerigk, J Comput Chem, (2011), 32, 1456–1465 
S.Grimme, J.Antony, S.Ehrlich and H.Krieg, J.Chem.Phys., 132, (2010), 154104 
   

================================================================================

----- Orbital basis set information -----
Your calculation utilizes the basis: def2-TZVP
   F. Weigend and R. Ahlrichs, Phys. Chem. Chem. Phys. 7, 3297 (2005).

----- AuxJ basis set information -----
Your calculation utilizes the auxiliary basis: def2/J
   F. Weigend, Phys. Chem. Chem. Phys. 8, 1057 (2006).

================================================================================
                                        WARNINGS
                       Please study these warnings very carefully!
================================================================================

INFO   : Checking CIS options ...

WARNING: CIS/ROCIS methods need fully converged wavefunctions
  ===> : Setting SCFConvForced true
         You can overwrite this default with %scf ConvForced false 


INFO   : the flag for use of the SHARK integral package has been found!

================================================================================
                                       INPUT FILE
================================================================================
NAME = ox_es1_E_orca0004.inp
|  1> ! engrad PBE0 D3BJ def2-TZVP  
|  2> %pal nprocs 8 end
|  3> %maxcore 3000
|  4> 
|  5> %tddft
|  6>   nroots 1
|  7>   tda true
|  8>   Iroot 1
|  9>   end 
| 10> *xyz 0 1 
| 11> O   -1.0182966787641714 0.9297188235346787 0.07097051189597925
| 12> C   -0.6961407465710928 -0.4435349493098909 0.027614960032869132
| 13> C   0.6837371467351865 -0.4395908643587528 -0.08990097077926039
| 14> H   -1.3075736550890344 -0.6880405217549329 0.9025167982883374
| 15> H   -1.3029518309499901 -0.7440546314750291 -0.954498622227787
| 16> H   1.2323075448437044 -0.6764937844543099 -0.9269729475213704
| 17> H   1.2510529629885483 -0.6740271971509207 0.8908629443063922
| 18> *
| 19> 
| 20>                          ****END OF INPUT****
================================================================================

                     *******************************
                     * Energy+Gradient Calculation *
                     *******************************

---------------------------------
CARTESIAN COORDINATES (ANGSTROEM)
---------------------------------
  O     -1.018297    0.929719    0.070971
  C     -0.696141   -0.443535    0.027615
  C      0.683737   -0.439591   -0.089901
  H     -1.307574   -0.688041    0.902517
  H     -1.302952   -0.744055   -0.954499
  H      1.232308   -0.676494   -0.926973
  H      1.251053   -0.674027    0.890863

----------------------------
CARTESIAN COORDINATES (A.U.)
----------------------------
  NO LB      ZA    FRAG     MASS         X           Y           Z
   0 O     8.0000    0    15.999   -1.924302    1.756914    0.134115
   1 C     6.0000    0    12.011   -1.315515   -0.838160    0.052185
   2 C     6.0000    0    12.011    1.292076   -0.830706   -0.169888
   3 H     1.0000    0     1.008   -2.470956   -1.300208    1.705510
   4 H     1.0000    0     1.008   -2.462222   -1.406059   -1.803741
   5 H     1.0000    0     1.008    2.328724   -1.278388   -1.751725
   6 H     1.0000    0     1.008    2.364147   -1.273727    1.683487

--------------------------------
INTERNAL COORDINATES (ANGSTROEM)
--------------------------------
 O      0   0   0     0.000000000000     0.00000000     0.00000000
 C      1   0   0     1.411201641565     0.00000000     0.00000000
 C      2   1   0     1.384878532665   103.13793627     0.00000000
 H      2   1   3     1.095028037613    93.74226408   131.16429532
 H      2   1   3     1.192928690222    98.87701872   240.56991958
 H      3   2   1     1.028465832917   126.86059265   252.47868733
 H      3   2   1     1.157024410563   114.58520951   102.29003979

---------------------------
INTERNAL COORDINATES (A.U.)
---------------------------
 O      0   0   0     0.000000000000     0.00000000     0.00000000
 C      1   0   0     2.666784622298     0.00000000     0.00000000
 C      2   1   0     2.617041155483   103.13793627     0.00000000
 H      2   1   3     2.069303100053    93.74226408   131.16429532
 H      2   1   3     2.254308521817    98.87701872   240.56991958
 H      3   2   1     1.943518762308   126.86059265   252.47868733
 H      3   2   1     2.186459266226   114.58520951   102.29003979

---------------------
BASIS SET INFORMATION
---------------------
There are 3 groups of distinct atoms

 Group   1 Type O   : 11s6p2d1f contracted to 5s3p2d1f pattern {62111/411/11/1}
 Group   2 Type C   : 11s6p2d1f contracted to 5s3p2d1f pattern {62111/411/11/1}
 Group   3 Type H   : 5s1p contracted to 3s1p pattern {311/1}

Atom   0O    basis set group =>   1
Atom   1C    basis set group =>   2
Atom   2C    basis set group =>   2
Atom   3H    basis set group =>   3
Atom   4H    basis set group =>   3
Atom   5H    basis set group =>   3
Atom   6H    basis set group =>   3
---------------------------------
AUXILIARY/J BASIS SET INFORMATION
---------------------------------
There are 3 groups of distinct atoms

 Group   1 Type O   : 12s5p4d2f1g contracted to 6s4p3d1f1g pattern {711111/2111/211/2/1}
 Group   2 Type C   : 12s5p4d2f1g contracted to 6s4p3d1f1g pattern {711111/2111/211/2/1}
 Group   3 Type H   : 5s2p1d contracted to 3s1p1d pattern {311/2/1}

Atom   0O    basis set group =>   1
Atom   1C    basis set group =>   2
Atom   2C    basis set group =>   2
Atom   3H    basis set group =>   3
Atom   4H    basis set group =>   3
Atom   5H    basis set group =>   3
Atom   6H    basis set group =>   3

Checking for AutoStart:
The File: ox_es1_E_orca0004.gbw exists
Trying to determine its content:
     ... Fine, the file contains calculation information
     ... Fine, the calculation information was read
     ... Fine, the file contains a basis set
     ... Fine, the basis set was read
     ... Fine, the file contains a geometry
     ... Fine, the geometry was read
     ... Fine, the file contains a set of orbitals
     ... Fine, the orbitals can be read
     => possible old guess file was deleted
     => GBW file was renamed to GES file
     => GES file is set as startup file
     => Guess is set to MORead
     ... now leaving AutoStart



           ************************************************************
           *        Program running with 8 parallel MPI-processes     *
           *              working on a common directory               *
           ************************************************************
------------------------------------------------------------------------------
                           ORCA GTO INTEGRAL CALCULATION
                           -- RI-GTO INTEGRALS CHOSEN --
------------------------------------------------------------------------------
------------------------------------------------------------------------------
                   ___                                                        
                  /   \      - P O W E R E D   B Y -                         
                 /     \                                                     
                 |  |  |   _    _      __       _____    __    __             
                 |  |  |  | |  | |    /  \     |  _  \  |  |  /  |          
                  \  \/   | |  | |   /    \    | | | |  |  | /  /          
                 / \  \   | |__| |  /  /\  \   | |_| |  |  |/  /          
                |  |  |   |  __  | /  /__\  \  |    /   |      \           
                |  |  |   | |  | | |   __   |  |    \   |  |\   \          
                \     /   | |  | | |  |  |  |  | |\  \  |  | \   \       
                 \___/    |_|  |_| |__|  |__|  |_| \__\ |__|  \__/        
                                                                              
                      - O R C A' S   B I G   F R I E N D -                    
                                      &                                       
                       - I N T E G R A L  F E E D E R -                       
                                                                              
 v1 FN, 2020, v2 2021                                                         
------------------------------------------------------------------------------


Reading SHARK input file ox_es1_E_orca0004.SHARKINP.tmp ... ok
----------------------
SHARK INTEGRAL PACKAGE
----------------------

Number of atoms                             ...      7
Number of basis functions                   ...    117
Number of shells                            ...     49
Maximum angular momentum                    ...      3
Integral batch strategy                     ... SHARK/LIBINT Hybrid
RI-J (if used) integral strategy            ... SPLIT-RIJ (Revised 2003 algorithm where possible)
Printlevel                                  ...      1
Contraction scheme used                     ... SEGMENTED contraction
Coulomb Range Separation                    ... NOT USED
Exchange Range Separation                   ... NOT USED
Finite Nucleus Model                        ... NOT USED
Auxiliary Coulomb fitting basis             ... AVAILABLE
   # of basis functions in Aux-J            ...    191
   # of shells in Aux-J                     ...     65
   Maximum angular momentum in Aux-J        ...      4
Auxiliary J/K fitting basis                 ... NOT available
Auxiliary Correlation fitting basis         ... NOT available
Auxiliary 'external' fitting basis          ... NOT available
Integral threshold                          ...     2.500000e-11
Primitive cut-off                           ...     2.500000e-12
Primitive pair pre-selection threshold      ...     2.500000e-12

Calculating pre-screening integrals         ... done (  0.0 sec) Dimension = 49
Organizing shell pair data                  ... done (  0.0 sec)
Shell pair information
Total number of shell pairs                 ...      1225
Shell pairs after pre-screening             ...      1213
Total number of primitive shell pairs       ...      3648
Primitive shell pairs kept                  ...      3088
          la=0 lb=0:    367 shell pairs
          la=1 lb=0:    351 shell pairs
          la=1 lb=1:     91 shell pairs
          la=2 lb=0:    161 shell pairs
          la=2 lb=1:     78 shell pairs
          la=2 lb=2:     21 shell pairs
          la=3 lb=0:     81 shell pairs
          la=3 lb=1:     39 shell pairs
          la=3 lb=2:     18 shell pairs
          la=3 lb=3:      6 shell pairs

Calculating one electron integrals          ... done (  0.0 sec)
Calculating RI/J V-Matrix + Cholesky decomp.... done (  0.0 sec)
Calculating Nuclear repulsion               ... done (  0.0 sec) ENN=     69.224877118144 Eh

SHARK setup successfully completed in   0.1 seconds

Maximum memory used throughout the entire GTOINT-calculation: 14.9 MB


           ************************************************************
           *        Program running with 8 parallel MPI-processes     *
           *              working on a common directory               *
           ************************************************************
-------------------------------------------------------------------------------
                                 ORCA SCF
-------------------------------------------------------------------------------

------------
SCF SETTINGS
------------
Hamiltonian:
 Density Functional     Method          .... DFT(GTOs)
 Exchange Functional    Exchange        .... PBE
   PBE kappa parameter   XKappa         ....  0.804000
   PBE mue parameter    XMuePBE         ....  0.219520
 Correlation Functional Correlation     .... PBE
   PBE beta parameter  CBetaPBE         ....  0.066725
 LDA part of GGA corr.  LDAOpt          .... PW91-LDA
 Gradients option       PostSCFGGA      .... off
 Hybrid DFT is turned on
   Fraction HF Exchange ScalHFX         ....  0.250000
   Scaling of DF-GGA-X  ScalDFX         ....  0.750000
   Scaling of DF-GGA-C  ScalDFC         ....  1.000000
   Scaling of DF-LDA-C  ScalLDAC        ....  1.000000
   Perturbative correction              ....  0.000000
   Density functional embedding theory  .... OFF
   NL short-range parameter             ....  6.900000
 RI-approximation to the Coulomb term is turned on
   Number of AuxJ basis functions       .... 191
   RIJ-COSX (HFX calculated with COS-X)).... on


General Settings:
 Integral files         IntName         .... ox_es1_E_orca0004
 Hartree-Fock type      HFTyp           .... RHF
 Total Charge           Charge          ....    0
 Multiplicity           Mult            ....    1
 Number of Electrons    NEL             ....   24
 Basis Dimension        Dim             ....  117
 Nuclear Repulsion      ENuc            ....     69.2248771181 Eh

Convergence Acceleration:
 DIIS                   CNVDIIS         .... on
   Start iteration      DIISMaxIt       ....    12
   Startup error        DIISStart       ....  0.200000
   # of expansion vecs  DIISMaxEq       ....     5
   Bias factor          DIISBfac        ....   1.050
   Max. coefficient     DIISMaxC        ....  10.000
 Trust-Rad. Augm. Hess. CNVTRAH         .... auto
   Auto Start mean grad. ratio tolernc. ....  1.125000
   Auto Start start iteration           ....     1
   Auto Start num. interpolation iter.  ....    10
   Max. Number of Micro iterations      ....    16
   Max. Number of Macro iterations      .... Maxiter - #DIIS iter
   Number of Davidson start vectors     ....     2
   Converg. threshold I  (grad. norm)   ....   1.000e-05
   Converg. threshold II (energy diff.) ....   1.000e-08
   Grad. Scal. Fac. for Micro threshold ....   0.100
   Minimum threshold for Micro iter.    ....   0.010
   NR start threshold (gradient norm)   ....   0.001
   Initial trust radius                 ....   0.400
   Minimum AH scaling param. (alpha)    ....   1.000
   Maximum AH scaling param. (alpha)    .... 1000.000
   Orbital update algorithm             .... Taylor
   White noise on init. David. guess    .... on
   Maximum white noise                  ....   0.010
   Quad. conv. algorithm                .... NR
 SOSCF                  CNVSOSCF        .... on
   Start iteration      SOSCFMaxIt      ....   150
   Startup grad/error   SOSCFStart      ....  0.003300
 Level Shifting         CNVShift        .... on
   Level shift para.    LevelShift      ....    0.2500
   Turn off err/grad.   ShiftErr        ....    0.0010
 Zerner damping         CNVZerner       .... off
 Static damping         CNVDamp         .... on
   Fraction old density DampFac         ....    0.7000
   Max. Damping (<1)    DampMax         ....    0.9800
   Min. Damping (>=0)   DampMin         ....    0.0000
   Turn off err/grad.   DampErr         ....    0.1000
 Fernandez-Rico         CNVRico         .... off

SCF Procedure:
 Maximum # iterations   MaxIter         ....   125
 SCF integral mode      SCFMode         .... Direct
   Integral package                     .... SHARK and LIBINT hybrid scheme
 Reset frequency        DirectResetFreq ....    20
 Integral Threshold     Thresh          ....  2.500e-11 Eh
 Primitive CutOff       TCut            ....  2.500e-12 Eh

Convergence Tolerance:
 Convergence Check Mode ConvCheckMode   .... Total+1el-Energy
 Convergence forced     ConvForced      .... 1
 Energy Change          TolE            ....  1.000e-08 Eh
 1-El. energy change                    ....  1.000e-05 Eh
 Orbital Gradient       TolG            ....  1.000e-05
 Orbital Rotation angle TolX            ....  1.000e-05
 DIIS Error             TolErr          ....  5.000e-07


Diagonalization of the overlap matrix:
Smallest eigenvalue                        ... 2.817e-04
Time for diagonalization                   ...    0.001 sec
Threshold for overlap eigenvalues          ... 1.000e-08
Number of eigenvalues below threshold      ... 0
Time for construction of square roots      ...    0.001 sec
Total time needed                          ...    0.003 sec

---------------------
INITIAL GUESS: MOREAD
---------------------
Guess MOs are being read from file: ox_es1_E_orca0004.ges
Input Geometry matches current geometry (good)
Input basis set matches current basis set (good)
MOs were renormalized
MOs were reorthogonalized (Cholesky)
                      ------------------
                      INITIAL GUESS DONE (   0.0 sec)
                      ------------------
-------------------
DFT GRID GENERATION
-------------------

General Integration Accuracy     IntAcc      ... 4.388
Radial Grid Type                 RadialGrid  ... OptM3 with GC (2021)
Angular Grid (max. ang.)         AngularGrid ... 4 (Lebedev-302)
Angular grid pruning method      GridPruning ... 4 (adaptive)
Weight generation scheme         WeightScheme... Becke
Basis function cutoff            BFCut       ... 1.0000e-11
Integration weight cutoff        WCut        ... 1.0000e-14
Angular grids for H and He will be reduced by one unit
Partially contracted basis set               ... off
Rotationally invariant grid construction     ... off

Total number of grid points                  ...    31317
Total number of batches                      ...      492
Average number of points per batch           ...       63
Average number of grid points per atom       ...     4474
Time for grid setup =    0.126 sec

--------------------
COSX GRID GENERATION
--------------------

GRIDX 1
-------
General Integration Accuracy     IntAcc      ... 3.816
Radial Grid Type                 RadialGrid  ... OptM3 with GC (2021)
Angular Grid (max. ang.)         AngularGrid ... 1 (Lebedev-50)
Angular grid pruning method      GridPruning ... 4 (adaptive)
Weight generation scheme         WeightScheme... Becke
Basis function cutoff            BFCut       ... 1.0000e-11
Integration weight cutoff        WCut        ... 1.0000e-14
Angular grids for H and He will be reduced by one unit
Partially contracted basis set               ... on
Rotationally invariant grid construction     ... off

Total number of grid points                  ...     4038
Total number of batches                      ...       67
Average number of points per batch           ...       60
Average number of grid points per atom       ...      577
UseSFitting                                  ... on

GRIDX 2
-------
General Integration Accuracy     IntAcc      ... 4.020
Radial Grid Type                 RadialGrid  ... OptM3 with GC (2021)
Angular Grid (max. ang.)         AngularGrid ... 2 (Lebedev-110)
Angular grid pruning method      GridPruning ... 4 (adaptive)
Weight generation scheme         WeightScheme... Becke
Basis function cutoff            BFCut       ... 1.0000e-11
Integration weight cutoff        WCut        ... 1.0000e-14
Angular grids for H and He will be reduced by one unit
Partially contracted basis set               ... on
Rotationally invariant grid construction     ... off

Total number of grid points                  ...     8732
Total number of batches                      ...      140
Average number of points per batch           ...       62
Average number of grid points per atom       ...     1247
UseSFitting                                  ... on

GRIDX 3
-------
General Integration Accuracy     IntAcc      ... 4.338
Radial Grid Type                 RadialGrid  ... OptM3 with GC (2021)
Angular Grid (max. ang.)         AngularGrid ... 3 (Lebedev-194)
Angular grid pruning method      GridPruning ... 4 (adaptive)
Weight generation scheme         WeightScheme... Becke
Basis function cutoff            BFCut       ... 1.0000e-11
Integration weight cutoff        WCut        ... 1.0000e-14
Angular grids for H and He will be reduced by one unit
Partially contracted basis set               ... on
Rotationally invariant grid construction     ... off

Total number of grid points                  ...    19278
Total number of batches                      ...      305
Average number of points per batch           ...       63
Average number of grid points per atom       ...     2754
UseSFitting                                  ... on

Time for X-Grid setup             =    0.080 sec

--------------
SCF ITERATIONS
--------------
ITER       Energy         Delta-E        Max-DP      RMS-DP      [F,P]     Damp
               ***  Starting incremental Fock matrix formation  ***
                      *** Initiating the SOSCF procedure ***
                      *** Re-Reading the Fockian *** 
                      *** Removing any level shift *** 
ITER      Energy       Delta-E        Grad      Rot      Max-DP    RMS-DP
  0   -153.52361163 -153.5236116269  0.000002  0.000002  0.000001  0.000000
               *** Restarting incremental Fock matrix formation ***
                  ***Gradient check signals convergence***
              ***Rediagonalizing the Fockian in SOSCF/NRSCF***

               *****************************************************
               *                     SUCCESS                       *
               *           SCF CONVERGED AFTER   1 CYCLES          *
               *****************************************************

Old exchange energy                            =     -4.957273346 Eh
New exchange energy                            =     -4.957282730 Eh
Exchange energy change after final integration =     -0.000009384 Eh
Total energy after final integration           =   -153.523621011 Eh
Final COS-X integration done in                =     0.306 sec

----------------
TOTAL SCF ENERGY
----------------

Total Energy       :         -153.52362101 Eh           -4177.59011 eV

Components:
Nuclear Repulsion  :           69.22487712 Eh            1883.70467 eV
Electronic Energy  :         -222.74849813 Eh           -6061.29478 eV
One Electron Energy:         -345.18509969 Eh           -9392.96409 eV
Two Electron Energy:          122.43660156 Eh            3331.66931 eV
Max COSX asymmetry :            0.00000126 Eh               0.00003 eV

Virial components:
Potential Energy   :         -306.37563305 Eh           -8336.90482 eV
Kinetic Energy     :          152.85201204 Eh            4159.31470 eV
Virial Ratio       :            2.00439385


DFT components:
N(Alpha)           :       11.999996758111 electrons
N(Beta)            :       11.999996758111 electrons
N(Total)           :       23.999993516222 electrons
E(X)               :      -14.886336285305 Eh       
E(C)               :       -0.772583606798 Eh       
E(XC)              :      -15.658919892103 Eh       
DFET-embed. en.    :        0.000000000000 Eh       

---------------
SCF CONVERGENCE
---------------

  Last Energy change         ...   -2.4954e-11  Tolerance :   1.0000e-08
  Last MAX-Density change    ...    9.9920e-16  Tolerance :   1.0000e-07
  Last RMS-Density change    ...    2.3128e-17  Tolerance :   5.0000e-09
  Last Orbital Gradient      ...    1.9608e-06  Tolerance :   1.0000e-05
  Last Orbital Rotation      ...    1.6020e-05  Tolerance :   1.0000e-05

             **** THE GBW FILE WAS UPDATED (ox_es1_E_orca0004.gbw) ****
             **** DENSITY ox_es1_E_orca0004.scfp WAS UPDATED ****
             **** ENERGY FILE WAS UPDATED (ox_es1_E_orca0004.en.tmp) ****
             **** THE GBW FILE WAS UPDATED (ox_es1_E_orca0004.gbw) ****
             **** DENSITY ox_es1_E_orca0004.scfp WAS UPDATED ****
----------------
ORBITAL ENERGIES
----------------

  NO   OCC          E(Eh)            E(eV) 
   0   2.0000     -19.198147      -522.4081 
   1   2.0000     -10.321957      -280.8747 
   2   2.0000     -10.272897      -279.5397 
   3   2.0000      -1.002164       -27.2703 
   4   2.0000      -0.791358       -21.5339 
   5   2.0000      -0.621344       -16.9076 
   6   2.0000      -0.519403       -14.1337 
   7   2.0000      -0.504607       -13.7311 
   8   2.0000      -0.410501       -11.1703 
   9   2.0000      -0.400105       -10.8874 
  10   2.0000      -0.273184        -7.4337 
  11   2.0000      -0.248607        -6.7649 
  12   0.0000      -0.150788        -4.1032 
  13   0.0000       0.048967         1.3325 
  14   0.0000       0.068230         1.8566 
  15   0.0000       0.084605         2.3022 
  16   0.0000       0.137044         3.7291 
  17   0.0000       0.145194         3.9509 
  18   0.0000       0.184358         5.0166 
  19   0.0000       0.213224         5.8021 
  20   0.0000       0.227219         6.1829 
  21   0.0000       0.243266         6.6196 
  22   0.0000       0.257602         7.0097 
  23   0.0000       0.350796         9.5457 
  24   0.0000       0.363020         9.8783 
  25   0.0000       0.380529        10.3547 
  26   0.0000       0.405919        11.0456 
  27   0.0000       0.422797        11.5049 
  28   0.0000       0.428880        11.6704 
  29   0.0000       0.495275        13.4771 
  30   0.0000       0.517917        14.0932 
  31   0.0000       0.532673        14.4948 
  32   0.0000       0.567926        15.4540 
  33   0.0000       0.587878        15.9970 
  34   0.0000       0.661745        18.0070 
  35   0.0000       0.725457        19.7407 
  36   0.0000       0.795116        21.6362 
  37   0.0000       0.860922        23.4269 
  38   0.0000       0.873641        23.7730 
  39   0.0000       0.916478        24.9386 
  40   0.0000       0.935215        25.4485 
  41   0.0000       1.052713        28.6458 
  42   0.0000       1.095756        29.8170 
  43   0.0000       1.111121        30.2351 
  44   0.0000       1.207262        32.8513 
  45   0.0000       1.323178        36.0055 
  46   0.0000       1.410098        38.3707 
  47   0.0000       1.440279        39.1920 
  48   0.0000       1.521583        41.4044 
  49   0.0000       1.548799        42.1450 
  50   0.0000       1.573517        42.8176 
  51   0.0000       1.578772        42.9606 
  52   0.0000       1.626000        44.2457 
  53   0.0000       1.654004        45.0077 
  54   0.0000       1.758116        47.8408 
  55   0.0000       1.766297        48.0634 
  56   0.0000       1.791523        48.7498 
  57   0.0000       1.832078        49.8534 
  58   0.0000       1.864151        50.7261 
  59   0.0000       1.907486        51.9053 
  60   0.0000       2.002678        54.4956 
  61   0.0000       2.038045        55.4580 
  62   0.0000       2.193402        59.6855 
  63   0.0000       2.218272        60.3622 
  64   0.0000       2.300054        62.5877 
  65   0.0000       2.353126        64.0318 
  66   0.0000       2.363749        64.3209 
  67   0.0000       2.418106        65.8000 
  68   0.0000       2.470038        67.2131 
  69   0.0000       2.532265        68.9064 
  70   0.0000       2.548629        69.3517 
  71   0.0000       2.599655        70.7402 
  72   0.0000       2.645448        71.9863 
  73   0.0000       2.693450        73.2925 
  74   0.0000       2.753790        74.9344 
  75   0.0000       2.781721        75.6945 
  76   0.0000       2.841165        77.3120 
  77   0.0000       2.957301        80.4723 
  78   0.0000       2.988313        81.3161 
  79   0.0000       3.030853        82.4737 
  80   0.0000       3.055058        83.1324 
  81   0.0000       3.098329        84.3098 
  82   0.0000       3.125802        85.0574 
  83   0.0000       3.139417        85.4279 
  84   0.0000       3.154281        85.8323 
  85   0.0000       3.186760        86.7161 
  86   0.0000       3.351771        91.2063 
  87   0.0000       3.393471        92.3410 
  88   0.0000       3.450839        93.9021 
  89   0.0000       3.502850        95.3174 
  90   0.0000       3.521214        95.8171 
  91   0.0000       3.676492       100.0424 
  92   0.0000       3.739154       101.7476 
  93   0.0000       3.892393       105.9174 
  94   0.0000       4.024217       109.5045 
  95   0.0000       4.173983       113.5799 
  96   0.0000       4.227087       115.0249 
  97   0.0000       4.279032       116.4384 
  98   0.0000       4.434172       120.6600 
  99   0.0000       4.463840       121.4673 
 100   0.0000       4.612175       125.5037 
 101   0.0000       4.745347       129.1275 
 102   0.0000       5.200436       141.5110 
 103   0.0000       5.242782       142.6634 
 104   0.0000       5.396444       146.8447 
 105   0.0000       5.429178       147.7354 
 106   0.0000       5.778874       157.2512 
 107   0.0000       5.832727       158.7166 
 108   0.0000       5.946740       161.8190 
 109   0.0000       6.383040       173.6914 
 110   0.0000       6.397042       174.0724 
 111   0.0000       6.805821       185.1958 
 112   0.0000       6.820521       185.5958 
 113   0.0000       6.956511       189.2963 
 114   0.0000      22.066619       600.4632 
 115   0.0000      22.543327       613.4351 
 116   0.0000      43.779843      1191.3101 

                    ********************************
                    * MULLIKEN POPULATION ANALYSIS *
                    ********************************

-----------------------
MULLIKEN ATOMIC CHARGES
-----------------------
   0 O :   -0.375632
   1 C :   -0.070137
   2 C :   -0.099432
   3 H :    0.128890
   4 H :    0.086693
   5 H :    0.171718
   6 H :    0.157899
Sum of atomic charges:   -0.0000000

--------------------------------
MULLIKEN REDUCED ORBITAL CHARGES
--------------------------------
  0 O s       :     3.908749  s :     3.908749
      pz      :     1.904453  p :     4.441852
      px      :     1.191648
      py      :     1.345750
      dz2     :     0.003209  d :     0.023753
      dxz     :     0.000307
      dyz     :     0.005529
      dx2y2   :     0.008541
      dxy     :     0.006167
      f0      :     0.000152  f :     0.001278
      f+1     :     0.000071
      f-1     :     0.000283
      f+2     :     0.000154
      f-2     :     0.000043
      f+3     :     0.000297
      f-3     :     0.000278
  1 C s       :     3.189052  s :     3.189052
      pz      :     1.064717  p :     2.702602
      px      :     0.894145
      py      :     0.743741
      dz2     :     0.010798  d :     0.168411
      dxz     :     0.022373
      dyz     :     0.049914
      dx2y2   :     0.021371
      dxy     :     0.063955
      f0      :     0.001778  f :     0.010071
      f+1     :     0.001189
      f-1     :     0.000767
      f+2     :     0.003059
      f-2     :     0.000533
      f+3     :     0.002340
      f-3     :     0.000406
  2 C s       :     3.268147  s :     3.268147
      pz      :     1.053689  p :     2.771189
      px      :     1.025026
      py      :     0.692474
      dz2     :     0.005082  d :     0.055254
      dxz     :     0.027454
      dyz     :     0.003825
      dx2y2   :     0.005251
      dxy     :     0.013642
      f0      :     0.000488  f :     0.004842
      f+1     :     0.001042
      f-1     :     0.000111
      f+2     :     0.000864
      f-2     :     0.000271
      f+3     :     0.000640
      f-3     :     0.001426
  3 H s       :     0.848759  s :     0.848759
      pz      :     0.009675  p :     0.022350
      px      :     0.007219
      py      :     0.005457
  4 H s       :     0.895852  s :     0.895852
      pz      :     0.008572  p :     0.017455
      px      :     0.005349
      py      :     0.003534
  5 H s       :     0.803971  s :     0.803971
      pz      :     0.011165  p :     0.024311
      px      :     0.008171
      py      :     0.004975
  6 H s       :     0.822064  s :     0.822064
      pz      :     0.010617  p :     0.020037
      px      :     0.005965
      py      :     0.003455


                     *******************************
                     * LOEWDIN POPULATION ANALYSIS *
                     *******************************

----------------------
LOEWDIN ATOMIC CHARGES
----------------------
   0 O :   -0.047062
   1 C :   -0.494577
   2 C :    0.010041
   3 H :    0.127824
   4 H :    0.129266
   5 H :    0.117059
   6 H :    0.157450

-------------------------------
LOEWDIN REDUCED ORBITAL CHARGES
-------------------------------
  0 O s       :     3.561761  s :     3.561761
      pz      :     1.831248  p :     4.426114
      px      :     1.144308
      py      :     1.450558
      dz2     :     0.006686  d :     0.055457
      dxz     :     0.000393
      dyz     :     0.015801
      dx2y2   :     0.017942
      dxy     :     0.014635
      f0      :     0.000417  f :     0.003730
      f+1     :     0.000115
      f-1     :     0.000560
      f+2     :     0.000680
      f-2     :     0.000097
      f+3     :     0.000986
      f-3     :     0.000875
  1 C s       :     2.819828  s :     2.819828
      pz      :     1.034017  p :     2.952619
      px      :     1.056942
      py      :     0.861659
      dz2     :     0.066903  d :     0.648764
      dxz     :     0.119164
      dyz     :     0.134066
      dx2y2   :     0.124951
      dxy     :     0.203680
      f0      :     0.011049  f :     0.073367
      f+1     :     0.007278
      f-1     :     0.006933
      f+2     :     0.016911
      f-2     :     0.004827
      f+3     :     0.019771
      f-3     :     0.006598
  2 C s       :     2.889981  s :     2.889981
      pz      :     1.062909  p :     2.821734
      px      :     1.139026
      py      :     0.619800
      dz2     :     0.028222  d :     0.250000
      dxz     :     0.129233
      dyz     :     0.009836
      dx2y2   :     0.038460
      dxy     :     0.044249
      f0      :     0.003818  f :     0.028243
      f+1     :     0.004330
      f-1     :     0.001085
      f+2     :     0.005292
      f-2     :     0.001779
      f+3     :     0.004760
      f-3     :     0.007180
  3 H s       :     0.810414  s :     0.810414
      pz      :     0.028719  p :     0.061762
      px      :     0.018688
      py      :     0.014355
  4 H s       :     0.825783  s :     0.825783
      pz      :     0.023700  p :     0.044951
      px      :     0.012515
      py      :     0.008736
  5 H s       :     0.807712  s :     0.807712
      pz      :     0.036753  p :     0.075229
      px      :     0.023765
      py      :     0.014711
  6 H s       :     0.788616  s :     0.788616
      pz      :     0.029951  p :     0.053934
      px      :     0.015044
      py      :     0.008939


                      *****************************
                      * MAYER POPULATION ANALYSIS *
                      *****************************

  NA   - Mulliken gross atomic population
  ZA   - Total nuclear charge
  QA   - Mulliken gross atomic charge
  VA   - Mayer's total valence
  BVA  - Mayer's bonded valence
  FA   - Mayer's free valence

  ATOM       NA         ZA         QA         VA         BVA        FA
  0 O      8.3756     8.0000    -0.3756     1.7821     1.7821    -0.0000
  1 C      6.0701     6.0000    -0.0701     4.0640     4.0640     0.0000
  2 C      6.0994     6.0000    -0.0994     3.7907     3.7907    -0.0000
  3 H      0.8711     1.0000     0.1289     0.9706     0.9706     0.0000
  4 H      0.9133     1.0000     0.0867     0.9628     0.9628     0.0000
  5 H      0.8283     1.0000     0.1717     0.9547     0.9547     0.0000
  6 H      0.8421     1.0000     0.1579     0.9595     0.9595     0.0000

  Mayer bond orders larger than 0.100000
B(  0-O ,  1-C ) :   0.9945 B(  0-O ,  2-C ) :   0.7864 B(  1-C ,  2-C ) :   1.1248 
B(  1-C ,  3-H ) :   0.9814 B(  1-C ,  4-H ) :   0.9528 B(  2-C ,  5-H ) :   0.9413 
B(  2-C ,  6-H ) :   0.9401 

-------
TIMINGS
-------

Total SCF time: 0 days 0 hours 0 min 1 sec 

Total time                  ....       1.162 sec
Sum of individual times     ....       1.046 sec  ( 90.0%)

Fock matrix formation       ....       0.819 sec  ( 70.5%)
  Split-RI-J                ....       0.131 sec  ( 16.0% of F)
  Chain of spheres X        ....       0.606 sec  ( 73.9% of F)
  XC integration            ....       0.072 sec  (  8.8% of F)
    Basis function eval.    ....       0.021 sec  ( 29.3% of XC)
    Density eval.           ....       0.016 sec  ( 22.4% of XC)
    XC-Functional eval.     ....       0.004 sec  (  6.1% of XC)
    XC-Potential eval.      ....       0.024 sec  ( 33.3% of XC)
Diagonalization             ....       0.003 sec  (  0.2%)
Density matrix formation    ....       0.000 sec  (  0.0%)
Population analysis         ....       0.003 sec  (  0.2%)
Initial guess               ....       0.010 sec  (  0.9%)
Orbital Transformation      ....       0.000 sec  (  0.0%)
Orbital Orthonormalization  ....       0.001 sec  (  0.1%)
DIIS solution               ....       0.002 sec  (  0.1%)
SOSCF solution              ....       0.003 sec  (  0.2%)
Grid generation             ....       0.206 sec  ( 17.8%)

Maximum memory used throughout the entire SCF-calculation: 61.1 MB


           ************************************************************
           *        Program running with 8 parallel MPI-processes     *
           *              working on a common directory               *
           ************************************************************
------------------------------------------------------------------------------
                        ORCA TD-DFT/TDA CALCULATION
------------------------------------------------------------------------------

Input orbitals are from        ... ox_es1_E_orca0004.gbw
CI-vector output               ... ox_es1_E_orca0004.cis
Tamm-Dancoff approximation     ... operative
CIS-Integral strategy          ... AO-integrals
Integral handling              ... AO integral Direct
Max. core memory used          ... 3000 MB
Reference state                ... RHF
Generation of triplets         ... off
Follow IRoot                   ... off
Number of operators            ... 1
Orbital ranges used for CIS calculation:
 Operator 0:  Orbitals   3... 11  to  12...116
XAS localization array:
 Operator 0:  Orbitals  -1... -1

-------------------
XC-INTEGRATION GRID
-------------------

General Integration Accuracy     IntAcc      ... 3.467
Radial Grid Type                 RadialGrid  ... OptM3 with GC (2021)
Angular Grid (max. ang.)         AngularGrid ... 1 (Lebedev-50)
Angular grid pruning method      GridPruning ... 4 (adaptive)
Weight generation scheme         WeightScheme... Becke
Basis function cutoff            BFCut       ... 1.0000e-11
Integration weight cutoff        WCut        ... 1.0000e-14
Angular grids for H and He will be reduced by one unit
Partially contracted basis set               ... off
Rotationally invariant grid construction     ... off

Total number of grid points                  ...     4545
Total number of batches                      ...       74
Average number of points per batch           ...       61
Average number of grid points per atom       ...      649

---------------------
COSX-INTEGRATION GRID
---------------------

General Integration Accuracy     IntAcc      ... 3.067
Radial Grid Type                 RadialGrid  ... OptM3 with GC (2021)
Angular Grid (max. ang.)         AngularGrid ... 1 (Lebedev-50)
Angular grid pruning method      GridPruning ... 4 (adaptive)
Weight generation scheme         WeightScheme... Becke
Basis function cutoff            BFCut       ... 1.0000e-11
Integration weight cutoff        WCut        ... 1.0000e-14
Angular grids for H and He will be reduced by one unit
Partially contracted basis set               ... on
Rotationally invariant grid construction     ... off

Total number of grid points                  ...     2087
Total number of batches                      ...       36
Average number of points per batch           ...       57
Average number of grid points per atom       ...      298

---------------
TD-DFT XC SETUP
---------------

DFT calculation                         ... on
Name of the grid file                   ... ox_es1_E_orca0004.grid_cis.tmp
Exchange functional (TD-DFT)            ... PBE
   PBE kappa parameter  XKappa (TD-DFT) ...  0.804000
   PBE mue parameter   XMuePBE (TD-DFT) ...  0.219520
Correlation functional (TD-DFT)         ... PBE
   PBE beta parameter CBetaPBE (TD-DFT) ...  0.066725
 LDA part of GGA corr.  LDAOpt (TD-DFT) ... PW91-LDA
Hybrid DFT                              ... on
   Exchange mixing (TD-DFT)             ...  0.250
   GGA exch. scaling (TD-DFT)           ...  0.750
   GGA corr. scaling (TD-DFT)           ...  1.000

Building densities             ... done
Calculating rho(r) on the grid ... done
Building xc-kernel on the grid ... done
                    *** TD-DFT CALCULATION INITIALIZED ***

------------------------
DAVIDSON-DIAGONALIZATION
------------------------

Dimension of the eigenvalue problem            ...    945
Number of roots to be determined               ...      1
Maximum size of the expansion space            ...     10
Maximum number of iterations                   ...    100
Convergence tolerance for the residual         ...    2.500e-07
Convergence tolerance for the energies         ...    2.500e-07
Orthogonality tolerance                        ...    1.000e-14
Level Shift                                    ...    0.000e+00
Constructing the preconditioner                ... o.k.
Building the initial guess                     ... o.k.
Number of trial vectors determined             ...     10


                       ****Iteration    0****

   Memory handling for direct AO based CIS:
   Memory per vector needed      ...     1 MB
   Memory needed                 ...     1 MB
   Memory available              ...  3000 MB
   Number of vectors per batch   ...  3000
   Number of batches             ...     1
   Time for densities:            0.000
   Time for RI-J (Direct):        0.016
   Time for K (COSX):             0.061
   Time for XC-Integration:       0.016
   Time for Sigma-Completion:     0.000
   Size of expansion space: 3
   Lowest Energy          :     0.017901967276
   Maximum Energy change  :     0.017901967276 (vector 0)
   Maximum residual norm  :     0.002397623262

                       ****Iteration    1****
   Time for densities:            0.000
   Time for RI-J (Direct):        0.013
   Time for K (COSX):             0.056
   Time for XC-Integration:       0.007
   Time for Sigma-Completion:     0.000
   Size of expansion space: 4
   Lowest Energy          :     0.016280541549
   Maximum Energy change  :     0.001621425727 (vector 0)
   Maximum residual norm  :     0.000038429418

                       ****Iteration    2****
   Time for densities:            0.000
   Time for RI-J (Direct):        0.013
   Time for K (COSX):             0.057
   Time for XC-Integration:       0.007
   Time for Sigma-Completion:     0.000
   Size of expansion space: 5
   Lowest Energy          :     0.016251076205
   Maximum Energy change  :     0.000029465344 (vector 0)
   Maximum residual norm  :     0.000001419618

                       ****Iteration    3****
   Time for densities:            0.000
   Time for RI-J (Direct):        0.013
   Time for K (COSX):             0.058
   Time for XC-Integration:       0.007
   Time for Sigma-Completion:     0.000
   Size of expansion space: 6
   Lowest Energy          :     0.016249682653
   Maximum Energy change  :     0.000001393552 (vector 0)
   Maximum residual norm  :     0.000000069834

      *** CONVERGENCE OF RESIDUAL NORM REACHED ***

Storing the converged CI vectors               ... ox_es1_E_orca0004.cis1

                 *** DAVIDSON DONE ***

Total time for solving the CIS problem:     0.331sec

------------------------------------
TD-DFT/TDA EXCITED STATES (SINGLETS)
------------------------------------

the weight of the individual excitations are printed if larger than 1.0e-02

STATE  1:  E=   0.016250 au      0.442 eV     3566.4 cm**-1 <S**2> =   0.000000
    11a ->  12a  :     0.995767 (c=  0.99788115)


-----------------------------
TD-DFT/TDA-EXCITATION SPECTRA
-----------------------------

Center of mass = ( -0.7107,  0.0627,  0.0128)
Calculating the Dipole integrals                  ... done
Transforming integrals                            ... done
Calculating the Linear Momentum integrals         ... done
Transforming integrals                            ... done
Calculating angular momentum integrals            ... done
Transforming integrals                            ... done

-----------------------------------------------------------------------------
         ABSORPTION SPECTRUM VIA TRANSITION ELECTRIC DIPOLE MOMENTS
-----------------------------------------------------------------------------
State   Energy    Wavelength  fosc         T2        TX        TY        TZ  
        (cm-1)      (nm)                 (au**2)    (au)      (au)      (au) 
-----------------------------------------------------------------------------
   1    3566.4   2804.0   0.000007520   0.00069  -0.00044  -0.00692  -0.02542

-----------------------------------------------------------------------------
         ABSORPTION SPECTRUM VIA TRANSITION VELOCITY DIPOLE MOMENTS
-----------------------------------------------------------------------------
State   Energy    Wavelength   fosc        P2         PX        PY        PZ  
        (cm-1)      (nm)                 (au**2)     (au)      (au)      (au) 
-----------------------------------------------------------------------------
   1    3566.4   2804.0   0.027412998   0.00067   0.00262  -0.00003   0.02572

-------------------------------------------------------------------
                             CD SPECTRUM
-------------------------------------------------------------------
State  Energy     Wavelength     R         MX        MY        MZ   
       (cm-1)       (nm)     (1e40*cgs)   (au)      (au)      (au)  
-------------------------------------------------------------------
   1    3566.4   2804.0     -0.81570   0.00835   0.27894  -0.00799

-------------------------------------------------------------------
         CD SPECTRUM VIA TRANSITION VELOCITY DIPOLE MOMENTS        
-------------------------------------------------------------------
State  Energy     Wavelength     R         MX        MY        MZ   
       (cm-1)       (nm)     (1e40*cgs)   (au)      (au)      (au)  
-------------------------------------------------------------------
   1    3566.4   2804.0     -5.56760   0.00835   0.27894  -0.00799

Total run time:        0.625 sec

           *** ORCA-CIS/TD-DFT FINISHED WITHOUT ERROR ***

Maximum memory used throughout the entire CIS-calculation: 49.4 MB

-----------------------
CIS/TD-DFT TOTAL ENERGY
-----------------------

    E(SCF)  =   -153.523621011 Eh
    DE(CIS) =      0.016249683 Eh (Root  1)
    ----------------------------- ---------
    E(tot)  =   -153.507371328 Eh



-------------------------------------------------------------------------------
                          DFT DISPERSION CORRECTION                            
                                                                               
                              DFTD3 V3.1  Rev 1                                
                          USING Becke-Johnson damping                          
-------------------------------------------------------------------------------
The PBE0 functional is recognized
Active option DFTDOPT                   ...         4   

molecular C6(AA) [au] = 394.885229 


            DFT-D V3
 parameters
 s6 scaling factor         :     1.0000 
 a1 scaling factor         :     0.4145 
 s8 scaling factor         :     1.2177 
 a2 scaling factor         :     4.8593 
 ad hoc parameters k1-k3   :    16.0000     1.3333    -4.0000 

 Edisp/kcal,au: -1.649060986085  -0.002627945678 
 E6   /kcal   :  -1.076142830 
 E8   /kcal   :  -0.572918156 
 % E8         :  34.742084193 

-------------------------   ----------------
Dispersion correction           -0.002627946
-------------------------   ----------------


-------------------------   --------------------
FINAL SINGLE POINT ENERGY      -153.509999273568
-------------------------   --------------------



           ************************************************************
           *        Program running with 8 parallel MPI-processes     *
           *              working on a common directory               *
           ************************************************************
------------------------------------------------------------------------------
                         ORCA SCF GRADIENT CALCULATION
------------------------------------------------------------------------------


------------------------
TD-DFT GRADIENT XC SETUP
------------------------

Building densities                     ... done
Calculating rho(r) on the grid         ... done
Building xc-kernel on the grid         ... done
Building xc 3rd derivative on the grid      ... done
                *** TD-DFT GRADIENT CALCULATION INITIALIZED ***

-------------------
TD-DFT/TDA GRADIENT
-------------------

Reference wavefunction             ... RHF
State of interest                  ... 1
Basis dimension                    ... 117
DFT-XC contribution needed         ... YES
RI-approximation                   ... ON
CIS-vectors being read from        ... ox_es1_E_orca0004.cis

 => Number of Vectors found: 1
 => Orbital Window: 3...11 -> 12...116

Reading the CIS file                     ... done
Norm of the CI vector                    ... 1.000000000
Making the CIS (pseudo)densities         ... done
Making operators G(D) and Q(T)           ... done
Transforming the Fock operators          ... done
Making the frozen-core relaxed density   ... done
Constructing the G(H) operator           ... done
Transforming the G(H) operator           ... done
Calculating the CIS Lagrangian           ... done
Solving the Z-vector equations           ... done
Finalizing the relaxed density           ... done
Storing the relaxed density              ... done
Constructing the G(Z) operator           ... done
Transforming the G(Z) operator           ... done
Making the W-matrix                      ... done
Finalizing the W-matrix                  ... done
Transforming the W-matrix                ... done
Nuclear repulsion gradient               ... done
One-Electron gradient                    ... done
Dispersion correction                    ... done
Prescreening matrices                    ... done
COSX-gradient                            ... done
Coulomb gradient (RI)                    ... done
Exchange-Correlation gradient            ... done

                 ---------------------------
                 EXCITED STATE GRADIENT DONE
                 ---------------------------

------------------
CARTESIAN GRADIENT
------------------

   1   O   :   -0.002520748    0.001848211    0.005096445
   2   C   :    0.073982775   -0.057238649    0.045042137
   3   C   :   -0.046039096    0.041086167   -0.086488835
   4   H   :   -0.007014021    0.028246153   -0.004537900
   5   H   :   -0.015563359    0.003372618   -0.032450310
   6   H   :   -0.017313514    0.000651665    0.041402820
   7   H   :    0.014511356   -0.017984408    0.031939998

Difference to translation invariance:
           :    0.0000433924   -0.0000182429    0.0000043546

Difference to rotation invariance:
           :    0.0000103884   -0.0000163713   -0.0007305731

Norm of the cartesian gradient     ...    0.1668683584
RMS gradient                       ...    0.0364136611
MAX gradient                       ...    0.0864888347

------------------------------------------------------------------------------
                  RELAXED CIS/TDA DENSITY POPULATION ANALYSIS
                                   IROOT 1
------------------------------------------------------------------------------
------------------------------------------------------------------------------
                           ORCA POPULATION ANALYSIS
------------------------------------------------------------------------------
Input electron density              ... ox_es1_E_orca0004.cisp
BaseName (.gbw .S,...)              ... ox_es1_E_orca0004

                    ********************************
                    * MULLIKEN POPULATION ANALYSIS *
                    ********************************

-----------------------
MULLIKEN ATOMIC CHARGES
-----------------------
   0 O :   -0.296684
   1 C :   -0.102894
   2 C :   -0.206919
   3 H :    0.171441
   4 H :    0.152378
   5 H :    0.150182
   6 H :    0.132496
Sum of atomic charges:   -0.0000000

--------------------------------
MULLIKEN REDUCED ORBITAL CHARGES
--------------------------------
  0 O s       :     3.897234  s :     3.897234
      pz      :     1.146430  p :     4.375034
      px      :     1.890621
      py      :     1.337983
      dz2     :     0.002863  d :     0.023382
      dxz     :     0.000249
      dyz     :     0.006372
      dx2y2   :     0.008355
      dxy     :     0.005544
      f0      :     0.000054  f :     0.001033
      f+1     :    -0.000003
      f-1     :     0.000090
      f+2     :     0.000158
      f-2     :     0.000033
      f+3     :     0.000319
      f-3     :     0.000381
  1 C s       :     3.191758  s :     3.191758
      pz      :     1.002821  p :     2.743122
      px      :     0.969073
      py      :     0.771228
      dz2     :     0.009905  d :     0.157531
      dxz     :     0.027910
      dyz     :     0.026751
      dx2y2   :     0.024925
      dxy     :     0.068040
      f0      :     0.000960  f :     0.010483
      f+1     :     0.001298
      f-1     :     0.000529
      f+2     :     0.001799
      f-2     :     0.000351
      f+3     :     0.002834
      f-3     :     0.002713
  2 C s       :     3.259915  s :     3.259915
      pz      :     1.027014  p :     2.895647
      px      :     0.963417
      py      :     0.905217
      dz2     :     0.004768  d :     0.046625
      dxz     :     0.017561
      dyz     :     0.002805
      dx2y2   :     0.007295
      dxy     :     0.014197
      f0      :     0.000450  f :     0.004732
      f+1     :     0.000917
      f-1     :     0.000181
      f+2     :     0.000864
      f-2     :     0.000180
      f+3     :     0.000758
      f-3     :     0.001381
  3 H s       :     0.805456  s :     0.805456
      pz      :     0.010026  p :     0.023103
      px      :     0.007495
      py      :     0.005581
  4 H s       :     0.829526  s :     0.829526
      pz      :     0.008848  p :     0.018096
      px      :     0.005475
      py      :     0.003772
  5 H s       :     0.824791  s :     0.824791
      pz      :     0.010488  p :     0.025027
      px      :     0.007771
      py      :     0.006769
  6 H s       :     0.847118  s :     0.847118
      pz      :     0.009779  p :     0.020385
      px      :     0.005726
      py      :     0.004880


                     *******************************
                     * LOEWDIN POPULATION ANALYSIS *
                     *******************************

----------------------
LOEWDIN ATOMIC CHARGES
----------------------
   0 O :    0.005685
   1 C :   -0.452813
   2 C :   -0.147096
   3 H :    0.162766
   4 H :    0.183171
   5 H :    0.104611
   6 H :    0.143676

-------------------------------
LOEWDIN REDUCED ORBITAL CHARGES
-------------------------------
  0 O s       :     3.566417  s :     3.566417
      pz      :     1.115026  p :     4.369484
      px      :     1.809814
      py      :     1.444643
      dz2     :     0.006766  d :     0.054942
      dxz     :     0.000409
      dyz     :     0.013820
      dx2y2   :     0.018393
      dxy     :     0.015554
      f0      :     0.000407  f :     0.003473
      f+1     :     0.000068
      f-1     :     0.000385
      f+2     :     0.000477
      f-2     :     0.000092
      f+3     :     0.001008
      f-3     :     0.001034
  1 C s       :     2.825478  s :     2.825478
      pz      :     0.969712  p :     2.937981
      px      :     1.089714
      py      :     0.878555
      dz2     :     0.064449  d :     0.608386
      dxz     :     0.126021
      dyz     :     0.069321
      dx2y2   :     0.156266
      dxy     :     0.192329
      f0      :     0.006761  f :     0.080968
      f+1     :     0.007231
      f-1     :     0.006611
      f+2     :     0.011465
      f-2     :     0.003107
      f+3     :     0.022702
      f-3     :     0.023090
  2 C s       :     2.893708  s :     2.893708
      pz      :     1.052168  p :     2.980023
      px      :     1.108871
      py      :     0.818984
      dz2     :     0.029951  d :     0.244755
      dxz     :     0.112305
      dyz     :     0.008661
      dx2y2   :     0.039354
      dxy     :     0.054484
      f0      :     0.003552  f :     0.028610
      f+1     :     0.004586
      f-1     :     0.001323
      f+2     :     0.004928
      f-2     :     0.001519
      f+3     :     0.005340
      f-3     :     0.007363
  3 H s       :     0.774520  s :     0.774520
      pz      :     0.029192  p :     0.062714
      px      :     0.018960
      py      :     0.014561
  4 H s       :     0.770696  s :     0.770696
      pz      :     0.024136  p :     0.046133
      px      :     0.012855
      py      :     0.009143
  5 H s       :     0.817504  s :     0.817504
      pz      :     0.034342  p :     0.077886
      px      :     0.022525
      py      :     0.021018
  6 H s       :     0.801437  s :     0.801437
      pz      :     0.027420  p :     0.054887
      px      :     0.014210
      py      :     0.013257


                      *****************************
                      * MAYER POPULATION ANALYSIS *
                      *****************************

  NA   - Mulliken gross atomic population
  ZA   - Total nuclear charge
  QA   - Mulliken gross atomic charge
  VA   - Mayer's total valence
  BVA  - Mayer's bonded valence
  FA   - Mayer's free valence

  ATOM       NA         ZA         QA         VA         BVA        FA
  0 O      8.2967     8.0000    -0.2967     1.8293     1.2147     0.6146
  1 C      6.1029     6.0000    -0.1029     4.1411     4.0445     0.0966
  2 C      6.2069     6.0000    -0.2069     3.8544     3.1013     0.7531
  3 H      0.8286     1.0000     0.1714     0.9594     0.9007     0.0587
  4 H      0.8476     1.0000     0.1524     0.9564     0.8570     0.0994
  5 H      0.8498     1.0000     0.1502     0.9681     0.9592     0.0089
  6 H      0.8675     1.0000     0.1325     0.9721     0.9642     0.0078

  Mayer bond orders larger than 0.100000
B(  0-O ,  1-C ) :   1.1338 B(  1-C ,  2-C ) :   1.1522 B(  1-C ,  3-H ) :   0.8974 
B(  1-C ,  4-H ) :   0.8494 B(  2-C ,  5-H ) :   0.9487 B(  2-C ,  6-H ) :   0.9456 



-------
TIMINGS
-------

Total TD-DFT gradient time         ...        6.560 sec

Fock matrix formation       ....       0.951 sec  ( 14.5%)
  Coulomb formation         ....       0.769 sec  ( 80.9% of F)
  RI-J                      ....       0.321 sec  ( 33.7% of F)
  Chain of spheres X        ....       0.448 sec  ( 47.1% of F)
  XC integration            ....       0.182 sec  ( 19.1% of F)
Z-vector equation           ....       2.501 sec  ( 38.1%)
One electron gradient       ....       0.038 sec  (  0.6%)
Prescreening matrices       ....       0.175 sec  (  2.7%)
RI-J Coulomb gradient       ....       0.306 sec  (  4.7%)
COSX gradient               ....       0.400 sec  (  6.1%)
XC gradient                 ....       1.841 sec  ( 28.1%)

Maximum memory used throughout the entire SCFGRAD-calculation: 130.2 MB

                            ***************************************
                            *     ORCA property calculations      *
                            ***************************************

                                    ---------------------
                                    Active property flags
                                    ---------------------
   (+) Dipole Moment


------------------------------------------------------------------------------
                       ORCA ELECTRIC PROPERTIES CALCULATION
------------------------------------------------------------------------------

Dipole Moment Calculation                       ... on
Quadrupole Moment Calculation                   ... off
Polarizability Calculation                      ... off
GBWName                                         ... ox_es1_E_orca0004.gbw
Electron density                                ... ox_es1_E_orca0004.scfp
The origin for moment calculation is the CENTER OF MASS  = (-0.710750,  0.062735  0.012807)

-------------
DIPOLE MOMENT
-------------
                                X             Y             Z
Electronic contribution:     -0.43311       1.55274       0.06982
Nuclear contribution   :      1.28264      -2.72191      -0.10713
                        -----------------------------------------
Total Dipole Moment    :      0.84953      -1.16916      -0.03731
                        -----------------------------------------
Magnitude (a.u.)       :      1.44570
Magnitude (Debye)      :      3.67467



--------------------
Rotational spectrum 
--------------------
 
Rotational constants in cm-1:     1.301257     0.393774     0.344546 
Rotational constants in MHz : 39010.702389 11805.057538 10329.240669 

 Dipole components along the rotational axes: 
x,y,z [a.u.] :     1.383291    -0.416222    -0.057500 
x,y,z [Debye]:     3.516047    -1.057952    -0.146153 

 

                        *** CIS RELAXED DENSITY ***

------------------------------------------------------------------------------
                       ORCA ELECTRIC PROPERTIES CALCULATION
------------------------------------------------------------------------------

Dipole Moment Calculation                       ... on
Quadrupole Moment Calculation                   ... off
Polarizability Calculation                      ... off
GBWName                                         ... ox_es1_E_orca0004.gbw
Electron density                                ... ox_es1_E_orca0004.cisp
The origin for moment calculation is the CENTER OF MASS  = (-0.710750,  0.062735  0.012807)

-------------
DIPOLE MOMENT
-------------
                                X             Y             Z
Electronic contribution:     -1.02837       1.67491       0.04494
Nuclear contribution   :      1.28264      -2.72191      -0.10713
                        -----------------------------------------
Total Dipole Moment    :      0.25427      -1.04700      -0.06219
                        -----------------------------------------
Magnitude (a.u.)       :      1.07923
Magnitude (Debye)      :      2.74318



--------------------
Rotational spectrum 
--------------------
 
Rotational constants in cm-1:     1.301257     0.393774     0.344546 
Rotational constants in MHz : 39010.702389 11805.057538 10329.240669 

 Dipole components along the rotational axes: 
x,y,z [a.u.] :     0.838603    -0.679302     0.005596 
x,y,z [Debye]:     2.131559    -1.726648     0.014225 

 

Timings for individual modules:

Sum of individual times         ...        9.109 sec (=   0.152 min)
GTO integral calculation        ...        0.257 sec (=   0.004 min)   2.8 %
SCF iterations                  ...        1.318 sec (=   0.022 min)  14.5 %
CIS module                      ...        0.810 sec (=   0.013 min)   8.9 %
SCF Gradient evaluation         ...        6.724 sec (=   0.112 min)  73.8 %
                             ****ORCA TERMINATED NORMALLY****
TOTAL RUN TIME: 0 days 0 hours 0 minutes 9 seconds 447 msec
