
                                 *****************
                                 * O   R   C   A *
                                 *****************

                                            #,                                       
                                            ###                                      
                                            ####                                     
                                            #####                                    
                                            ######                                   
                                           ########,                                 
                                     ,,################,,,,,                         
                               ,,#################################,,                 
                          ,,##########################################,,             
                       ,#########################################, ''#####,          
                    ,#############################################,,   '####,        
                  ,##################################################,,,,####,       
                ,###########''''           ''''###############################       
              ,#####''   ,,,,##########,,,,          '''####'''          '####       
            ,##' ,,,,###########################,,,                        '##       
           ' ,,###''''                  '''############,,,                           
         ,,##''                                '''############,,,,        ,,,,,,###''
      ,#''                                            '''#######################'''  
     '                                                          ''''####''''         
             ,#######,   #######,   ,#######,      ##                                
            ,#'     '#,  ##    ##  ,#'     '#,    #''#        ######   ,####,        
            ##       ##  ##   ,#'  ##            #'  '#       #        #'  '#        
            ##       ##  #######   ##           ,######,      #####,   #    #        
            '#,     ,#'  ##    ##  '#,     ,#' ,#      #,         ##   #,  ,#        
             '#######'   ##     ##  '#######'  #'      '#     #####' # '####'        



                  #######################################################
                  #                        -***-                        #
                  #          Department of theory and spectroscopy      #
                  #    Directorship and core code : Frank Neese         #
                  #        Max Planck Institute fuer Kohlenforschung    #
                  #                Kaiser Wilhelm Platz 1               #
                  #                 D-45470 Muelheim/Ruhr               #
                  #                      Germany                        #
                  #                                                     #
                  #                  All rights reserved                #
                  #                        -***-                        #
                  #######################################################


                         Program Version 5.0.2 -  RELEASE  -


 With contributions from (in alphabetic order):
   Daniel Aravena         : Magnetic Suceptibility
   Michael Atanasov       : Ab Initio Ligand Field Theory (pilot matlab implementation)
   Alexander A. Auer      : GIAO ZORA, VPT2 properties, NMR spectrum
   Ute Becker             : Parallelization
   Giovanni Bistoni       : ED, misc. LED, open-shell LED, HFLD
   Martin Brehm           : Molecular dynamics
   Dmytro Bykov           : SCF Hessian
   Vijay G. Chilkuri      : MRCI spin determinant printing, contributions to CSF-ICE
   Dipayan Datta          : RHF DLPNO-CCSD density
   Achintya Kumar Dutta   : EOM-CC, STEOM-CC
   Dmitry Ganyushin       : Spin-Orbit,Spin-Spin,Magnetic field MRCI
   Miquel Garcia          : C-PCM and meta-GGA Hessian, CC/C-PCM, Gaussian charge scheme
   Yang Guo               : DLPNO-NEVPT2, F12-NEVPT2, CIM, IAO-localization
   Andreas Hansen         : Spin unrestricted coupled pair/coupled cluster methods
   Benjamin Helmich-Paris : MC-RPA, TRAH-SCF, COSX integrals
   Lee Huntington         : MR-EOM, pCC
   Robert Izsak           : Overlap fitted RIJCOSX, COSX-SCS-MP3, EOM
   Marcus Kettner         : VPT2
   Christian Kollmar      : KDIIS, OOCD, Brueckner-CCSD(T), CCSD density, CASPT2, CASPT2-K
   Simone Kossmann        : Meta GGA functionals, TD-DFT gradient, OOMP2, MP2 Hessian
   Martin Krupicka        : Initial AUTO-CI
   Lucas Lang             : DCDCAS
   Marvin Lechner         : AUTO-CI (C++ implementation), FIC-MRCC
   Dagmar Lenk            : GEPOL surface, SMD
   Dimitrios Liakos       : Extrapolation schemes; Compound Job, initial MDCI parallelization
   Dimitrios Manganas     : Further ROCIS development; embedding schemes
   Dimitrios Pantazis     : SARC Basis sets
   Anastasios Papadopoulos: AUTO-CI, single reference methods and gradients
   Taras Petrenko         : DFT Hessian,TD-DFT gradient, ASA, ECA, R-Raman, ABS, FL, XAS/XES, NRVS
   Peter Pinski           : DLPNO-MP2, DLPNO-MP2 Gradient
   Christoph Reimann      : Effective Core Potentials
   Marius Retegan         : Local ZFS, SOC
   Christoph Riplinger    : Optimizer, TS searches, QM/MM, DLPNO-CCSD(T), (RO)-DLPNO pert. Triples
   Tobias Risthaus        : Range-separated hybrids, TD-DFT gradient, RPA, STAB
   Michael Roemelt        : Original ROCIS implementation
   Masaaki Saitow         : Open-shell DLPNO-CCSD energy and density
   Barbara Sandhoefer     : DKH picture change effects
   Avijit Sen             : IP-ROCIS
   Kantharuban Sivalingam : CASSCF convergence, NEVPT2, FIC-MRCI
   Bernardo de Souza      : ESD, SOC TD-DFT
   Georgi Stoychev        : AutoAux, RI-MP2 NMR, DLPNO-MP2 response
   Willem Van den Heuvel  : Paramagnetic NMR
   Boris Wezisla          : Elementary symmetry handling
   Frank Wennmohs         : Technical directorship


 We gratefully acknowledge several colleagues who have allowed us to
 interface, adapt or use parts of their codes:
   Stefan Grimme, W. Hujo, H. Kruse, P. Pracht,  : VdW corrections, initial TS optimization,
                  C. Bannwarth, S. Ehlert          DFT functionals, gCP, sTDA/sTD-DF
   Ed Valeev, F. Pavosevic, A. Kumar             : LibInt (2-el integral package), F12 methods
   Garnet Chan, S. Sharma, J. Yang, R. Olivares  : DMRG
   Ulf Ekstrom                                   : XCFun DFT Library
   Mihaly Kallay                                 : mrcc  (arbitrary order and MRCC methods)
   Jiri Pittner, Ondrej Demel                    : Mk-CCSD
   Frank Weinhold                                : gennbo (NPA and NBO analysis)
   Christopher J. Cramer and Donald G. Truhlar   : smd solvation model
   Lars Goerigk                                  : TD-DFT with DH, B97 family of functionals
   V. Asgeirsson, H. Jonsson                     : NEB implementation
   FAccTs GmbH                                   : IRC, NEB, NEB-TS, DLPNO-Multilevel, CI-OPT
                                                   MM, QMMM, 2- and 3-layer-ONIOM, Crystal-QMMM,
                                                   LR-CPCM, SF, NACMEs, symmetry and pop. for TD-DFT,
                                                   nearIR, NL-DFT gradient (VV10), updates on ESD,
                                                   ML-optimized integration grids
   S Lehtola, MJT Oliveira, MAL Marques          : LibXC Library
   Liviu Ungur et al                             : ANISO software


 Your calculation uses the libint2 library for the computation of 2-el integrals
 For citations please refer to: http://libint.valeyev.net

 Your ORCA version has been built with support for libXC version: 5.1.0
 For citations please refer to: https://tddft.org/programs/libxc/

 This ORCA versions uses:
   CBLAS   interface :  Fast vector & matrix operations
   LAPACKE interface :  Fast linear algebra routines
   SCALAPACK package :  Parallel linear algebra routines
   Shared memory     :  Shared parallel matrices
   BLAS/LAPACK       :  OpenBLAS 0.3.15  USE64BITINT DYNAMIC_ARCH NO_AFFINITY SkylakeX SINGLE_THREADED
        Core in use  :  SkylakeX
   Copyright (c) 2011-2014, The OpenBLAS Project


Your calculation utilizes the atom-pairwise dispersion correction
with the Becke-Johnson damping scheme (D3BJ)
Cite in your paper:
S.Grimme, S.Ehrlich, L.Goerigk, J Comput Chem, (2011), 32, 1456–1465 
S.Grimme, J.Antony, S.Ehrlich and H.Krieg, J.Chem.Phys., 132, (2010), 154104 
   

================================================================================

----- Orbital basis set information -----
Your calculation utilizes the basis: def2-TZVP
   F. Weigend and R. Ahlrichs, Phys. Chem. Chem. Phys. 7, 3297 (2005).

----- AuxJ basis set information -----
Your calculation utilizes the auxiliary basis: def2/J
   F. Weigend, Phys. Chem. Chem. Phys. 8, 1057 (2006).

================================================================================
                                        WARNINGS
                       Please study these warnings very carefully!
================================================================================

INFO   : Checking CIS options ...

WARNING: CIS/ROCIS methods need fully converged wavefunctions
  ===> : Setting SCFConvForced true
         You can overwrite this default with %scf ConvForced false 


INFO   : the flag for use of the SHARK integral package has been found!

================================================================================
                                       INPUT FILE
================================================================================
NAME = ox_es1_E_orca0005.inp
|  1> ! engrad PBE0 D3BJ def2-TZVP  
|  2> %pal nprocs 8 end
|  3> %maxcore 3000
|  4> 
|  5> %tddft
|  6>   nroots 1
|  7>   tda true
|  8>   Iroot 1
|  9>   end 
| 10> *xyz 0 1 
| 11> O   -0.8444424103750844 0.9564855115977178 0.04481488823257452
| 12> C   -0.6973079479600752 -0.47185780395864585 0.005863676796242814
| 13> C   0.6432870422382959 -0.4542910316441668 -0.048371381951387155
| 14> H   -1.1701938104569645 -0.6439260464768145 0.8727045202088924
| 15> H   -1.3149436156504897 -0.6965063648820663 -0.8661377578809349
| 16> H   1.2716864162729167 -0.5643442789075725 -0.9875224295128704
| 17> H   1.3171475643581447 -0.6909601889855495 0.8753788996512182
| 18> *
| 19> 
| 20>                          ****END OF INPUT****
================================================================================

                     *******************************
                     * Energy+Gradient Calculation *
                     *******************************

---------------------------------
CARTESIAN COORDINATES (ANGSTROEM)
---------------------------------
  O     -0.844442    0.956486    0.044815
  C     -0.697308   -0.471858    0.005864
  C      0.643287   -0.454291   -0.048371
  H     -1.170194   -0.643926    0.872705
  H     -1.314944   -0.696506   -0.866138
  H      1.271686   -0.564344   -0.987522
  H      1.317148   -0.690960    0.875379

----------------------------
CARTESIAN COORDINATES (A.U.)
----------------------------
  NO LB      ZA    FRAG     MASS         X           Y           Z
   0 O     8.0000    0    15.999   -1.595765    1.807496    0.084688
   1 C     6.0000    0    12.011   -1.317721   -0.891682    0.011081
   2 C     6.0000    0    12.011    1.215636   -0.858486   -0.091409
   3 H     1.0000    0     1.008   -2.211346   -1.216844    1.649173
   4 H     1.0000    0     1.008   -2.484883   -1.316206   -1.636763
   5 H     1.0000    0     1.008    2.403139   -1.066456   -1.866147
   6 H     1.0000    0     1.008    2.489048   -1.305726    1.654226

--------------------------------
INTERNAL COORDINATES (ANGSTROEM)
--------------------------------
 O      0   0   0     0.000000000000     0.00000000     0.00000000
 C      1   0   0     1.436429731660     0.00000000     0.00000000
 C      2   1   0     1.341806603364    95.18754206     0.00000000
 H      2   1   3     1.002318096635    95.67735079   121.48023105
 H      2   1   3     1.091937404803    99.68855472   235.87359464
 H      3   2   1     1.135342318711   125.81393205   261.26786580
 H      3   2   1     1.167653577081   122.81684964   103.13564135

---------------------------
INTERNAL COORDINATES (A.U.)
---------------------------
 O      0   0   0     0.000000000000     0.00000000     0.00000000
 C      1   0   0     2.714458803460     0.00000000     0.00000000
 C      2   1   0     2.535647005046    95.18754206     0.00000000
 H      2   1   3     1.894106701712    95.67735079   121.48023105
 H      2   1   3     2.063462650462    99.68855472   235.87359464
 H      3   2   1     2.145486050615   125.81393205   261.26786580
 H      3   2   1     2.206545479976   122.81684964   103.13564135

---------------------
BASIS SET INFORMATION
---------------------
There are 3 groups of distinct atoms

 Group   1 Type O   : 11s6p2d1f contracted to 5s3p2d1f pattern {62111/411/11/1}
 Group   2 Type C   : 11s6p2d1f contracted to 5s3p2d1f pattern {62111/411/11/1}
 Group   3 Type H   : 5s1p contracted to 3s1p pattern {311/1}

Atom   0O    basis set group =>   1
Atom   1C    basis set group =>   2
Atom   2C    basis set group =>   2
Atom   3H    basis set group =>   3
Atom   4H    basis set group =>   3
Atom   5H    basis set group =>   3
Atom   6H    basis set group =>   3
---------------------------------
AUXILIARY/J BASIS SET INFORMATION
---------------------------------
There are 3 groups of distinct atoms

 Group   1 Type O   : 12s5p4d2f1g contracted to 6s4p3d1f1g pattern {711111/2111/211/2/1}
 Group   2 Type C   : 12s5p4d2f1g contracted to 6s4p3d1f1g pattern {711111/2111/211/2/1}
 Group   3 Type H   : 5s2p1d contracted to 3s1p1d pattern {311/2/1}

Atom   0O    basis set group =>   1
Atom   1C    basis set group =>   2
Atom   2C    basis set group =>   2
Atom   3H    basis set group =>   3
Atom   4H    basis set group =>   3
Atom   5H    basis set group =>   3
Atom   6H    basis set group =>   3

Checking for AutoStart:
The File: ox_es1_E_orca0005.gbw exists
Trying to determine its content:
     ... Fine, the file contains calculation information
     ... Fine, the calculation information was read
     ... Fine, the file contains a basis set
     ... Fine, the basis set was read
     ... Fine, the file contains a geometry
     ... Fine, the geometry was read
     ... Fine, the file contains a set of orbitals
     ... Fine, the orbitals can be read
     => possible old guess file was deleted
     => GBW file was renamed to GES file
     => GES file is set as startup file
     => Guess is set to MORead
     ... now leaving AutoStart



           ************************************************************
           *        Program running with 8 parallel MPI-processes     *
           *              working on a common directory               *
           ************************************************************
------------------------------------------------------------------------------
                           ORCA GTO INTEGRAL CALCULATION
                           -- RI-GTO INTEGRALS CHOSEN --
------------------------------------------------------------------------------
------------------------------------------------------------------------------
                   ___                                                        
                  /   \      - P O W E R E D   B Y -                         
                 /     \                                                     
                 |  |  |   _    _      __       _____    __    __             
                 |  |  |  | |  | |    /  \     |  _  \  |  |  /  |          
                  \  \/   | |  | |   /    \    | | | |  |  | /  /          
                 / \  \   | |__| |  /  /\  \   | |_| |  |  |/  /          
                |  |  |   |  __  | /  /__\  \  |    /   |      \           
                |  |  |   | |  | | |   __   |  |    \   |  |\   \          
                \     /   | |  | | |  |  |  |  | |\  \  |  | \   \       
                 \___/    |_|  |_| |__|  |__|  |_| \__\ |__|  \__/        
                                                                              
                      - O R C A' S   B I G   F R I E N D -                    
                                      &                                       
                       - I N T E G R A L  F E E D E R -                       
                                                                              
 v1 FN, 2020, v2 2021                                                         
------------------------------------------------------------------------------


Reading SHARK input file ox_es1_E_orca0005.SHARKINP.tmp ... ok
----------------------
SHARK INTEGRAL PACKAGE
----------------------

Number of atoms                             ...      7
Number of basis functions                   ...    117
Number of shells                            ...     49
Maximum angular momentum                    ...      3
Integral batch strategy                     ... SHARK/LIBINT Hybrid
RI-J (if used) integral strategy            ... SPLIT-RIJ (Revised 2003 algorithm where possible)
Printlevel                                  ...      1
Contraction scheme used                     ... SEGMENTED contraction
Coulomb Range Separation                    ... NOT USED
Exchange Range Separation                   ... NOT USED
Finite Nucleus Model                        ... NOT USED
Auxiliary Coulomb fitting basis             ... AVAILABLE
   # of basis functions in Aux-J            ...    191
   # of shells in Aux-J                     ...     65
   Maximum angular momentum in Aux-J        ...      4
Auxiliary J/K fitting basis                 ... NOT available
Auxiliary Correlation fitting basis         ... NOT available
Auxiliary 'external' fitting basis          ... NOT available
Integral threshold                          ...     2.500000e-11
Primitive cut-off                           ...     2.500000e-12
Primitive pair pre-selection threshold      ...     2.500000e-12

Calculating pre-screening integrals         ... done (  0.0 sec) Dimension = 49
Organizing shell pair data                  ... done (  0.0 sec)
Shell pair information
Total number of shell pairs                 ...      1225
Shell pairs after pre-screening             ...      1213
Total number of primitive shell pairs       ...      3648
Primitive shell pairs kept                  ...      3092
          la=0 lb=0:    367 shell pairs
          la=1 lb=0:    351 shell pairs
          la=1 lb=1:     91 shell pairs
          la=2 lb=0:    161 shell pairs
          la=2 lb=1:     78 shell pairs
          la=2 lb=2:     21 shell pairs
          la=3 lb=0:     81 shell pairs
          la=3 lb=1:     39 shell pairs
          la=3 lb=2:     18 shell pairs
          la=3 lb=3:      6 shell pairs

Calculating one electron integrals          ... done (  0.0 sec)
Calculating RI/J V-Matrix + Cholesky decomp.... done (  0.0 sec)
Calculating Nuclear repulsion               ... done (  0.0 sec) ENN=     70.598657677228 Eh

SHARK setup successfully completed in   0.1 seconds

Maximum memory used throughout the entire GTOINT-calculation: 14.9 MB


           ************************************************************
           *        Program running with 8 parallel MPI-processes     *
           *              working on a common directory               *
           ************************************************************
-------------------------------------------------------------------------------
                                 ORCA SCF
-------------------------------------------------------------------------------

------------
SCF SETTINGS
------------
Hamiltonian:
 Density Functional     Method          .... DFT(GTOs)
 Exchange Functional    Exchange        .... PBE
   PBE kappa parameter   XKappa         ....  0.804000
   PBE mue parameter    XMuePBE         ....  0.219520
 Correlation Functional Correlation     .... PBE
   PBE beta parameter  CBetaPBE         ....  0.066725
 LDA part of GGA corr.  LDAOpt          .... PW91-LDA
 Gradients option       PostSCFGGA      .... off
 Hybrid DFT is turned on
   Fraction HF Exchange ScalHFX         ....  0.250000
   Scaling of DF-GGA-X  ScalDFX         ....  0.750000
   Scaling of DF-GGA-C  ScalDFC         ....  1.000000
   Scaling of DF-LDA-C  ScalLDAC        ....  1.000000
   Perturbative correction              ....  0.000000
   Density functional embedding theory  .... OFF
   NL short-range parameter             ....  6.900000
 RI-approximation to the Coulomb term is turned on
   Number of AuxJ basis functions       .... 191
   RIJ-COSX (HFX calculated with COS-X)).... on


General Settings:
 Integral files         IntName         .... ox_es1_E_orca0005
 Hartree-Fock type      HFTyp           .... RHF
 Total Charge           Charge          ....    0
 Multiplicity           Mult            ....    1
 Number of Electrons    NEL             ....   24
 Basis Dimension        Dim             ....  117
 Nuclear Repulsion      ENuc            ....     70.5986576772 Eh

Convergence Acceleration:
 DIIS                   CNVDIIS         .... on
   Start iteration      DIISMaxIt       ....    12
   Startup error        DIISStart       ....  0.200000
   # of expansion vecs  DIISMaxEq       ....     5
   Bias factor          DIISBfac        ....   1.050
   Max. coefficient     DIISMaxC        ....  10.000
 Trust-Rad. Augm. Hess. CNVTRAH         .... auto
   Auto Start mean grad. ratio tolernc. ....  1.125000
   Auto Start start iteration           ....     1
   Auto Start num. interpolation iter.  ....    10
   Max. Number of Micro iterations      ....    16
   Max. Number of Macro iterations      .... Maxiter - #DIIS iter
   Number of Davidson start vectors     ....     2
   Converg. threshold I  (grad. norm)   ....   1.000e-05
   Converg. threshold II (energy diff.) ....   1.000e-08
   Grad. Scal. Fac. for Micro threshold ....   0.100
   Minimum threshold for Micro iter.    ....   0.010
   NR start threshold (gradient norm)   ....   0.001
   Initial trust radius                 ....   0.400
   Minimum AH scaling param. (alpha)    ....   1.000
   Maximum AH scaling param. (alpha)    .... 1000.000
   Orbital update algorithm             .... Taylor
   White noise on init. David. guess    .... on
   Maximum white noise                  ....   0.010
   Quad. conv. algorithm                .... NR
 SOSCF                  CNVSOSCF        .... on
   Start iteration      SOSCFMaxIt      ....   150
   Startup grad/error   SOSCFStart      ....  0.003300
 Level Shifting         CNVShift        .... on
   Level shift para.    LevelShift      ....    0.2500
   Turn off err/grad.   ShiftErr        ....    0.0010
 Zerner damping         CNVZerner       .... off
 Static damping         CNVDamp         .... on
   Fraction old density DampFac         ....    0.7000
   Max. Damping (<1)    DampMax         ....    0.9800
   Min. Damping (>=0)   DampMin         ....    0.0000
   Turn off err/grad.   DampErr         ....    0.1000
 Fernandez-Rico         CNVRico         .... off

SCF Procedure:
 Maximum # iterations   MaxIter         ....   125
 SCF integral mode      SCFMode         .... Direct
   Integral package                     .... SHARK and LIBINT hybrid scheme
 Reset frequency        DirectResetFreq ....    20
 Integral Threshold     Thresh          ....  2.500e-11 Eh
 Primitive CutOff       TCut            ....  2.500e-12 Eh

Convergence Tolerance:
 Convergence Check Mode ConvCheckMode   .... Total+1el-Energy
 Convergence forced     ConvForced      .... 1
 Energy Change          TolE            ....  1.000e-08 Eh
 1-El. energy change                    ....  1.000e-05 Eh
 Orbital Gradient       TolG            ....  1.000e-05
 Orbital Rotation angle TolX            ....  1.000e-05
 DIIS Error             TolErr          ....  5.000e-07


Diagonalization of the overlap matrix:
Smallest eigenvalue                        ... 2.071e-04
Time for diagonalization                   ...    0.001 sec
Threshold for overlap eigenvalues          ... 1.000e-08
Number of eigenvalues below threshold      ... 0
Time for construction of square roots      ...    0.001 sec
Total time needed                          ...    0.003 sec

---------------------
INITIAL GUESS: MOREAD
---------------------
Guess MOs are being read from file: ox_es1_E_orca0005.ges
Input Geometry matches current geometry (good)
Input basis set matches current basis set (good)
MOs were renormalized
MOs were reorthogonalized (Cholesky)
                      ------------------
                      INITIAL GUESS DONE (   0.0 sec)
                      ------------------
-------------------
DFT GRID GENERATION
-------------------

General Integration Accuracy     IntAcc      ... 4.388
Radial Grid Type                 RadialGrid  ... OptM3 with GC (2021)
Angular Grid (max. ang.)         AngularGrid ... 4 (Lebedev-302)
Angular grid pruning method      GridPruning ... 4 (adaptive)
Weight generation scheme         WeightScheme... Becke
Basis function cutoff            BFCut       ... 1.0000e-11
Integration weight cutoff        WCut        ... 1.0000e-14
Angular grids for H and He will be reduced by one unit
Partially contracted basis set               ... off
Rotationally invariant grid construction     ... off

Total number of grid points                  ...    31299
Total number of batches                      ...      492
Average number of points per batch           ...       63
Average number of grid points per atom       ...     4471
Time for grid setup =    0.133 sec

--------------------
COSX GRID GENERATION
--------------------

GRIDX 1
-------
General Integration Accuracy     IntAcc      ... 3.816
Radial Grid Type                 RadialGrid  ... OptM3 with GC (2021)
Angular Grid (max. ang.)         AngularGrid ... 1 (Lebedev-50)
Angular grid pruning method      GridPruning ... 4 (adaptive)
Weight generation scheme         WeightScheme... Becke
Basis function cutoff            BFCut       ... 1.0000e-11
Integration weight cutoff        WCut        ... 1.0000e-14
Angular grids for H and He will be reduced by one unit
Partially contracted basis set               ... on
Rotationally invariant grid construction     ... off

Total number of grid points                  ...     4030
Total number of batches                      ...       66
Average number of points per batch           ...       61
Average number of grid points per atom       ...      576
UseSFitting                                  ... on

GRIDX 2
-------
General Integration Accuracy     IntAcc      ... 4.020
Radial Grid Type                 RadialGrid  ... OptM3 with GC (2021)
Angular Grid (max. ang.)         AngularGrid ... 2 (Lebedev-110)
Angular grid pruning method      GridPruning ... 4 (adaptive)
Weight generation scheme         WeightScheme... Becke
Basis function cutoff            BFCut       ... 1.0000e-11
Integration weight cutoff        WCut        ... 1.0000e-14
Angular grids for H and He will be reduced by one unit
Partially contracted basis set               ... on
Rotationally invariant grid construction     ... off

Total number of grid points                  ...     8719
Total number of batches                      ...      140
Average number of points per batch           ...       62
Average number of grid points per atom       ...     1246
UseSFitting                                  ... on

GRIDX 3
-------
General Integration Accuracy     IntAcc      ... 4.338
Radial Grid Type                 RadialGrid  ... OptM3 with GC (2021)
Angular Grid (max. ang.)         AngularGrid ... 3 (Lebedev-194)
Angular grid pruning method      GridPruning ... 4 (adaptive)
Weight generation scheme         WeightScheme... Becke
Basis function cutoff            BFCut       ... 1.0000e-11
Integration weight cutoff        WCut        ... 1.0000e-14
Angular grids for H and He will be reduced by one unit
Partially contracted basis set               ... on
Rotationally invariant grid construction     ... off

Total number of grid points                  ...    19249
Total number of batches                      ...      304
Average number of points per batch           ...       63
Average number of grid points per atom       ...     2750
UseSFitting                                  ... on

Time for X-Grid setup             =    0.085 sec

--------------
SCF ITERATIONS
--------------
ITER       Energy         Delta-E        Max-DP      RMS-DP      [F,P]     Damp
               ***  Starting incremental Fock matrix formation  ***
                      *** Initiating the SOSCF procedure ***
                      *** Re-Reading the Fockian *** 
                      *** Removing any level shift *** 
ITER      Energy       Delta-E        Grad      Rot      Max-DP    RMS-DP
  0   -153.54914902 -153.5491490165  0.000001  0.000001  0.000002  0.000000
               *** Restarting incremental Fock matrix formation ***
                  ***Gradient check signals convergence***
              ***Rediagonalizing the Fockian in SOSCF/NRSCF***

               *****************************************************
               *                     SUCCESS                       *
               *           SCF CONVERGED AFTER   1 CYCLES          *
               *****************************************************

Old exchange energy                            =     -4.971950942 Eh
New exchange energy                            =     -4.971954845 Eh
Exchange energy change after final integration =     -0.000003903 Eh
Total energy after final integration           =   -153.549152920 Eh
Final COS-X integration done in                =     0.328 sec

----------------
TOTAL SCF ENERGY
----------------

Total Energy       :         -153.54915292 Eh           -4178.28487 eV

Components:
Nuclear Repulsion  :           70.59865768 Eh            1921.08714 eV
Electronic Energy  :         -224.14781060 Eh           -6099.37201 eV
One Electron Energy:         -347.97040111 Eh           -9468.75600 eV
Two Electron Energy:          123.82259051 Eh            3369.38398 eV
Max COSX asymmetry :            0.00000100 Eh               0.00003 eV

Virial components:
Potential Energy   :         -306.55437721 Eh           -8341.76869 eV
Kinetic Energy     :          153.00522429 Eh            4163.48382 eV
Virial Ratio       :            2.00355497


DFT components:
N(Alpha)           :       11.999999196287 electrons
N(Beta)            :       11.999999196287 electrons
N(Total)           :       23.999998392575 electrons
E(X)               :      -14.918798886093 Eh       
E(C)               :       -0.776284519032 Eh       
E(XC)              :      -15.695083405125 Eh       
DFET-embed. en.    :        0.000000000000 Eh       

---------------
SCF CONVERGENCE
---------------

  Last Energy change         ...    2.5864e-12  Tolerance :   1.0000e-08
  Last MAX-Density change    ...    4.4409e-16  Tolerance :   1.0000e-07
  Last RMS-Density change    ...    1.5263e-17  Tolerance :   5.0000e-09
  Last Orbital Gradient      ...    5.0367e-07  Tolerance :   1.0000e-05
  Last Orbital Rotation      ...    2.9898e-06  Tolerance :   1.0000e-05

             **** THE GBW FILE WAS UPDATED (ox_es1_E_orca0005.gbw) ****
             **** DENSITY ox_es1_E_orca0005.scfp WAS UPDATED ****
             **** ENERGY FILE WAS UPDATED (ox_es1_E_orca0005.en.tmp) ****
             **** THE GBW FILE WAS UPDATED (ox_es1_E_orca0005.gbw) ****
             **** DENSITY ox_es1_E_orca0005.scfp WAS UPDATED ****
----------------
ORBITAL ENERGIES
----------------

  NO   OCC          E(Eh)            E(eV) 
   0   2.0000     -19.198154      -522.4083 
   1   2.0000     -10.318854      -280.7903 
   2   2.0000     -10.251391      -278.9545 
   3   2.0000      -1.004353       -27.3298 
   4   2.0000      -0.780005       -21.2250 
   5   2.0000      -0.628946       -17.1145 
   6   2.0000      -0.524124       -14.2621 
   7   2.0000      -0.504701       -13.7336 
   8   2.0000      -0.407843       -11.0980 
   9   2.0000      -0.398228       -10.8363 
  10   2.0000      -0.284571        -7.7436 
  11   2.0000      -0.257398        -7.0042 
  12   0.0000      -0.116105        -3.1594 
  13   0.0000       0.049489         1.3467 
  14   0.0000       0.070102         1.9076 
  15   0.0000       0.089994         2.4489 
  16   0.0000       0.126588         3.4446 
  17   0.0000       0.152734         4.1561 
  18   0.0000       0.183375         4.9899 
  19   0.0000       0.217065         5.9066 
  20   0.0000       0.229858         6.2548 
  21   0.0000       0.253269         6.8918 
  22   0.0000       0.261050         7.1035 
  23   0.0000       0.338664         9.2155 
  24   0.0000       0.366779         9.9806 
  25   0.0000       0.384480        10.4622 
  26   0.0000       0.412542        11.2258 
  27   0.0000       0.430317        11.7095 
  28   0.0000       0.452173        12.3043 
  29   0.0000       0.495486        13.4828 
  30   0.0000       0.542935        14.7740 
  31   0.0000       0.548405        14.9229 
  32   0.0000       0.595483        16.2039 
  33   0.0000       0.623517        16.9668 
  34   0.0000       0.654801        17.8180 
  35   0.0000       0.762534        20.7496 
  36   0.0000       0.786519        21.4023 
  37   0.0000       0.842567        22.9274 
  38   0.0000       0.846218        23.0268 
  39   0.0000       0.927375        25.2352 
  40   0.0000       0.965240        26.2655 
  41   0.0000       1.055153        28.7122 
  42   0.0000       1.088804        29.6279 
  43   0.0000       1.113443        30.2983 
  44   0.0000       1.225100        33.3367 
  45   0.0000       1.333020        36.2733 
  46   0.0000       1.393174        37.9102 
  47   0.0000       1.469815        39.9957 
  48   0.0000       1.511455        41.1288 
  49   0.0000       1.542968        41.9863 
  50   0.0000       1.556082        42.3431 
  51   0.0000       1.602762        43.6134 
  52   0.0000       1.667106        45.3643 
  53   0.0000       1.694456        46.1085 
  54   0.0000       1.729417        47.0598 
  55   0.0000       1.791887        48.7597 
  56   0.0000       1.799265        48.9605 
  57   0.0000       1.815087        49.3910 
  58   0.0000       1.862145        50.6716 
  59   0.0000       1.894035        51.5393 
  60   0.0000       2.011951        54.7480 
  61   0.0000       2.097242        57.0689 
  62   0.0000       2.196143        59.7601 
  63   0.0000       2.236724        60.8644 
  64   0.0000       2.285345        62.1874 
  65   0.0000       2.371734        64.5382 
  66   0.0000       2.415184        65.7205 
  67   0.0000       2.437584        66.3300 
  68   0.0000       2.511228        68.3340 
  69   0.0000       2.535720        69.0004 
  70   0.0000       2.577929        70.1490 
  71   0.0000       2.665491        72.5317 
  72   0.0000       2.688347        73.1536 
  73   0.0000       2.750442        74.8433 
  74   0.0000       2.780507        75.6614 
  75   0.0000       2.796677        76.1015 
  76   0.0000       2.830644        77.0257 
  77   0.0000       2.937140        79.9236 
  78   0.0000       2.990475        81.3750 
  79   0.0000       3.017942        82.1224 
  80   0.0000       3.048499        82.9539 
  81   0.0000       3.073092        83.6231 
  82   0.0000       3.101177        84.3873 
  83   0.0000       3.143644        85.5429 
  84   0.0000       3.180935        86.5576 
  85   0.0000       3.210374        87.3587 
  86   0.0000       3.375832        91.8611 
  87   0.0000       3.405220        92.6607 
  88   0.0000       3.508836        95.4803 
  89   0.0000       3.517497        95.7160 
  90   0.0000       3.530365        96.0661 
  91   0.0000       3.705834       100.8409 
  92   0.0000       3.731452       101.5380 
  93   0.0000       3.983163       108.3874 
  94   0.0000       4.132057       112.4390 
  95   0.0000       4.224976       114.9674 
  96   0.0000       4.238821       115.3442 
  97   0.0000       4.319905       117.5506 
  98   0.0000       4.440835       120.8413 
  99   0.0000       4.519330       122.9772 
 100   0.0000       4.646712       126.4435 
 101   0.0000       4.862386       132.3123 
 102   0.0000       5.218425       142.0006 
 103   0.0000       5.273537       143.5002 
 104   0.0000       5.389597       146.6584 
 105   0.0000       5.411810       147.2628 
 106   0.0000       5.761048       156.7661 
 107   0.0000       5.799178       157.8037 
 108   0.0000       5.952129       161.9657 
 109   0.0000       6.389764       173.8743 
 110   0.0000       6.445586       175.3933 
 111   0.0000       6.793633       184.8641 
 112   0.0000       6.826649       185.7626 
 113   0.0000       6.967999       189.6089 
 114   0.0000      22.033190       599.5536 
 115   0.0000      22.789913       620.1451 
 116   0.0000      43.759057      1190.7445 

                    ********************************
                    * MULLIKEN POPULATION ANALYSIS *
                    ********************************

-----------------------
MULLIKEN ATOMIC CHARGES
-----------------------
   0 O :   -0.395450
   1 C :   -0.038081
   2 C :   -0.117837
   3 H :    0.119936
   4 H :    0.109344
   5 H :    0.163234
   6 H :    0.158855
Sum of atomic charges:    0.0000000

--------------------------------
MULLIKEN REDUCED ORBITAL CHARGES
--------------------------------
  0 O s       :     3.916354  s :     3.916354
      pz      :     1.923077  p :     4.454177
      px      :     1.275361
      py      :     1.255739
      dz2     :     0.003308  d :     0.023630
      dxz     :     0.000283
      dyz     :     0.005240
      dx2y2   :     0.008442
      dxy     :     0.006356
      f0      :     0.000144  f :     0.001290
      f+1     :     0.000066
      f-1     :     0.000296
      f+2     :     0.000164
      f-2     :     0.000028
      f+3     :     0.000274
      f-3     :     0.000317
  1 C s       :     3.148234  s :     3.148234
      pz      :     1.066473  p :     2.720252
      px      :     0.923073
      py      :     0.730706
      dz2     :     0.009668  d :     0.159795
      dxz     :     0.020798
      dyz     :     0.045953
      dx2y2   :     0.023080
      dxy     :     0.060296
      f0      :     0.001735  f :     0.009801
      f+1     :     0.001047
      f-1     :     0.000716
      f+2     :     0.003214
      f-2     :     0.000122
      f+3     :     0.002153
      f-3     :     0.000814
  2 C s       :     3.281402  s :     3.281402
      pz      :     1.050760  p :     2.769417
      px      :     0.998934
      py      :     0.719723
      dz2     :     0.004297  d :     0.061496
      dxz     :     0.030278
      dyz     :     0.005062
      dx2y2   :     0.006645
      dxy     :     0.015214
      f0      :     0.000556  f :     0.005522
      f+1     :     0.000963
      f-1     :     0.000116
      f+2     :     0.001183
      f-2     :     0.000287
      f+3     :     0.000741
      f-3     :     0.001676
  3 H s       :     0.855195  s :     0.855195
      pz      :     0.011342  p :     0.024869
      px      :     0.007061
      py      :     0.006465
  4 H s       :     0.869471  s :     0.869471
      pz      :     0.009632  p :     0.021185
      px      :     0.007065
      py      :     0.004489
  5 H s       :     0.815987  s :     0.815987
      pz      :     0.010622  p :     0.020779
      px      :     0.006947
      py      :     0.003209
  6 H s       :     0.821692  s :     0.821692
      pz      :     0.009383  p :     0.019453
      px      :     0.006749
      py      :     0.003321


                     *******************************
                     * LOEWDIN POPULATION ANALYSIS *
                     *******************************

----------------------
LOEWDIN ATOMIC CHARGES
----------------------
   0 O :   -0.058806
   1 C :   -0.453670
   2 C :   -0.033182
   3 H :    0.113937
   4 H :    0.130641
   5 H :    0.146777
   6 H :    0.154303

-------------------------------
LOEWDIN REDUCED ORBITAL CHARGES
-------------------------------
  0 O s       :     3.570266  s :     3.570266
      pz      :     1.846471  p :     4.432745
      px      :     1.226350
      py      :     1.359924
      dz2     :     0.006851  d :     0.052286
      dxz     :     0.000276
      dyz     :     0.014121
      dx2y2   :     0.016789
      dxy     :     0.014248
      f0      :     0.000369  f :     0.003510
      f+1     :     0.000102
      f-1     :     0.000554
      f+2     :     0.000702
      f-2     :     0.000024
      f+3     :     0.001031
      f-3     :     0.000728
  1 C s       :     2.784537  s :     2.784537
      pz      :     1.044654  p :     2.955607
      px      :     1.083116
      py      :     0.827837
      dz2     :     0.068966  d :     0.636507
      dxz     :     0.127905
      dyz     :     0.120298
      dx2y2   :     0.133934
      dxy     :     0.185404
      f0      :     0.011370  f :     0.077020
      f+1     :     0.007488
      f-1     :     0.007311
      f+2     :     0.018548
      f-2     :     0.001900
      f+3     :     0.018185
      f-3     :     0.012219
  2 C s       :     2.894901  s :     2.894901
      pz      :     1.044873  p :     2.821536
      px      :     1.125760
      py      :     0.650903
      dz2     :     0.027542  d :     0.284233
      dxz     :     0.149996
      dyz     :     0.010053
      dx2y2   :     0.043123
      dxy     :     0.053519
      f0      :     0.004333  f :     0.032513
      f+1     :     0.004161
      f-1     :     0.001042
      f+2     :     0.006637
      f-2     :     0.001291
      f+3     :     0.005838
      f-3     :     0.009212
  3 H s       :     0.810707  s :     0.810707
      pz      :     0.035886  p :     0.075356
      px      :     0.020734
      py      :     0.018736
  4 H s       :     0.810872  s :     0.810872
      pz      :     0.028064  p :     0.058487
      px      :     0.018188
      py      :     0.012235
  5 H s       :     0.795927  s :     0.795927
      pz      :     0.031305  p :     0.057296
      px      :     0.017437
      py      :     0.008554
  6 H s       :     0.793224  s :     0.793224
      pz      :     0.027249  p :     0.052473
      px      :     0.016561
      py      :     0.008663


                      *****************************
                      * MAYER POPULATION ANALYSIS *
                      *****************************

  NA   - Mulliken gross atomic population
  ZA   - Total nuclear charge
  QA   - Mulliken gross atomic charge
  VA   - Mayer's total valence
  BVA  - Mayer's bonded valence
  FA   - Mayer's free valence

  ATOM       NA         ZA         QA         VA         BVA        FA
  0 O      8.3955     8.0000    -0.3955     1.7680     1.7680     0.0000
  1 C      6.0381     6.0000    -0.0381     4.0645     4.0645    -0.0000
  2 C      6.1178     6.0000    -0.1178     3.8427     3.8427     0.0000
  3 H      0.8801     1.0000     0.1199     0.9761     0.9761    -0.0000
  4 H      0.8907     1.0000     0.1093     0.9653     0.9653    -0.0000
  5 H      0.8368     1.0000     0.1632     0.9549     0.9549    -0.0000
  6 H      0.8411     1.0000     0.1589     0.9558     0.9558     0.0000

  Mayer bond orders larger than 0.100000
B(  0-O ,  1-C ) :   0.9570 B(  0-O ,  2-C ) :   0.8135 B(  1-C ,  2-C ) :   1.1546 
B(  1-C ,  3-H ) :   0.9806 B(  1-C ,  4-H ) :   0.9540 B(  2-C ,  5-H ) :   0.9368 
B(  2-C ,  6-H ) :   0.9347 

-------
TIMINGS
-------

Total SCF time: 0 days 0 hours 0 min 1 sec 

Total time                  ....       1.216 sec
Sum of individual times     ....       1.102 sec  ( 90.7%)

Fock matrix formation       ....       0.865 sec  ( 71.1%)
  Split-RI-J                ....       0.136 sec  ( 15.7% of F)
  Chain of spheres X        ....       0.642 sec  ( 74.3% of F)
  XC integration            ....       0.078 sec  (  9.0% of F)
    Basis function eval.    ....       0.023 sec  ( 29.2% of XC)
    Density eval.           ....       0.017 sec  ( 22.1% of XC)
    XC-Functional eval.     ....       0.005 sec  (  6.0% of XC)
    XC-Potential eval.      ....       0.026 sec  ( 33.5% of XC)
Diagonalization             ....       0.003 sec  (  0.2%)
Density matrix formation    ....       0.001 sec  (  0.0%)
Population analysis         ....       0.003 sec  (  0.2%)
Initial guess               ....       0.009 sec  (  0.8%)
Orbital Transformation      ....       0.000 sec  (  0.0%)
Orbital Orthonormalization  ....       0.001 sec  (  0.1%)
DIIS solution               ....       0.002 sec  (  0.1%)
SOSCF solution              ....       0.003 sec  (  0.2%)
Grid generation             ....       0.218 sec  ( 17.9%)

Maximum memory used throughout the entire SCF-calculation: 61.1 MB


           ************************************************************
           *        Program running with 8 parallel MPI-processes     *
           *              working on a common directory               *
           ************************************************************
------------------------------------------------------------------------------
                        ORCA TD-DFT/TDA CALCULATION
------------------------------------------------------------------------------

Input orbitals are from        ... ox_es1_E_orca0005.gbw
CI-vector output               ... ox_es1_E_orca0005.cis
Tamm-Dancoff approximation     ... operative
CIS-Integral strategy          ... AO-integrals
Integral handling              ... AO integral Direct
Max. core memory used          ... 3000 MB
Reference state                ... RHF
Generation of triplets         ... off
Follow IRoot                   ... off
Number of operators            ... 1
Orbital ranges used for CIS calculation:
 Operator 0:  Orbitals   3... 11  to  12...116
XAS localization array:
 Operator 0:  Orbitals  -1... -1

-------------------
XC-INTEGRATION GRID
-------------------

General Integration Accuracy     IntAcc      ... 3.467
Radial Grid Type                 RadialGrid  ... OptM3 with GC (2021)
Angular Grid (max. ang.)         AngularGrid ... 1 (Lebedev-50)
Angular grid pruning method      GridPruning ... 4 (adaptive)
Weight generation scheme         WeightScheme... Becke
Basis function cutoff            BFCut       ... 1.0000e-11
Integration weight cutoff        WCut        ... 1.0000e-14
Angular grids for H and He will be reduced by one unit
Partially contracted basis set               ... off
Rotationally invariant grid construction     ... off

Total number of grid points                  ...     4534
Total number of batches                      ...       75
Average number of points per batch           ...       60
Average number of grid points per atom       ...      648

---------------------
COSX-INTEGRATION GRID
---------------------

General Integration Accuracy     IntAcc      ... 3.067
Radial Grid Type                 RadialGrid  ... OptM3 with GC (2021)
Angular Grid (max. ang.)         AngularGrid ... 1 (Lebedev-50)
Angular grid pruning method      GridPruning ... 4 (adaptive)
Weight generation scheme         WeightScheme... Becke
Basis function cutoff            BFCut       ... 1.0000e-11
Integration weight cutoff        WCut        ... 1.0000e-14
Angular grids for H and He will be reduced by one unit
Partially contracted basis set               ... on
Rotationally invariant grid construction     ... off

Total number of grid points                  ...     2083
Total number of batches                      ...       38
Average number of points per batch           ...       54
Average number of grid points per atom       ...      298

---------------
TD-DFT XC SETUP
---------------

DFT calculation                         ... on
Name of the grid file                   ... ox_es1_E_orca0005.grid_cis.tmp
Exchange functional (TD-DFT)            ... PBE
   PBE kappa parameter  XKappa (TD-DFT) ...  0.804000
   PBE mue parameter   XMuePBE (TD-DFT) ...  0.219520
Correlation functional (TD-DFT)         ... PBE
   PBE beta parameter CBetaPBE (TD-DFT) ...  0.066725
 LDA part of GGA corr.  LDAOpt (TD-DFT) ... PW91-LDA
Hybrid DFT                              ... on
   Exchange mixing (TD-DFT)             ...  0.250
   GGA exch. scaling (TD-DFT)           ...  0.750
   GGA corr. scaling (TD-DFT)           ...  1.000

Building densities             ... done
Calculating rho(r) on the grid ... done
Building xc-kernel on the grid ... done
                    *** TD-DFT CALCULATION INITIALIZED ***

------------------------
DAVIDSON-DIAGONALIZATION
------------------------

Dimension of the eigenvalue problem            ...    945
Number of roots to be determined               ...      1
Maximum size of the expansion space            ...     10
Maximum number of iterations                   ...    100
Convergence tolerance for the residual         ...    2.500e-07
Convergence tolerance for the energies         ...    2.500e-07
Orthogonality tolerance                        ...    1.000e-14
Level Shift                                    ...    0.000e+00
Constructing the preconditioner                ... o.k.
Building the initial guess                     ... o.k.
Number of trial vectors determined             ...     10


                       ****Iteration    0****

   Memory handling for direct AO based CIS:
   Memory per vector needed      ...     1 MB
   Memory needed                 ...     1 MB
   Memory available              ...  3000 MB
   Number of vectors per batch   ...  3000
   Number of batches             ...     1
   Time for densities:            0.000
   Time for RI-J (Direct):        0.017
   Time for K (COSX):             0.062
   Time for XC-Integration:       0.017
   Time for Sigma-Completion:     0.000
   Size of expansion space: 3
   Lowest Energy          :     0.057806462391
   Maximum Energy change  :     0.057806462391 (vector 0)
   Maximum residual norm  :     0.002885028331

                       ****Iteration    1****
   Time for densities:            0.000
   Time for RI-J (Direct):        0.014
   Time for K (COSX):             0.059
   Time for XC-Integration:       0.007
   Time for Sigma-Completion:     0.000
   Size of expansion space: 4
   Lowest Energy          :     0.055826463483
   Maximum Energy change  :     0.001979998908 (vector 0)
   Maximum residual norm  :     0.000053234533

                       ****Iteration    2****
   Time for densities:            0.000
   Time for RI-J (Direct):        0.014
   Time for K (COSX):             0.059
   Time for XC-Integration:       0.008
   Time for Sigma-Completion:     0.000
   Size of expansion space: 5
   Lowest Energy          :     0.055786332096
   Maximum Energy change  :     0.000040131386 (vector 0)
   Maximum residual norm  :     0.000002310908

                       ****Iteration    3****
   Time for densities:            0.000
   Time for RI-J (Direct):        0.014
   Time for K (COSX):             0.060
   Time for XC-Integration:       0.008
   Time for Sigma-Completion:     0.000
   Size of expansion space: 6
   Lowest Energy          :     0.055784294412
   Maximum Energy change  :     0.000002037685 (vector 0)
   Maximum residual norm  :     0.000000150292

      *** CONVERGENCE OF RESIDUAL NORM REACHED ***

Storing the converged CI vectors               ... ox_es1_E_orca0005.cis1

                 *** DAVIDSON DONE ***

Total time for solving the CIS problem:     0.347sec

------------------------------------
TD-DFT/TDA EXCITED STATES (SINGLETS)
------------------------------------

the weight of the individual excitations are printed if larger than 1.0e-02

STATE  1:  E=   0.055784 au      1.518 eV    12243.2 cm**-1 <S**2> =   0.000000
    11a ->  12a  :     0.995311 (c=  0.99765280)


-----------------------------
TD-DFT/TDA-EXCITATION SPECTRA
-----------------------------

Center of mass = ( -0.6029,  0.0670,  0.0043)
Calculating the Dipole integrals                  ... done
Transforming integrals                            ... done
Calculating the Linear Momentum integrals         ... done
Transforming integrals                            ... done
Calculating angular momentum integrals            ... done
Transforming integrals                            ... done

-----------------------------------------------------------------------------
         ABSORPTION SPECTRUM VIA TRANSITION ELECTRIC DIPOLE MOMENTS
-----------------------------------------------------------------------------
State   Energy    Wavelength  fosc         T2        TX        TY        TZ  
        (cm-1)      (nm)                 (au**2)    (au)      (au)      (au) 
-----------------------------------------------------------------------------
   1   12243.2    816.8   0.000119471   0.00321  -0.01788  -0.00594   0.05346

-----------------------------------------------------------------------------
         ABSORPTION SPECTRUM VIA TRANSITION VELOCITY DIPOLE MOMENTS
-----------------------------------------------------------------------------
State   Energy    Wavelength   fosc        P2         PX        PY        PZ  
        (cm-1)      (nm)                 (au**2)     (au)      (au)      (au) 
-----------------------------------------------------------------------------
   1   12243.2    816.8   0.012590794   0.00105  -0.00297   0.00005  -0.03232

-------------------------------------------------------------------
                             CD SPECTRUM
-------------------------------------------------------------------
State  Energy     Wavelength     R         MX        MY        MZ   
       (cm-1)       (nm)     (1e40*cgs)   (au)      (au)      (au)  
-------------------------------------------------------------------
   1   12243.2    816.8      0.60830  -0.04955  -0.27507  -0.02298

-------------------------------------------------------------------
         CD SPECTRUM VIA TRANSITION VELOCITY DIPOLE MOMENTS        
-------------------------------------------------------------------
State  Energy     Wavelength     R         MX        MY        MZ   
       (cm-1)       (nm)     (1e40*cgs)   (au)      (au)      (au)  
-------------------------------------------------------------------
   1   12243.2    816.8      7.39845  -0.04955  -0.27507  -0.02298

Total run time:        0.645 sec

           *** ORCA-CIS/TD-DFT FINISHED WITHOUT ERROR ***

Maximum memory used throughout the entire CIS-calculation: 49.4 MB

-----------------------
CIS/TD-DFT TOTAL ENERGY
-----------------------

    E(SCF)  =   -153.549152920 Eh
    DE(CIS) =      0.055784294 Eh (Root  1)
    ----------------------------- ---------
    E(tot)  =   -153.493368625 Eh



-------------------------------------------------------------------------------
                          DFT DISPERSION CORRECTION                            
                                                                               
                              DFTD3 V3.1  Rev 1                                
                          USING Becke-Johnson damping                          
-------------------------------------------------------------------------------
The PBE0 functional is recognized
Active option DFTDOPT                   ...         4   

molecular C6(AA) [au] = 393.129303 


            DFT-D V3
 parameters
 s6 scaling factor         :     1.0000 
 a1 scaling factor         :     0.4145 
 s8 scaling factor         :     1.2177 
 a2 scaling factor         :     4.8593 
 ad hoc parameters k1-k3   :    16.0000     1.3333    -4.0000 

 Edisp/kcal,au: -1.653178404131  -0.002634507200 
 E6   /kcal   :  -1.079598891 
 E8   /kcal   :  -0.573579513 
 % E8         :  34.695560492 

-------------------------   ----------------
Dispersion correction           -0.002634507
-------------------------   ----------------


-------------------------   --------------------
FINAL SINGLE POINT ENERGY      -153.496003132351
-------------------------   --------------------



           ************************************************************
           *        Program running with 8 parallel MPI-processes     *
           *              working on a common directory               *
           ************************************************************
------------------------------------------------------------------------------
                         ORCA SCF GRADIENT CALCULATION
------------------------------------------------------------------------------


------------------------
TD-DFT GRADIENT XC SETUP
------------------------

Building densities                     ... done
Calculating rho(r) on the grid         ... done
Building xc-kernel on the grid         ... done
Building xc 3rd derivative on the grid      ... done
                *** TD-DFT GRADIENT CALCULATION INITIALIZED ***

-------------------
TD-DFT/TDA GRADIENT
-------------------

Reference wavefunction             ... RHF
State of interest                  ... 1
Basis dimension                    ... 117
DFT-XC contribution needed         ... YES
RI-approximation                   ... ON
CIS-vectors being read from        ... ox_es1_E_orca0005.cis

 => Number of Vectors found: 1
 => Orbital Window: 3...11 -> 12...116

Reading the CIS file                     ... done
Norm of the CI vector                    ... 1.000000000
Making the CIS (pseudo)densities         ... done
Making operators G(D) and Q(T)           ... done
Transforming the Fock operators          ... done
Making the frozen-core relaxed density   ... done
Constructing the G(H) operator           ... done
Transforming the G(H) operator           ... done
Calculating the CIS Lagrangian           ... done
Solving the Z-vector equations           ... done
Finalizing the relaxed density           ... done
Storing the relaxed density              ... done
Constructing the G(Z) operator           ... done
Transforming the G(Z) operator           ... done
Making the W-matrix                      ... done
Finalizing the W-matrix                  ... done
Transforming the W-matrix                ... done
Nuclear repulsion gradient               ... done
One-Electron gradient                    ... done
Dispersion correction                    ... done
Prescreening matrices                    ... done
COSX-gradient                            ... done
Coulomb gradient (RI)                    ... done
Exchange-Correlation gradient            ... done

                 ---------------------------
                 EXCITED STATE GRADIENT DONE
                 ---------------------------

------------------
CARTESIAN GRADIENT
------------------

   1   O   :    0.019496898   -0.013523717    0.002374737
   2   C   :    0.040803138   -0.077143380    0.057926119
   3   C   :   -0.157569232    0.061702477   -0.005713612
   4   H   :    0.039400316    0.036925931   -0.066869635
   5   H   :    0.003067247    0.016507698    0.002349933
   6   H   :    0.024340957   -0.009149448   -0.020425995
   7   H   :    0.030441574   -0.015299636    0.030339372

Difference to translation invariance:
           :   -0.0000191019    0.0000199245   -0.0000190805

Difference to rotation invariance:
           :   -0.0000118048    0.0000009181   -0.0009427242

Norm of the cartesian gradient     ...    0.2259591756
RMS gradient                       ...    0.0493083346
MAX gradient                       ...    0.1575692325

------------------------------------------------------------------------------
                  RELAXED CIS/TDA DENSITY POPULATION ANALYSIS
                                   IROOT 1
------------------------------------------------------------------------------
------------------------------------------------------------------------------
                           ORCA POPULATION ANALYSIS
------------------------------------------------------------------------------
Input electron density              ... ox_es1_E_orca0005.cisp
BaseName (.gbw .S,...)              ... ox_es1_E_orca0005

                    ********************************
                    * MULLIKEN POPULATION ANALYSIS *
                    ********************************

-----------------------
MULLIKEN ATOMIC CHARGES
-----------------------
   0 O :   -0.239398
   1 C :   -0.080129
   2 C :   -0.263317
   3 H :    0.152194
   4 H :    0.150229
   5 H :    0.143426
   6 H :    0.136995
Sum of atomic charges:   -0.0000000

--------------------------------
MULLIKEN REDUCED ORBITAL CHARGES
--------------------------------
  0 O s       :     3.899954  s :     3.899954
      pz      :     1.084185  p :     4.315791
      px      :     1.914334
      py      :     1.317272
      dz2     :     0.002791  d :     0.022720
      dxz     :     0.000249
      dyz     :     0.005971
      dx2y2   :     0.008377
      dxy     :     0.005332
      f0      :     0.000035  f :     0.000934
      f+1     :    -0.000031
      f-1     :     0.000080
      f+2     :     0.000188
      f-2     :     0.000002
      f+3     :     0.000270
      f-3     :     0.000389
  1 C s       :     3.150574  s :     3.150574
      pz      :     1.036029  p :     2.774907
      px      :     0.996265
      py      :     0.742613
      dz2     :     0.009216  d :     0.144843
      dxz     :     0.025708
      dyz     :     0.021530
      dx2y2   :     0.024346
      dxy     :     0.064044
      f0      :     0.000939  f :     0.009805
      f+1     :     0.001168
      f-1     :     0.000515
      f+2     :     0.001743
      f-2     :     0.000085
      f+3     :     0.002793
      f-3     :     0.002562
  2 C s       :     3.276913  s :     3.276913
      pz      :     1.031943  p :     2.929406
      px      :     0.943324
      py      :     0.954138
      dz2     :     0.003451  d :     0.051606
      dxz     :     0.020396
      dyz     :     0.001896
      dx2y2   :     0.009308
      dxy     :     0.016557
      f0      :     0.000514  f :     0.005392
      f+1     :     0.000834
      f-1     :     0.000182
      f+2     :     0.001182
      f-2     :     0.000164
      f+3     :     0.000951
      f-3     :     0.001566
  3 H s       :     0.822620  s :     0.822620
      pz      :     0.011699  p :     0.025186
      px      :     0.007271
      py      :     0.006215
  4 H s       :     0.828156  s :     0.828156
      pz      :     0.009948  p :     0.021615
      px      :     0.007261
      py      :     0.004405
  5 H s       :     0.834905  s :     0.834905
      pz      :     0.009666  p :     0.021669
      px      :     0.006714
      py      :     0.005288
  6 H s       :     0.842725  s :     0.842725
      pz      :     0.008567  p :     0.020280
      px      :     0.006490
      py      :     0.005222


                     *******************************
                     * LOEWDIN POPULATION ANALYSIS *
                     *******************************

----------------------
LOEWDIN ATOMIC CHARGES
----------------------
   0 O :    0.063295
   1 C :   -0.421975
   2 C :   -0.213274
   3 H :    0.139579
   4 H :    0.160396
   5 H :    0.132793
   6 H :    0.139186

-------------------------------
LOEWDIN REDUCED ORBITAL CHARGES
-------------------------------
  0 O s       :     3.581555  s :     3.581555
      pz      :     1.054701  p :     4.298163
      px      :     1.833118
      py      :     1.410344
      dz2     :     0.007157  d :     0.053751
      dxz     :     0.000333
      dyz     :     0.013187
      dx2y2   :     0.016433
      dxy     :     0.016642
      f0      :     0.000380  f :     0.003235
      f+1     :     0.000050
      f-1     :     0.000348
      f+2     :     0.000562
      f-2     :     0.000020
      f+3     :     0.001042
      f-3     :     0.000833
  1 C s       :     2.788876  s :     2.788876
      pz      :     0.999595  p :     2.955574
      px      :     1.119249
      py      :     0.836731
      dz2     :     0.067579  d :     0.592735
      dxz     :     0.133583
      dyz     :     0.057603
      dx2y2   :     0.160085
      dxy     :     0.173885
      f0      :     0.007391  f :     0.084789
      f+1     :     0.007493
      f-1     :     0.007082
      f+2     :     0.012158
      f-2     :     0.001417
      f+3     :     0.023103
      f-3     :     0.026146
  2 C s       :     2.897607  s :     2.897607
      pz      :     1.037000  p :     2.995873
      px      :     1.100698
      py      :     0.858175
      dz2     :     0.030695  d :     0.286339
      dxz     :     0.135440
      dyz     :     0.005702
      dx2y2   :     0.043507
      dxy     :     0.070995
      f0      :     0.004187  f :     0.033455
      f+1     :     0.004516
      f-1     :     0.001411
      f+2     :     0.006293
      f-2     :     0.000962
      f+3     :     0.006726
      f-3     :     0.009358
  3 H s       :     0.784678  s :     0.784678
      pz      :     0.036412  p :     0.075743
      px      :     0.021190
      py      :     0.018141
  4 H s       :     0.780375  s :     0.780375
      pz      :     0.028540  p :     0.059229
      px      :     0.018623
      py      :     0.012066
  5 H s       :     0.807568  s :     0.807568
      pz      :     0.028638  p :     0.059639
      px      :     0.016684
      py      :     0.014317
  6 H s       :     0.806294  s :     0.806294
      pz      :     0.024861  p :     0.054520
      px      :     0.015743
      py      :     0.013916


                      *****************************
                      * MAYER POPULATION ANALYSIS *
                      *****************************

  NA   - Mulliken gross atomic population
  ZA   - Total nuclear charge
  QA   - Mulliken gross atomic charge
  VA   - Mayer's total valence
  BVA  - Mayer's bonded valence
  FA   - Mayer's free valence

  ATOM       NA         ZA         QA         VA         BVA        FA
  0 O      8.2394     8.0000    -0.2394     1.8678     1.0964     0.7713
  1 C      6.0801     6.0000    -0.0801     4.1151     4.0261     0.0891
  2 C      6.2633     6.0000    -0.2633     3.8899     3.1321     0.7578
  3 H      0.8478     1.0000     0.1522     0.9666     0.9222     0.0444
  4 H      0.8498     1.0000     0.1502     0.9606     0.9073     0.0533
  5 H      0.8566     1.0000     0.1434     0.9696     0.9627     0.0069
  6 H      0.8630     1.0000     0.1370     0.9700     0.9628     0.0073

  Mayer bond orders larger than 0.100000
B(  0-O ,  1-C ) :   1.0249 B(  1-C ,  2-C ) :   1.1770 B(  1-C ,  3-H ) :   0.9157 
B(  1-C ,  4-H ) :   0.8952 B(  2-C ,  5-H ) :   0.9492 B(  2-C ,  6-H ) :   0.9453 



-------
TIMINGS
-------

Total TD-DFT gradient time         ...        6.379 sec

Fock matrix formation       ....       0.976 sec  ( 15.3%)
  Coulomb formation         ....       0.787 sec  ( 80.7% of F)
  RI-J                      ....       0.332 sec  ( 34.0% of F)
  Chain of spheres X        ....       0.455 sec  ( 46.6% of F)
  XC integration            ....       0.188 sec  ( 19.3% of F)
Z-vector equation           ....       2.130 sec  ( 33.4%)
One electron gradient       ....       0.039 sec  (  0.6%)
Prescreening matrices       ....       0.188 sec  (  2.9%)
RI-J Coulomb gradient       ....       0.319 sec  (  5.0%)
COSX gradient               ....       0.427 sec  (  6.7%)
XC gradient                 ....       1.956 sec  ( 30.7%)

Maximum memory used throughout the entire SCFGRAD-calculation: 130.2 MB

                            ***************************************
                            *     ORCA property calculations      *
                            ***************************************

                                    ---------------------
                                    Active property flags
                                    ---------------------
   (+) Dipole Moment


------------------------------------------------------------------------------
                       ORCA ELECTRIC PROPERTIES CALCULATION
------------------------------------------------------------------------------

Dipole Moment Calculation                       ... on
Quadrupole Moment Calculation                   ... off
Polarizability Calculation                      ... off
GBWName                                         ... ox_es1_E_orca0005.gbw
Electron density                                ... ox_es1_E_orca0005.scfp
The origin for moment calculation is the CENTER OF MASS  = (-0.602893,  0.067019  0.004290)

-------------
DIPOLE MOMENT
-------------
                                X             Y             Z
Electronic contribution:     -0.62482       1.35022       0.06666
Nuclear contribution   :      1.28677      -2.55473      -0.10694
                        -----------------------------------------
Total Dipole Moment    :      0.66195      -1.20451      -0.04028
                        -----------------------------------------
Magnitude (a.u.)       :      1.37500
Magnitude (Debye)      :      3.49498



--------------------
Rotational spectrum 
--------------------
 
Rotational constants in cm-1:     1.195378     0.441280     0.368571 
Rotational constants in MHz : 35836.536335 13229.228841 11049.495458 

 Dipole components along the rotational axes: 
x,y,z [a.u.] :    -1.295786    -0.459694     0.016016 
x,y,z [Debye]:    -3.293625    -1.168449     0.040711 

 

                        *** CIS RELAXED DENSITY ***

------------------------------------------------------------------------------
                       ORCA ELECTRIC PROPERTIES CALCULATION
------------------------------------------------------------------------------

Dipole Moment Calculation                       ... on
Quadrupole Moment Calculation                   ... off
Polarizability Calculation                      ... off
GBWName                                         ... ox_es1_E_orca0005.gbw
Electron density                                ... ox_es1_E_orca0005.cisp
The origin for moment calculation is the CENTER OF MASS  = (-0.602893,  0.067019  0.004290)

-------------
DIPOLE MOMENT
-------------
                                X             Y             Z
Electronic contribution:     -1.24709       1.68398       0.07741
Nuclear contribution   :      1.28677      -2.55473      -0.10694
                        -----------------------------------------
Total Dipole Moment    :      0.03968      -0.87075      -0.02953
                        -----------------------------------------
Magnitude (a.u.)       :      0.87215
Magnitude (Debye)      :      2.21683



--------------------
Rotational spectrum 
--------------------
 
Rotational constants in cm-1:     1.195378     0.441280     0.368571 
Rotational constants in MHz : 35836.536335 13229.228841 11049.495458 

 Dipole components along the rotational axes: 
x,y,z [a.u.] :    -0.609208    -0.624104    -0.001726 
x,y,z [Debye]:    -1.548484    -1.586347    -0.004388 

 

Timings for individual modules:

Sum of individual times         ...        9.044 sec (=   0.151 min)
GTO integral calculation        ...        0.260 sec (=   0.004 min)   2.9 %
SCF iterations                  ...        1.396 sec (=   0.023 min)  15.4 %
CIS module                      ...        0.839 sec (=   0.014 min)   9.3 %
SCF Gradient evaluation         ...        6.550 sec (=   0.109 min)  72.4 %
                             ****ORCA TERMINATED NORMALLY****
TOTAL RUN TIME: 0 days 0 hours 0 minutes 9 seconds 418 msec
