
                                 *****************
                                 * O   R   C   A *
                                 *****************

                                            #,                                       
                                            ###                                      
                                            ####                                     
                                            #####                                    
                                            ######                                   
                                           ########,                                 
                                     ,,################,,,,,                         
                               ,,#################################,,                 
                          ,,##########################################,,             
                       ,#########################################, ''#####,          
                    ,#############################################,,   '####,        
                  ,##################################################,,,,####,       
                ,###########''''           ''''###############################       
              ,#####''   ,,,,##########,,,,          '''####'''          '####       
            ,##' ,,,,###########################,,,                        '##       
           ' ,,###''''                  '''############,,,                           
         ,,##''                                '''############,,,,        ,,,,,,###''
      ,#''                                            '''#######################'''  
     '                                                          ''''####''''         
             ,#######,   #######,   ,#######,      ##                                
            ,#'     '#,  ##    ##  ,#'     '#,    #''#        ######   ,####,        
            ##       ##  ##   ,#'  ##            #'  '#       #        #'  '#        
            ##       ##  #######   ##           ,######,      #####,   #    #        
            '#,     ,#'  ##    ##  '#,     ,#' ,#      #,         ##   #,  ,#        
             '#######'   ##     ##  '#######'  #'      '#     #####' # '####'        



                  #######################################################
                  #                        -***-                        #
                  #          Department of theory and spectroscopy      #
                  #    Directorship and core code : Frank Neese         #
                  #        Max Planck Institute fuer Kohlenforschung    #
                  #                Kaiser Wilhelm Platz 1               #
                  #                 D-45470 Muelheim/Ruhr               #
                  #                      Germany                        #
                  #                                                     #
                  #                  All rights reserved                #
                  #                        -***-                        #
                  #######################################################


                         Program Version 5.0.2 -  RELEASE  -


 With contributions from (in alphabetic order):
   Daniel Aravena         : Magnetic Suceptibility
   Michael Atanasov       : Ab Initio Ligand Field Theory (pilot matlab implementation)
   Alexander A. Auer      : GIAO ZORA, VPT2 properties, NMR spectrum
   Ute Becker             : Parallelization
   Giovanni Bistoni       : ED, misc. LED, open-shell LED, HFLD
   Martin Brehm           : Molecular dynamics
   Dmytro Bykov           : SCF Hessian
   Vijay G. Chilkuri      : MRCI spin determinant printing, contributions to CSF-ICE
   Dipayan Datta          : RHF DLPNO-CCSD density
   Achintya Kumar Dutta   : EOM-CC, STEOM-CC
   Dmitry Ganyushin       : Spin-Orbit,Spin-Spin,Magnetic field MRCI
   Miquel Garcia          : C-PCM and meta-GGA Hessian, CC/C-PCM, Gaussian charge scheme
   Yang Guo               : DLPNO-NEVPT2, F12-NEVPT2, CIM, IAO-localization
   Andreas Hansen         : Spin unrestricted coupled pair/coupled cluster methods
   Benjamin Helmich-Paris : MC-RPA, TRAH-SCF, COSX integrals
   Lee Huntington         : MR-EOM, pCC
   Robert Izsak           : Overlap fitted RIJCOSX, COSX-SCS-MP3, EOM
   Marcus Kettner         : VPT2
   Christian Kollmar      : KDIIS, OOCD, Brueckner-CCSD(T), CCSD density, CASPT2, CASPT2-K
   Simone Kossmann        : Meta GGA functionals, TD-DFT gradient, OOMP2, MP2 Hessian
   Martin Krupicka        : Initial AUTO-CI
   Lucas Lang             : DCDCAS
   Marvin Lechner         : AUTO-CI (C++ implementation), FIC-MRCC
   Dagmar Lenk            : GEPOL surface, SMD
   Dimitrios Liakos       : Extrapolation schemes; Compound Job, initial MDCI parallelization
   Dimitrios Manganas     : Further ROCIS development; embedding schemes
   Dimitrios Pantazis     : SARC Basis sets
   Anastasios Papadopoulos: AUTO-CI, single reference methods and gradients
   Taras Petrenko         : DFT Hessian,TD-DFT gradient, ASA, ECA, R-Raman, ABS, FL, XAS/XES, NRVS
   Peter Pinski           : DLPNO-MP2, DLPNO-MP2 Gradient
   Christoph Reimann      : Effective Core Potentials
   Marius Retegan         : Local ZFS, SOC
   Christoph Riplinger    : Optimizer, TS searches, QM/MM, DLPNO-CCSD(T), (RO)-DLPNO pert. Triples
   Tobias Risthaus        : Range-separated hybrids, TD-DFT gradient, RPA, STAB
   Michael Roemelt        : Original ROCIS implementation
   Masaaki Saitow         : Open-shell DLPNO-CCSD energy and density
   Barbara Sandhoefer     : DKH picture change effects
   Avijit Sen             : IP-ROCIS
   Kantharuban Sivalingam : CASSCF convergence, NEVPT2, FIC-MRCI
   Bernardo de Souza      : ESD, SOC TD-DFT
   Georgi Stoychev        : AutoAux, RI-MP2 NMR, DLPNO-MP2 response
   Willem Van den Heuvel  : Paramagnetic NMR
   Boris Wezisla          : Elementary symmetry handling
   Frank Wennmohs         : Technical directorship


 We gratefully acknowledge several colleagues who have allowed us to
 interface, adapt or use parts of their codes:
   Stefan Grimme, W. Hujo, H. Kruse, P. Pracht,  : VdW corrections, initial TS optimization,
                  C. Bannwarth, S. Ehlert          DFT functionals, gCP, sTDA/sTD-DF
   Ed Valeev, F. Pavosevic, A. Kumar             : LibInt (2-el integral package), F12 methods
   Garnet Chan, S. Sharma, J. Yang, R. Olivares  : DMRG
   Ulf Ekstrom                                   : XCFun DFT Library
   Mihaly Kallay                                 : mrcc  (arbitrary order and MRCC methods)
   Jiri Pittner, Ondrej Demel                    : Mk-CCSD
   Frank Weinhold                                : gennbo (NPA and NBO analysis)
   Christopher J. Cramer and Donald G. Truhlar   : smd solvation model
   Lars Goerigk                                  : TD-DFT with DH, B97 family of functionals
   V. Asgeirsson, H. Jonsson                     : NEB implementation
   FAccTs GmbH                                   : IRC, NEB, NEB-TS, DLPNO-Multilevel, CI-OPT
                                                   MM, QMMM, 2- and 3-layer-ONIOM, Crystal-QMMM,
                                                   LR-CPCM, SF, NACMEs, symmetry and pop. for TD-DFT,
                                                   nearIR, NL-DFT gradient (VV10), updates on ESD,
                                                   ML-optimized integration grids
   S Lehtola, MJT Oliveira, MAL Marques          : LibXC Library
   Liviu Ungur et al                             : ANISO software


 Your calculation uses the libint2 library for the computation of 2-el integrals
 For citations please refer to: http://libint.valeyev.net

 Your ORCA version has been built with support for libXC version: 5.1.0
 For citations please refer to: https://tddft.org/programs/libxc/

 This ORCA versions uses:
   CBLAS   interface :  Fast vector & matrix operations
   LAPACKE interface :  Fast linear algebra routines
   SCALAPACK package :  Parallel linear algebra routines
   Shared memory     :  Shared parallel matrices
   BLAS/LAPACK       :  OpenBLAS 0.3.15  USE64BITINT DYNAMIC_ARCH NO_AFFINITY SkylakeX SINGLE_THREADED
        Core in use  :  SkylakeX
   Copyright (c) 2011-2014, The OpenBLAS Project


Your calculation utilizes the atom-pairwise dispersion correction
with the Becke-Johnson damping scheme (D3BJ)
Cite in your paper:
S.Grimme, S.Ehrlich, L.Goerigk, J Comput Chem, (2011), 32, 1456–1465 
S.Grimme, J.Antony, S.Ehrlich and H.Krieg, J.Chem.Phys., 132, (2010), 154104 
   

================================================================================

----- Orbital basis set information -----
Your calculation utilizes the basis: def2-TZVP
   F. Weigend and R. Ahlrichs, Phys. Chem. Chem. Phys. 7, 3297 (2005).

----- AuxJ basis set information -----
Your calculation utilizes the auxiliary basis: def2/J
   F. Weigend, Phys. Chem. Chem. Phys. 8, 1057 (2006).

================================================================================
                                        WARNINGS
                       Please study these warnings very carefully!
================================================================================

INFO   : Checking CIS options ...

WARNING: CIS/ROCIS methods need fully converged wavefunctions
  ===> : Setting SCFConvForced true
         You can overwrite this default with %scf ConvForced false 


INFO   : the flag for use of the SHARK integral package has been found!

================================================================================
                                       INPUT FILE
================================================================================
NAME = ox_es1_A_orca0032.inp
|  1> ! engrad PBE0 D3BJ def2-TZVP  
|  2> %pal nprocs 8 end
|  3> %maxcore 3000
|  4> 
|  5> %tddft
|  6>   nroots 1
|  7>   tda true
|  8>   Iroot 1
|  9>   end 
| 10> *xyz 0 1 
| 11> O   -0.01713432970401744 0.7483522667002105 -0.07037547473589106
| 12> C   -0.7677804243795437 -0.5025492822732914 0.08761352217118114
| 13> C   0.775673459657373 -0.38344273525029204 0.03608360320216176
| 14> H   -1.3202755185608614 -0.6944968233139887 0.9444449480613959
| 15> H   -1.3249291604445972 -0.6326209884913806 -0.9319924899079067
| 16> H   1.24508177962252 -0.6327228615898255 -0.897763054425698
| 17> H   1.245774561709046 -0.6103043198317876 0.8659230036200051
| 18> *
| 19> 
| 20>                          ****END OF INPUT****
================================================================================

                     *******************************
                     * Energy+Gradient Calculation *
                     *******************************

---------------------------------
CARTESIAN COORDINATES (ANGSTROEM)
---------------------------------
  O     -0.017134    0.748352   -0.070375
  C     -0.767780   -0.502549    0.087614
  C      0.775673   -0.383443    0.036084
  H     -1.320276   -0.694497    0.944445
  H     -1.324929   -0.632621   -0.931992
  H      1.245082   -0.632723   -0.897763
  H      1.245775   -0.610304    0.865923

----------------------------
CARTESIAN COORDINATES (A.U.)
----------------------------
  NO LB      ZA    FRAG     MASS         X           Y           Z
   0 O     8.0000    0    15.999   -0.032379    1.414181   -0.132990
   1 C     6.0000    0    12.011   -1.450895   -0.949681    0.165566
   2 C     6.0000    0    12.011    1.465810   -0.724602    0.068188
   3 H     1.0000    0     1.008   -2.494959   -1.312409    1.784742
   4 H     1.0000    0     1.008   -2.503753   -1.195480   -1.761211
   5 H     1.0000    0     1.008    2.352864   -1.195673   -1.696526
   6 H     1.0000    0     1.008    2.354173   -1.153308    1.636357

--------------------------------
INTERNAL COORDINATES (ANGSTROEM)
--------------------------------
 O      0   0   0     0.000000000000     0.00000000     0.00000000
 C      1   0   0     1.467373424804     0.00000000     0.00000000
 C      1   2   0     1.385942874937    65.68236618     0.00000000
 H      2   1   3     1.037426999841   121.27117409   112.96259082
 H      2   1   3     1.169157723631   104.16537221   246.69880605
 H      3   1   2     1.074501899581   111.87575924   108.81347726
 H      3   1   2     0.980354351852   121.89043392   256.97001382

---------------------------
INTERNAL COORDINATES (A.U.)
---------------------------
 O      0   0   0     0.000000000000     0.00000000     0.00000000
 C      1   0   0     2.772933909073     0.00000000     0.00000000
 C      1   2   0     2.619052470890    65.68236618     0.00000000
 H      2   1   3     1.960452913635   121.27117409   112.96259082
 H      2   1   3     2.209387905021   104.16537221   246.69880605
 H      3   1   2     2.030514320586   111.87575924   108.81347726
 H      3   1   2     1.852601239198   121.89043392   256.97001382

---------------------
BASIS SET INFORMATION
---------------------
There are 3 groups of distinct atoms

 Group   1 Type O   : 11s6p2d1f contracted to 5s3p2d1f pattern {62111/411/11/1}
 Group   2 Type C   : 11s6p2d1f contracted to 5s3p2d1f pattern {62111/411/11/1}
 Group   3 Type H   : 5s1p contracted to 3s1p pattern {311/1}

Atom   0O    basis set group =>   1
Atom   1C    basis set group =>   2
Atom   2C    basis set group =>   2
Atom   3H    basis set group =>   3
Atom   4H    basis set group =>   3
Atom   5H    basis set group =>   3
Atom   6H    basis set group =>   3
---------------------------------
AUXILIARY/J BASIS SET INFORMATION
---------------------------------
There are 3 groups of distinct atoms

 Group   1 Type O   : 12s5p4d2f1g contracted to 6s4p3d1f1g pattern {711111/2111/211/2/1}
 Group   2 Type C   : 12s5p4d2f1g contracted to 6s4p3d1f1g pattern {711111/2111/211/2/1}
 Group   3 Type H   : 5s2p1d contracted to 3s1p1d pattern {311/2/1}

Atom   0O    basis set group =>   1
Atom   1C    basis set group =>   2
Atom   2C    basis set group =>   2
Atom   3H    basis set group =>   3
Atom   4H    basis set group =>   3
Atom   5H    basis set group =>   3
Atom   6H    basis set group =>   3

Checking for AutoStart:
The File: ox_es1_A_orca0032.gbw exists
Trying to determine its content:
     ... Fine, the file contains calculation information
     ... Fine, the calculation information was read
     ... Fine, the file contains a basis set
     ... Fine, the basis set was read
     ... Fine, the file contains a geometry
     ... Fine, the geometry was read
     ... Fine, the file contains a set of orbitals
     ... Fine, the orbitals can be read
     => possible old guess file was deleted
     => GBW file was renamed to GES file
     => GES file is set as startup file
     => Guess is set to MORead
     ... now leaving AutoStart



           ************************************************************
           *        Program running with 8 parallel MPI-processes     *
           *              working on a common directory               *
           ************************************************************
------------------------------------------------------------------------------
                           ORCA GTO INTEGRAL CALCULATION
                           -- RI-GTO INTEGRALS CHOSEN --
------------------------------------------------------------------------------
------------------------------------------------------------------------------
                   ___                                                        
                  /   \      - P O W E R E D   B Y -                         
                 /     \                                                     
                 |  |  |   _    _      __       _____    __    __             
                 |  |  |  | |  | |    /  \     |  _  \  |  |  /  |          
                  \  \/   | |  | |   /    \    | | | |  |  | /  /          
                 / \  \   | |__| |  /  /\  \   | |_| |  |  |/  /          
                |  |  |   |  __  | /  /__\  \  |    /   |      \           
                |  |  |   | |  | | |   __   |  |    \   |  |\   \          
                \     /   | |  | | |  |  |  |  | |\  \  |  | \   \       
                 \___/    |_|  |_| |__|  |__|  |_| \__\ |__|  \__/        
                                                                              
                      - O R C A' S   B I G   F R I E N D -                    
                                      &                                       
                       - I N T E G R A L  F E E D E R -                       
                                                                              
 v1 FN, 2020, v2 2021                                                         
------------------------------------------------------------------------------


Reading SHARK input file ox_es1_A_orca0032.SHARKINP.tmp ... ok
----------------------
SHARK INTEGRAL PACKAGE
----------------------

Number of atoms                             ...      7
Number of basis functions                   ...    117
Number of shells                            ...     49
Maximum angular momentum                    ...      3
Integral batch strategy                     ... SHARK/LIBINT Hybrid
RI-J (if used) integral strategy            ... SPLIT-RIJ (Revised 2003 algorithm where possible)
Printlevel                                  ...      1
Contraction scheme used                     ... SEGMENTED contraction
Coulomb Range Separation                    ... NOT USED
Exchange Range Separation                   ... NOT USED
Finite Nucleus Model                        ... NOT USED
Auxiliary Coulomb fitting basis             ... AVAILABLE
   # of basis functions in Aux-J            ...    191
   # of shells in Aux-J                     ...     65
   Maximum angular momentum in Aux-J        ...      4
Auxiliary J/K fitting basis                 ... NOT available
Auxiliary Correlation fitting basis         ... NOT available
Auxiliary 'external' fitting basis          ... NOT available
Integral threshold                          ...     2.500000e-11
Primitive cut-off                           ...     2.500000e-12
Primitive pair pre-selection threshold      ...     2.500000e-12

Calculating pre-screening integrals         ... done (  0.0 sec) Dimension = 49
Organizing shell pair data                  ... done (  0.0 sec)
Shell pair information
Total number of shell pairs                 ...      1225
Shell pairs after pre-screening             ...      1220
Total number of primitive shell pairs       ...      3648
Primitive shell pairs kept                  ...      3150
          la=0 lb=0:    373 shell pairs
          la=1 lb=0:    351 shell pairs
          la=1 lb=1:     91 shell pairs
          la=2 lb=0:    162 shell pairs
          la=2 lb=1:     78 shell pairs
          la=2 lb=2:     21 shell pairs
          la=3 lb=0:     81 shell pairs
          la=3 lb=1:     39 shell pairs
          la=3 lb=2:     18 shell pairs
          la=3 lb=3:      6 shell pairs

Calculating one electron integrals          ... done (  0.0 sec)
Calculating RI/J V-Matrix + Cholesky decomp.... done (  0.0 sec)
Calculating Nuclear repulsion               ... done (  0.0 sec) ENN=     74.926423882822 Eh

SHARK setup successfully completed in   0.1 seconds

Maximum memory used throughout the entire GTOINT-calculation: 14.9 MB


           ************************************************************
           *        Program running with 8 parallel MPI-processes     *
           *              working on a common directory               *
           ************************************************************
-------------------------------------------------------------------------------
                                 ORCA SCF
-------------------------------------------------------------------------------

------------
SCF SETTINGS
------------
Hamiltonian:
 Density Functional     Method          .... DFT(GTOs)
 Exchange Functional    Exchange        .... PBE
   PBE kappa parameter   XKappa         ....  0.804000
   PBE mue parameter    XMuePBE         ....  0.219520
 Correlation Functional Correlation     .... PBE
   PBE beta parameter  CBetaPBE         ....  0.066725
 LDA part of GGA corr.  LDAOpt          .... PW91-LDA
 Gradients option       PostSCFGGA      .... off
 Hybrid DFT is turned on
   Fraction HF Exchange ScalHFX         ....  0.250000
   Scaling of DF-GGA-X  ScalDFX         ....  0.750000
   Scaling of DF-GGA-C  ScalDFC         ....  1.000000
   Scaling of DF-LDA-C  ScalLDAC        ....  1.000000
   Perturbative correction              ....  0.000000
   Density functional embedding theory  .... OFF
   NL short-range parameter             ....  6.900000
 RI-approximation to the Coulomb term is turned on
   Number of AuxJ basis functions       .... 191
   RIJ-COSX (HFX calculated with COS-X)).... on


General Settings:
 Integral files         IntName         .... ox_es1_A_orca0032
 Hartree-Fock type      HFTyp           .... RHF
 Total Charge           Charge          ....    0
 Multiplicity           Mult            ....    1
 Number of Electrons    NEL             ....   24
 Basis Dimension        Dim             ....  117
 Nuclear Repulsion      ENuc            ....     74.9264238828 Eh

Convergence Acceleration:
 DIIS                   CNVDIIS         .... on
   Start iteration      DIISMaxIt       ....    12
   Startup error        DIISStart       ....  0.200000
   # of expansion vecs  DIISMaxEq       ....     5
   Bias factor          DIISBfac        ....   1.050
   Max. coefficient     DIISMaxC        ....  10.000
 Trust-Rad. Augm. Hess. CNVTRAH         .... auto
   Auto Start mean grad. ratio tolernc. ....  1.125000
   Auto Start start iteration           ....     1
   Auto Start num. interpolation iter.  ....    10
   Max. Number of Micro iterations      ....    16
   Max. Number of Macro iterations      .... Maxiter - #DIIS iter
   Number of Davidson start vectors     ....     2
   Converg. threshold I  (grad. norm)   ....   1.000e-05
   Converg. threshold II (energy diff.) ....   1.000e-08
   Grad. Scal. Fac. for Micro threshold ....   0.100
   Minimum threshold for Micro iter.    ....   0.010
   NR start threshold (gradient norm)   ....   0.001
   Initial trust radius                 ....   0.400
   Minimum AH scaling param. (alpha)    ....   1.000
   Maximum AH scaling param. (alpha)    .... 1000.000
   Orbital update algorithm             .... Taylor
   White noise on init. David. guess    .... on
   Maximum white noise                  ....   0.010
   Quad. conv. algorithm                .... NR
 SOSCF                  CNVSOSCF        .... on
   Start iteration      SOSCFMaxIt      ....   150
   Startup grad/error   SOSCFStart      ....  0.003300
 Level Shifting         CNVShift        .... on
   Level shift para.    LevelShift      ....    0.2500
   Turn off err/grad.   ShiftErr        ....    0.0010
 Zerner damping         CNVZerner       .... off
 Static damping         CNVDamp         .... on
   Fraction old density DampFac         ....    0.7000
   Max. Damping (<1)    DampMax         ....    0.9800
   Min. Damping (>=0)   DampMin         ....    0.0000
   Turn off err/grad.   DampErr         ....    0.1000
 Fernandez-Rico         CNVRico         .... off

SCF Procedure:
 Maximum # iterations   MaxIter         ....   125
 SCF integral mode      SCFMode         .... Direct
   Integral package                     .... SHARK and LIBINT hybrid scheme
 Reset frequency        DirectResetFreq ....    20
 Integral Threshold     Thresh          ....  2.500e-11 Eh
 Primitive CutOff       TCut            ....  2.500e-12 Eh

Convergence Tolerance:
 Convergence Check Mode ConvCheckMode   .... Total+1el-Energy
 Convergence forced     ConvForced      .... 1
 Energy Change          TolE            ....  1.000e-08 Eh
 1-El. energy change                    ....  1.000e-05 Eh
 Orbital Gradient       TolG            ....  1.000e-05
 Orbital Rotation angle TolX            ....  1.000e-05
 DIIS Error             TolErr          ....  5.000e-07


Diagonalization of the overlap matrix:
Smallest eigenvalue                        ... 6.391e-04
Time for diagonalization                   ...    0.001 sec
Threshold for overlap eigenvalues          ... 1.000e-08
Number of eigenvalues below threshold      ... 0
Time for construction of square roots      ...    0.001 sec
Total time needed                          ...    0.003 sec

---------------------
INITIAL GUESS: MOREAD
---------------------
Guess MOs are being read from file: ox_es1_A_orca0032.ges
Input Geometry matches current geometry (good)
Input basis set matches current basis set (good)
MOs were renormalized
MOs were reorthogonalized (Cholesky)
                      ------------------
                      INITIAL GUESS DONE (   0.0 sec)
                      ------------------
-------------------
DFT GRID GENERATION
-------------------

General Integration Accuracy     IntAcc      ... 4.388
Radial Grid Type                 RadialGrid  ... OptM3 with GC (2021)
Angular Grid (max. ang.)         AngularGrid ... 4 (Lebedev-302)
Angular grid pruning method      GridPruning ... 4 (adaptive)
Weight generation scheme         WeightScheme... Becke
Basis function cutoff            BFCut       ... 1.0000e-11
Integration weight cutoff        WCut        ... 1.0000e-14
Angular grids for H and He will be reduced by one unit
Partially contracted basis set               ... off
Rotationally invariant grid construction     ... off

Total number of grid points                  ...    31314
Total number of batches                      ...      493
Average number of points per batch           ...       63
Average number of grid points per atom       ...     4473
Time for grid setup =    0.117 sec

--------------------
COSX GRID GENERATION
--------------------

GRIDX 1
-------
General Integration Accuracy     IntAcc      ... 3.816
Radial Grid Type                 RadialGrid  ... OptM3 with GC (2021)
Angular Grid (max. ang.)         AngularGrid ... 1 (Lebedev-50)
Angular grid pruning method      GridPruning ... 4 (adaptive)
Weight generation scheme         WeightScheme... Becke
Basis function cutoff            BFCut       ... 1.0000e-11
Integration weight cutoff        WCut        ... 1.0000e-14
Angular grids for H and He will be reduced by one unit
Partially contracted basis set               ... on
Rotationally invariant grid construction     ... off

Total number of grid points                  ...     4037
Total number of batches                      ...       67
Average number of points per batch           ...       60
Average number of grid points per atom       ...      577
UseSFitting                                  ... on

GRIDX 2
-------
General Integration Accuracy     IntAcc      ... 4.020
Radial Grid Type                 RadialGrid  ... OptM3 with GC (2021)
Angular Grid (max. ang.)         AngularGrid ... 2 (Lebedev-110)
Angular grid pruning method      GridPruning ... 4 (adaptive)
Weight generation scheme         WeightScheme... Becke
Basis function cutoff            BFCut       ... 1.0000e-11
Integration weight cutoff        WCut        ... 1.0000e-14
Angular grids for H and He will be reduced by one unit
Partially contracted basis set               ... on
Rotationally invariant grid construction     ... off

Total number of grid points                  ...     8721
Total number of batches                      ...      139
Average number of points per batch           ...       62
Average number of grid points per atom       ...     1246
UseSFitting                                  ... on

GRIDX 3
-------
General Integration Accuracy     IntAcc      ... 4.338
Radial Grid Type                 RadialGrid  ... OptM3 with GC (2021)
Angular Grid (max. ang.)         AngularGrid ... 3 (Lebedev-194)
Angular grid pruning method      GridPruning ... 4 (adaptive)
Weight generation scheme         WeightScheme... Becke
Basis function cutoff            BFCut       ... 1.0000e-11
Integration weight cutoff        WCut        ... 1.0000e-14
Angular grids for H and He will be reduced by one unit
Partially contracted basis set               ... on
Rotationally invariant grid construction     ... off

Total number of grid points                  ...    19238
Total number of batches                      ...      304
Average number of points per batch           ...       63
Average number of grid points per atom       ...     2748
UseSFitting                                  ... on

Time for X-Grid setup             =    0.072 sec

--------------
SCF ITERATIONS
--------------
ITER       Energy         Delta-E        Max-DP      RMS-DP      [F,P]     Damp
               ***  Starting incremental Fock matrix formation  ***
                      *** Initiating the SOSCF procedure ***
                      *** Re-Reading the Fockian *** 
                      *** Removing any level shift *** 
ITER      Energy       Delta-E        Grad      Rot      Max-DP    RMS-DP
  0   -153.64799692 -153.6479969232  0.000001  0.000001  0.000001  0.000000
               *** Restarting incremental Fock matrix formation ***
                  ***Gradient check signals convergence***
              ***Rediagonalizing the Fockian in SOSCF/NRSCF***

               *****************************************************
               *                     SUCCESS                       *
               *           SCF CONVERGED AFTER   1 CYCLES          *
               *****************************************************

Old exchange energy                            =     -4.998443264 Eh
New exchange energy                            =     -4.998446257 Eh
Exchange energy change after final integration =     -0.000002994 Eh
Total energy after final integration           =   -153.647999917 Eh
Final COS-X integration done in                =     0.258 sec

----------------
TOTAL SCF ENERGY
----------------

Total Energy       :         -153.64799992 Eh           -4180.97463 eV

Components:
Nuclear Repulsion  :           74.92642388 Eh            2038.85165 eV
Electronic Energy  :         -228.57442380 Eh           -6219.82628 eV
One Electron Energy:         -356.48715768 Eh           -9700.50872 eV
Two Electron Energy:          127.91273388 Eh            3480.68244 eV
Max COSX asymmetry :            0.00000172 Eh               0.00005 eV

Virial components:
Potential Energy   :         -306.66283936 Eh           -8344.72010 eV
Kinetic Energy     :          153.01483944 Eh            4163.74546 eV
Virial Ratio       :            2.00413790


DFT components:
N(Alpha)           :       12.000000000096 electrons
N(Beta)            :       12.000000000096 electrons
N(Total)           :       24.000000000191 electrons
E(X)               :      -14.966376753692 Eh       
E(C)               :       -0.789567222769 Eh       
E(XC)              :      -15.755943976461 Eh       
DFET-embed. en.    :        0.000000000000 Eh       

---------------
SCF CONVERGENCE
---------------

  Last Energy change         ...   -2.1600e-11  Tolerance :   1.0000e-08
  Last MAX-Density change    ...    1.7764e-15  Tolerance :   1.0000e-07
  Last RMS-Density change    ...    3.3875e-17  Tolerance :   5.0000e-09
  Last Orbital Gradient      ...    4.2632e-07  Tolerance :   1.0000e-05
  Last Orbital Rotation      ...    7.5552e-07  Tolerance :   1.0000e-05

             **** THE GBW FILE WAS UPDATED (ox_es1_A_orca0032.gbw) ****
             **** DENSITY ox_es1_A_orca0032.scfp WAS UPDATED ****
             **** ENERGY FILE WAS UPDATED (ox_es1_A_orca0032.en.tmp) ****
             **** THE GBW FILE WAS UPDATED (ox_es1_A_orca0032.gbw) ****
             **** DENSITY ox_es1_A_orca0032.scfp WAS UPDATED ****
----------------
ORBITAL ENERGIES
----------------

  NO   OCC          E(Eh)            E(eV) 
   0   2.0000     -19.222514      -523.0712 
   1   2.0000     -10.282666      -279.8056 
   2   2.0000     -10.270147      -279.4649 
   3   2.0000      -1.102057       -29.9885 
   4   2.0000      -0.695277       -18.9194 
   5   2.0000      -0.668092       -18.1797 
   6   2.0000      -0.533007       -14.5039 
   7   2.0000      -0.495506       -13.4834 
   8   2.0000      -0.440515       -11.9870 
   9   2.0000      -0.393646       -10.7117 
  10   2.0000      -0.315136        -8.5753 
  11   2.0000      -0.287965        -7.8359 
  12   0.0000       0.059611         1.6221 
  13   0.0000       0.068411         1.8615 
  14   0.0000       0.078527         2.1368 
  15   0.0000       0.108376         2.9491 
  16   0.0000       0.111855         3.0437 
  17   0.0000       0.151887         4.1331 
  18   0.0000       0.192868         5.2482 
  19   0.0000       0.207784         5.6541 
  20   0.0000       0.265718         7.2305 
  21   0.0000       0.269468         7.3326 
  22   0.0000       0.291733         7.9385 
  23   0.0000       0.330383         8.9902 
  24   0.0000       0.374005        10.1772 
  25   0.0000       0.381419        10.3789 
  26   0.0000       0.409496        11.1430 
  27   0.0000       0.420461        11.4413 
  28   0.0000       0.455449        12.3934 
  29   0.0000       0.475861        12.9488 
  30   0.0000       0.500077        13.6078 
  31   0.0000       0.533936        14.5291 
  32   0.0000       0.551701        15.0125 
  33   0.0000       0.696963        18.9653 
  34   0.0000       0.709281        19.3005 
  35   0.0000       0.730442        19.8763 
  36   0.0000       0.829503        22.5719 
  37   0.0000       0.836158        22.7530 
  38   0.0000       0.904062        24.6008 
  39   0.0000       0.938958        25.5503 
  40   0.0000       1.009870        27.4800 
  41   0.0000       1.017382        27.6844 
  42   0.0000       1.053037        28.6546 
  43   0.0000       1.071690        29.1622 
  44   0.0000       1.146022        31.1849 
  45   0.0000       1.349549        36.7231 
  46   0.0000       1.451367        39.4937 
  47   0.0000       1.491071        40.5741 
  48   0.0000       1.507235        41.0140 
  49   0.0000       1.523387        41.4535 
  50   0.0000       1.605751        43.6947 
  51   0.0000       1.622832        44.1595 
  52   0.0000       1.661461        45.2107 
  53   0.0000       1.707442        46.4619 
  54   0.0000       1.787495        48.6402 
  55   0.0000       1.802550        49.0499 
  56   0.0000       1.855761        50.4978 
  57   0.0000       1.903667        51.8014 
  58   0.0000       1.927239        52.4428 
  59   0.0000       1.952682        53.1352 
  60   0.0000       2.144703        58.3603 
  61   0.0000       2.164061        58.8871 
  62   0.0000       2.201085        59.8946 
  63   0.0000       2.228832        60.6496 
  64   0.0000       2.252798        61.3017 
  65   0.0000       2.423795        65.9548 
  66   0.0000       2.459286        66.9206 
  67   0.0000       2.474527        67.3353 
  68   0.0000       2.537455        69.0477 
  69   0.0000       2.587408        70.4070 
  70   0.0000       2.639034        71.8118 
  71   0.0000       2.680693        72.9454 
  72   0.0000       2.687236        73.1234 
  73   0.0000       2.749365        74.8140 
  74   0.0000       2.765070        75.2414 
  75   0.0000       2.829903        77.0056 
  76   0.0000       2.885252        78.5117 
  77   0.0000       2.938619        79.9639 
  78   0.0000       2.996407        81.5364 
  79   0.0000       3.020570        82.1939 
  80   0.0000       3.047067        82.9149 
  81   0.0000       3.086452        83.9866 
  82   0.0000       3.139644        85.4341 
  83   0.0000       3.248380        88.3929 
  84   0.0000       3.282145        89.3117 
  85   0.0000       3.292289        89.5877 
  86   0.0000       3.380678        91.9929 
  87   0.0000       3.422954        93.1433 
  88   0.0000       3.555666        96.7546 
  89   0.0000       3.597430        97.8910 
  90   0.0000       3.644668        99.1765 
  91   0.0000       3.713395       101.0466 
  92   0.0000       3.808298       103.6291 
  93   0.0000       3.967881       107.9715 
  94   0.0000       4.047842       110.1474 
  95   0.0000       4.063916       110.5848 
  96   0.0000       4.275272       116.3361 
  97   0.0000       4.299739       117.0018 
  98   0.0000       4.411674       120.0478 
  99   0.0000       4.601361       125.2094 
 100   0.0000       4.693054       127.7045 
 101   0.0000       4.875495       132.6690 
 102   0.0000       5.322909       144.8437 
 103   0.0000       5.469505       148.8328 
 104   0.0000       5.680547       154.5755 
 105   0.0000       5.795534       157.7045 
 106   0.0000       5.857800       159.3989 
 107   0.0000       5.881898       160.0546 
 108   0.0000       6.070217       165.1790 
 109   0.0000       6.642343       180.7473 
 110   0.0000       6.661916       181.2800 
 111   0.0000       6.792648       184.8373 
 112   0.0000       6.965358       189.5370 
 113   0.0000       7.195804       195.8078 
 114   0.0000      22.214591       604.4898 
 115   0.0000      22.559027       613.8623 
 116   0.0000      43.866425      1193.6661 

                    ********************************
                    * MULLIKEN POPULATION ANALYSIS *
                    ********************************

-----------------------
MULLIKEN ATOMIC CHARGES
-----------------------
   0 O :   -0.306352
   1 C :   -0.126933
   2 C :   -0.042762
   3 H :    0.136051
   4 H :    0.123865
   5 H :    0.103318
   6 H :    0.112813
Sum of atomic charges:    0.0000000

--------------------------------
MULLIKEN REDUCED ORBITAL CHARGES
--------------------------------
  0 O s       :     3.848323  s :     3.848323
      pz      :     1.832072  p :     4.412351
      px      :     1.289986
      py      :     1.290294
      dz2     :     0.005587  d :     0.043531
      dxz     :     0.003164
      dyz     :     0.006798
      dx2y2   :     0.012207
      dxy     :     0.015775
      f0      :     0.000269  f :     0.002146
      f+1     :     0.000209
      f-1     :     0.000430
      f+2     :     0.000086
      f-2     :     0.000250
      f+3     :     0.000322
      f-3     :     0.000581
  1 C s       :     3.256162  s :     3.256162
      pz      :     1.049968  p :     2.760231
      px      :     0.906065
      py      :     0.804198
      dz2     :     0.007903  d :     0.099752
      dxz     :     0.023842
      dyz     :     0.025968
      dx2y2   :     0.025648
      dxy     :     0.016390
      f0      :     0.001386  f :     0.010789
      f+1     :     0.001440
      f-1     :     0.000591
      f+2     :     0.001230
      f-2     :     0.001472
      f+3     :     0.002204
      f-3     :     0.002466
  2 C s       :     3.209109  s :     3.209109
      pz      :     1.037638  p :     2.709025
      px      :     0.877722
      py      :     0.793665
      dz2     :     0.006641  d :     0.112710
      dxz     :     0.026163
      dyz     :     0.030156
      dx2y2   :     0.029526
      dxy     :     0.020223
      f0      :     0.001643  f :     0.011919
      f+1     :     0.001541
      f-1     :     0.000690
      f+2     :     0.000854
      f-2     :     0.002016
      f+3     :     0.002327
      f-3     :     0.002847
  3 H s       :     0.840926  s :     0.840926
      pz      :     0.010836  p :     0.023022
      px      :     0.007582
      py      :     0.004604
  4 H s       :     0.857184  s :     0.857184
      pz      :     0.010403  p :     0.018951
      px      :     0.005120
      py      :     0.003429
  5 H s       :     0.874927  s :     0.874927
      pz      :     0.011338  p :     0.021756
      px      :     0.005952
      py      :     0.004466
  6 H s       :     0.862972  s :     0.862972
      pz      :     0.011054  p :     0.024215
      px      :     0.007714
      py      :     0.005448


                     *******************************
                     * LOEWDIN POPULATION ANALYSIS *
                     *******************************

----------------------
LOEWDIN ATOMIC CHARGES
----------------------
   0 O :    0.120682
   1 C :   -0.253822
   2 C :   -0.295955
   3 H :    0.098082
   4 H :    0.134390
   5 H :    0.113042
   6 H :    0.083581

-------------------------------
LOEWDIN REDUCED ORBITAL CHARGES
-------------------------------
  0 O s       :     3.376198  s :     3.376198
      pz      :     1.716080  p :     4.398335
      px      :     1.286017
      py      :     1.396237
      dz2     :     0.011606  d :     0.097928
      dxz     :     0.009317
      dyz     :     0.015234
      dx2y2   :     0.033831
      dxy     :     0.027939
      f0      :     0.000659  f :     0.006858
      f+1     :     0.000320
      f-1     :     0.000837
      f+2     :     0.000178
      f-2     :     0.001078
      f+3     :     0.001225
      f-3     :     0.002561
  1 C s       :     2.859434  s :     2.859434
      pz      :     1.066067  p :     2.928051
      px      :     1.005489
      py      :     0.856496
      dz2     :     0.050933  d :     0.406088
      dxz     :     0.114415
      dyz     :     0.070546
      dx2y2   :     0.091596
      dxy     :     0.078598
      f0      :     0.007896  f :     0.060249
      f+1     :     0.005237
      f-1     :     0.005078
      f+2     :     0.007268
      f-2     :     0.005974
      f+3     :     0.013060
      f-3     :     0.015735
  2 C s       :     2.809722  s :     2.809722
      pz      :     1.069117  p :     2.925488
      px      :     0.993689
      py      :     0.862682
      dz2     :     0.057780  d :     0.484858
      dxz     :     0.123149
      dyz     :     0.094067
      dx2y2   :     0.107177
      dxy     :     0.102684
      f0      :     0.010837  f :     0.075887
      f+1     :     0.006592
      f-1     :     0.006152
      f+2     :     0.005539
      f-2     :     0.010275
      f+3     :     0.016723
      f-3     :     0.019769
  3 H s       :     0.829203  s :     0.829203
      pz      :     0.035519  p :     0.072715
      px      :     0.022567
      py      :     0.014630
  4 H s       :     0.814509  s :     0.814509
      pz      :     0.028970  p :     0.051101
      px      :     0.012901
      py      :     0.009230
  5 H s       :     0.823603  s :     0.823603
      pz      :     0.033781  p :     0.063355
      px      :     0.016144
      py      :     0.013430
  6 H s       :     0.835466  s :     0.835466
      pz      :     0.038658  p :     0.080953
      px      :     0.023782
      py      :     0.018513


                      *****************************
                      * MAYER POPULATION ANALYSIS *
                      *****************************

  NA   - Mulliken gross atomic population
  ZA   - Total nuclear charge
  QA   - Mulliken gross atomic charge
  VA   - Mayer's total valence
  BVA  - Mayer's bonded valence
  FA   - Mayer's free valence

  ATOM       NA         ZA         QA         VA         BVA        FA
  0 O      8.3064     8.0000    -0.3064     1.9852     1.9852     0.0000
  1 C      6.1269     6.0000    -0.1269     3.9280     3.9280     0.0000
  2 C      6.0428     6.0000    -0.0428     4.0028     4.0028     0.0000
  3 H      0.8639     1.0000     0.1361     0.9574     0.9574     0.0000
  4 H      0.8761     1.0000     0.1239     0.9684     0.9684     0.0000
  5 H      0.8967     1.0000     0.1033     0.9621     0.9621     0.0000
  6 H      0.8872     1.0000     0.1128     0.9493     0.9493     0.0000

  Mayer bond orders larger than 0.100000
B(  0-O ,  1-C ) :   0.9550 B(  0-O ,  2-C ) :   1.0224 B(  1-C ,  2-C ) :   1.0493 
B(  1-C ,  3-H ) :   0.9494 B(  1-C ,  4-H ) :   0.9619 B(  2-C ,  5-H ) :   0.9605 
B(  2-C ,  6-H ) :   0.9569 

-------
TIMINGS
-------

Total SCF time: 0 days 0 hours 0 min 0 sec 

Total time                  ....       0.993 sec
Sum of individual times     ....       0.904 sec  ( 91.1%)

Fock matrix formation       ....       0.699 sec  ( 70.4%)
  Split-RI-J                ....       0.114 sec  ( 16.3% of F)
  Chain of spheres X        ....       0.519 sec  ( 74.4% of F)
  XC integration            ....       0.064 sec  (  9.1% of F)
    Basis function eval.    ....       0.018 sec  ( 27.7% of XC)
    Density eval.           ....       0.014 sec  ( 21.8% of XC)
    XC-Functional eval.     ....       0.004 sec  (  5.7% of XC)
    XC-Potential eval.      ....       0.021 sec  ( 33.7% of XC)
Diagonalization             ....       0.002 sec  (  0.2%)
Density matrix formation    ....       0.000 sec  (  0.0%)
Population analysis         ....       0.003 sec  (  0.3%)
Initial guess               ....       0.008 sec  (  0.8%)
Orbital Transformation      ....       0.000 sec  (  0.0%)
Orbital Orthonormalization  ....       0.001 sec  (  0.1%)
DIIS solution               ....       0.001 sec  (  0.1%)
SOSCF solution              ....       0.002 sec  (  0.2%)
Grid generation             ....       0.189 sec  ( 19.0%)

Maximum memory used throughout the entire SCF-calculation: 61.1 MB


           ************************************************************
           *        Program running with 8 parallel MPI-processes     *
           *              working on a common directory               *
           ************************************************************
------------------------------------------------------------------------------
                        ORCA TD-DFT/TDA CALCULATION
------------------------------------------------------------------------------

Input orbitals are from        ... ox_es1_A_orca0032.gbw
CI-vector output               ... ox_es1_A_orca0032.cis
Tamm-Dancoff approximation     ... operative
CIS-Integral strategy          ... AO-integrals
Integral handling              ... AO integral Direct
Max. core memory used          ... 3000 MB
Reference state                ... RHF
Generation of triplets         ... off
Follow IRoot                   ... off
Number of operators            ... 1
Orbital ranges used for CIS calculation:
 Operator 0:  Orbitals   3... 11  to  12...116
XAS localization array:
 Operator 0:  Orbitals  -1... -1

-------------------
XC-INTEGRATION GRID
-------------------

General Integration Accuracy     IntAcc      ... 3.467
Radial Grid Type                 RadialGrid  ... OptM3 with GC (2021)
Angular Grid (max. ang.)         AngularGrid ... 1 (Lebedev-50)
Angular grid pruning method      GridPruning ... 4 (adaptive)
Weight generation scheme         WeightScheme... Becke
Basis function cutoff            BFCut       ... 1.0000e-11
Integration weight cutoff        WCut        ... 1.0000e-14
Angular grids for H and He will be reduced by one unit
Partially contracted basis set               ... off
Rotationally invariant grid construction     ... off

Total number of grid points                  ...     4537
Total number of batches                      ...       75
Average number of points per batch           ...       60
Average number of grid points per atom       ...      648

---------------------
COSX-INTEGRATION GRID
---------------------

General Integration Accuracy     IntAcc      ... 3.067
Radial Grid Type                 RadialGrid  ... OptM3 with GC (2021)
Angular Grid (max. ang.)         AngularGrid ... 1 (Lebedev-50)
Angular grid pruning method      GridPruning ... 4 (adaptive)
Weight generation scheme         WeightScheme... Becke
Basis function cutoff            BFCut       ... 1.0000e-11
Integration weight cutoff        WCut        ... 1.0000e-14
Angular grids for H and He will be reduced by one unit
Partially contracted basis set               ... on
Rotationally invariant grid construction     ... off

Total number of grid points                  ...     2088
Total number of batches                      ...       37
Average number of points per batch           ...       56
Average number of grid points per atom       ...      298

---------------
TD-DFT XC SETUP
---------------

DFT calculation                         ... on
Name of the grid file                   ... ox_es1_A_orca0032.grid_cis.tmp
Exchange functional (TD-DFT)            ... PBE
   PBE kappa parameter  XKappa (TD-DFT) ...  0.804000
   PBE mue parameter   XMuePBE (TD-DFT) ...  0.219520
Correlation functional (TD-DFT)         ... PBE
   PBE beta parameter CBetaPBE (TD-DFT) ...  0.066725
 LDA part of GGA corr.  LDAOpt (TD-DFT) ... PW91-LDA
Hybrid DFT                              ... on
   Exchange mixing (TD-DFT)             ...  0.250
   GGA exch. scaling (TD-DFT)           ...  0.750
   GGA corr. scaling (TD-DFT)           ...  1.000

Building densities             ... done
Calculating rho(r) on the grid ... done
Building xc-kernel on the grid ... done
                    *** TD-DFT CALCULATION INITIALIZED ***

------------------------
DAVIDSON-DIAGONALIZATION
------------------------

Dimension of the eigenvalue problem            ...    945
Number of roots to be determined               ...      1
Maximum size of the expansion space            ...     10
Maximum number of iterations                   ...    100
Convergence tolerance for the residual         ...    2.500e-07
Convergence tolerance for the energies         ...    2.500e-07
Orthogonality tolerance                        ...    1.000e-14
Level Shift                                    ...    0.000e+00
Constructing the preconditioner                ... o.k.
Building the initial guess                     ... o.k.
Number of trial vectors determined             ...     10


                       ****Iteration    0****

   Memory handling for direct AO based CIS:
   Memory per vector needed      ...     1 MB
   Memory needed                 ...     1 MB
   Memory available              ...  3000 MB
   Number of vectors per batch   ...  3000
   Number of batches             ...     1
   Time for densities:            0.001
   Time for RI-J (Direct):        0.016
   Time for K (COSX):             0.055
   Time for XC-Integration:       0.016
   Time for Sigma-Completion:     0.000
   Size of expansion space: 3
   Lowest Energy          :     0.285941174251
   Maximum Energy change  :     0.285941174251 (vector 0)
   Maximum residual norm  :     0.003673488104

                       ****Iteration    1****
   Time for densities:            0.000
   Time for RI-J (Direct):        0.012
   Time for K (COSX):             0.049
   Time for XC-Integration:       0.007
   Time for Sigma-Completion:     0.000
   Size of expansion space: 4
   Lowest Energy          :     0.281465737565
   Maximum Energy change  :     0.004475436686 (vector 0)
   Maximum residual norm  :     0.000781285804

                       ****Iteration    2****
   Time for densities:            0.000
   Time for RI-J (Direct):        0.012
   Time for K (COSX):             0.049
   Time for XC-Integration:       0.007
   Time for Sigma-Completion:     0.000
   Size of expansion space: 5
   Lowest Energy          :     0.279544970551
   Maximum Energy change  :     0.001920767014 (vector 0)
   Maximum residual norm  :     0.000239601451

                       ****Iteration    3****
   Time for densities:            0.000
   Time for RI-J (Direct):        0.012
   Time for K (COSX):             0.049
   Time for XC-Integration:       0.007
   Time for Sigma-Completion:     0.000
   Size of expansion space: 6
   Lowest Energy          :     0.279292152856
   Maximum Energy change  :     0.000252817695 (vector 0)
   Maximum residual norm  :     0.000061275987

                       ****Iteration    4****
   Time for densities:            0.000
   Time for RI-J (Direct):        0.012
   Time for K (COSX):             0.049
   Time for XC-Integration:       0.007
   Time for Sigma-Completion:     0.000
   Size of expansion space: 7
   Lowest Energy          :     0.279231722363
   Maximum Energy change  :     0.000060430493 (vector 0)
   Maximum residual norm  :     0.000006085028

                       ****Iteration    5****
   Time for densities:            0.000
   Time for RI-J (Direct):        0.012
   Time for K (COSX):             0.049
   Time for XC-Integration:       0.007
   Time for Sigma-Completion:     0.000
   Size of expansion space: 8
   Lowest Energy          :     0.279223159940
   Maximum Energy change  :     0.000008562424 (vector 0)
   Maximum residual norm  :     0.000000467196

                       ****Iteration    6****
   Time for densities:            0.000
   Time for RI-J (Direct):        0.012
   Time for K (COSX):             0.049
   Time for XC-Integration:       0.007
   Time for Sigma-Completion:     0.000
   Size of expansion space: 9
   Lowest Energy          :     0.279222445257
   Maximum Energy change  :     0.000000714683 (vector 0)
   Maximum residual norm  :     0.000000095743

      *** CONVERGENCE OF RESIDUAL NORM REACHED ***

Storing the converged CI vectors               ... ox_es1_A_orca0032.cis1

                 *** DAVIDSON DONE ***

Total time for solving the CIS problem:     0.504sec

------------------------------------
TD-DFT/TDA EXCITED STATES (SINGLETS)
------------------------------------

the weight of the individual excitations are printed if larger than 1.0e-02

STATE  1:  E=   0.279222 au      7.598 eV    61282.2 cm**-1 <S**2> =   0.000000
    11a ->  12a  :     0.725823 (c=  0.85195231)
    11a ->  13a  :     0.200527 (c= -0.44780244)
    11a ->  15a  :     0.041713 (c=  0.20423799)


-----------------------------
TD-DFT/TDA-EXCITATION SPECTRA
-----------------------------

Center of mass = ( -0.0144, -0.0540,  0.0146)
Calculating the Dipole integrals                  ... done
Transforming integrals                            ... done
Calculating the Linear Momentum integrals         ... done
Transforming integrals                            ... done
Calculating angular momentum integrals            ... done
Transforming integrals                            ... done

-----------------------------------------------------------------------------
         ABSORPTION SPECTRUM VIA TRANSITION ELECTRIC DIPOLE MOMENTS
-----------------------------------------------------------------------------
State   Energy    Wavelength  fosc         T2        TX        TY        TZ  
        (cm-1)      (nm)                 (au**2)    (au)      (au)      (au) 
-----------------------------------------------------------------------------
   1   61282.2    163.2   0.000557359   0.00299  -0.02401  -0.03269   0.03673

-----------------------------------------------------------------------------
         ABSORPTION SPECTRUM VIA TRANSITION VELOCITY DIPOLE MOMENTS
-----------------------------------------------------------------------------
State   Energy    Wavelength   fosc        P2         PX        PY        PZ  
        (cm-1)      (nm)                 (au**2)     (au)      (au)      (au) 
-----------------------------------------------------------------------------
   1   61282.2    163.2   0.001745064   0.00073  -0.00145   0.00574   0.02638

-------------------------------------------------------------------
                             CD SPECTRUM
-------------------------------------------------------------------
State  Energy     Wavelength     R         MX        MY        MZ   
       (cm-1)       (nm)     (1e40*cgs)   (au)      (au)      (au)  
-------------------------------------------------------------------
   1   61282.2    163.2      4.76105  -0.17202  -0.20057  -0.01597

-------------------------------------------------------------------
         CD SPECTRUM VIA TRANSITION VELOCITY DIPOLE MOMENTS        
-------------------------------------------------------------------
State  Energy     Wavelength     R         MX        MY        MZ   
       (cm-1)       (nm)     (1e40*cgs)   (au)      (au)      (au)  
-------------------------------------------------------------------
   1   61282.2    163.2     -2.23347  -0.17202  -0.20057  -0.01597

Total run time:        0.771 sec

           *** ORCA-CIS/TD-DFT FINISHED WITHOUT ERROR ***

Maximum memory used throughout the entire CIS-calculation: 49.4 MB

-----------------------
CIS/TD-DFT TOTAL ENERGY
-----------------------

    E(SCF)  =   -153.647999917 Eh
    DE(CIS) =      0.279222445 Eh (Root  1)
    ----------------------------- ---------
    E(tot)  =   -153.368777472 Eh



-------------------------------------------------------------------------------
                          DFT DISPERSION CORRECTION                            
                                                                               
                              DFTD3 V3.1  Rev 1                                
                          USING Becke-Johnson damping                          
-------------------------------------------------------------------------------
The PBE0 functional is recognized
Active option DFTDOPT                   ...         4   

molecular C6(AA) [au] = 351.010772 


            DFT-D V3
 parameters
 s6 scaling factor         :     1.0000 
 a1 scaling factor         :     0.4145 
 s8 scaling factor         :     1.2177 
 a2 scaling factor         :     4.8593 
 ad hoc parameters k1-k3   :    16.0000     1.3333    -4.0000 

 Edisp/kcal,au: -1.507344246690  -0.002402105702 
 E6   /kcal   :  -0.988094654 
 E8   /kcal   :  -0.519249592 
 % E8         :  34.447976532 

-------------------------   ----------------
Dispersion correction           -0.002402106
-------------------------   ----------------


-------------------------   --------------------
FINAL SINGLE POINT ENERGY      -153.371179577274
-------------------------   --------------------



           ************************************************************
           *        Program running with 8 parallel MPI-processes     *
           *              working on a common directory               *
           ************************************************************
------------------------------------------------------------------------------
                         ORCA SCF GRADIENT CALCULATION
------------------------------------------------------------------------------


------------------------
TD-DFT GRADIENT XC SETUP
------------------------

Building densities                     ... done
Calculating rho(r) on the grid         ... done
Building xc-kernel on the grid         ... done
Building xc 3rd derivative on the grid      ... done
                *** TD-DFT GRADIENT CALCULATION INITIALIZED ***

-------------------
TD-DFT/TDA GRADIENT
-------------------

Reference wavefunction             ... RHF
State of interest                  ... 1
Basis dimension                    ... 117
DFT-XC contribution needed         ... YES
RI-approximation                   ... ON
CIS-vectors being read from        ... ox_es1_A_orca0032.cis

 => Number of Vectors found: 1
 => Orbital Window: 3...11 -> 12...116

Reading the CIS file                     ... done
Norm of the CI vector                    ... 1.000000000
Making the CIS (pseudo)densities         ... done
Making operators G(D) and Q(T)           ... done
Transforming the Fock operators          ... done
Making the frozen-core relaxed density   ... done
Constructing the G(H) operator           ... done
Transforming the G(H) operator           ... done
Calculating the CIS Lagrangian           ... done
Solving the Z-vector equations           ... done
Finalizing the relaxed density           ... done
Storing the relaxed density              ... done
Constructing the G(Z) operator           ... done
Transforming the G(Z) operator           ... done
Making the W-matrix                      ... done
Finalizing the W-matrix                  ... done
Transforming the W-matrix                ... done
Nuclear repulsion gradient               ... done
One-Electron gradient                    ... done
Dispersion correction                    ... done
Prescreening matrices                    ... done
COSX-gradient                            ... done
Coulomb gradient (RI)                    ... done
Exchange-Correlation gradient            ... done

                 ---------------------------
                 EXCITED STATE GRADIENT DONE
                 ---------------------------

------------------
CARTESIAN GRADIENT
------------------

   1   O   :   -0.021294094   -0.076094000    0.003930098
   2   C   :    0.035462519    0.081274607    0.067063927
   3   C   :    0.038484057    0.012918662    0.069573673
   4   H   :    0.015539667   -0.004670300   -0.032601594
   5   H   :   -0.007027309   -0.017158305   -0.030969258
   6   H   :   -0.009193281   -0.002117727    0.005781830
   7   H   :   -0.051943752    0.005853777   -0.082764126

Difference to translation invariance:
           :    0.0000278074    0.0000067135    0.0000145500

Difference to rotation invariance:
           :    0.0002917720   -0.0001572839   -0.0003388202

Norm of the cartesian gradient     ...    0.1934996312
RMS gradient                       ...    0.0422250813
MAX gradient                       ...    0.0827641257

------------------------------------------------------------------------------
                  RELAXED CIS/TDA DENSITY POPULATION ANALYSIS
                                   IROOT 1
------------------------------------------------------------------------------
------------------------------------------------------------------------------
                           ORCA POPULATION ANALYSIS
------------------------------------------------------------------------------
Input electron density              ... ox_es1_A_orca0032.cisp
BaseName (.gbw .S,...)              ... ox_es1_A_orca0032

                    ********************************
                    * MULLIKEN POPULATION ANALYSIS *
                    ********************************

-----------------------
MULLIKEN ATOMIC CHARGES
-----------------------
   0 O :    0.105445
   1 C :   -0.442276
   2 C :   -0.210782
   3 H :    0.173309
   4 H :    0.063149
   5 H :    0.156894
   6 H :    0.154261
Sum of atomic charges:    0.0000000

--------------------------------
MULLIKEN REDUCED ORBITAL CHARGES
--------------------------------
  0 O s       :     3.808925  s :     3.808925
      pz      :     1.145802  p :     4.041012
      px      :     1.497587
      py      :     1.397623
      dz2     :     0.004918  d :     0.042970
      dxz     :     0.003807
      dyz     :     0.007326
      dx2y2   :     0.012742
      dxy     :     0.014178
      f0      :     0.000124  f :     0.001648
      f+1     :     0.000009
      f-1     :     0.000215
      f+2     :     0.000089
      f-2     :     0.000246
      f+3     :     0.000344
      f-3     :     0.000622
  1 C s       :     3.190732  s :     3.190732
      pz      :     1.064174  p :     3.156205
      px      :     0.893353
      py      :     1.198678
      dz2     :     0.012708  d :     0.085410
      dxz     :     0.014271
      dyz     :     0.006199
      dx2y2   :     0.031379
      dxy     :     0.020853
      f0      :     0.000989  f :     0.009930
      f+1     :     0.001460
      f-1     :     0.000704
      f+2     :     0.000943
      f-2     :     0.001020
      f+3     :     0.002662
      f-3     :     0.002153
  2 C s       :     3.194462  s :     3.194462
      pz      :     1.046823  p :     2.926366
      px      :     1.121940
      py      :     0.757604
      dz2     :     0.003859  d :     0.079387
      dxz     :     0.018012
      dyz     :     0.008962
      dx2y2   :     0.027733
      dxy     :     0.020822
      f0      :     0.001030  f :     0.010567
      f+1     :     0.001599
      f-1     :     0.000572
      f+2     :     0.000633
      f-2     :     0.001437
      f+3     :     0.002684
      f-3     :     0.002612
  3 H s       :     0.797761  s :     0.797761
      pz      :     0.010683  p :     0.028930
      px      :     0.008001
      py      :     0.010246
  4 H s       :     0.912966  s :     0.912966
      pz      :     0.011372  p :     0.023886
      px      :     0.006780
      py      :     0.005733
  5 H s       :     0.819146  s :     0.819146
      pz      :     0.011221  p :     0.023959
      px      :     0.007905
      py      :     0.004834
  6 H s       :     0.818163  s :     0.818163
      pz      :     0.010767  p :     0.027576
      px      :     0.010946
      py      :     0.005863


                     *******************************
                     * LOEWDIN POPULATION ANALYSIS *
                     *******************************

----------------------
LOEWDIN ATOMIC CHARGES
----------------------
   0 O :    0.426308
   1 C :   -0.546817
   2 C :   -0.345144
   3 H :    0.110314
   4 H :    0.112848
   5 H :    0.139464
   6 H :    0.103026

-------------------------------
LOEWDIN REDUCED ORBITAL CHARGES
-------------------------------
  0 O s       :     3.407102  s :     3.407102
      pz      :     1.086043  p :     4.053371
      px      :     1.490960
      py      :     1.476368
      dz2     :     0.010492  d :     0.106727
      dxz     :     0.011073
      dyz     :     0.015766
      dx2y2   :     0.038729
      dxy     :     0.030667
      f0      :     0.000653  f :     0.006492
      f+1     :     0.000182
      f-1     :     0.000629
      f+2     :     0.000182
      f-2     :     0.001143
      f+3     :     0.001052
      f-3     :     0.002651
  1 C s       :     2.861137  s :     2.861137
      pz      :     1.054402  p :     3.130268
      px      :     0.991566
      py      :     1.084300
      dz2     :     0.065904  d :     0.489300
      dxz     :     0.093558
      dyz     :     0.030860
      dx2y2   :     0.181629
      dxy     :     0.117349
      f0      :     0.006243  f :     0.066112
      f+1     :     0.005624
      f-1     :     0.006615
      f+2     :     0.005132
      f-2     :     0.004392
      f+3     :     0.022428
      f-3     :     0.015678
  2 C s       :     2.806305  s :     2.806305
      pz      :     1.051560  p :     3.011619
      px      :     1.094830
      py      :     0.865229
      dz2     :     0.070458  d :     0.454989
      dxz     :     0.101406
      dyz     :     0.042310
      dx2y2   :     0.130970
      dxy     :     0.109845
      f0      :     0.007831  f :     0.072232
      f+1     :     0.007304
      f-1     :     0.006370
      f+2     :     0.004298
      f-2     :     0.007540
      f+3     :     0.018353
      f-3     :     0.020535
  3 H s       :     0.801789  s :     0.801789
      pz      :     0.036257  p :     0.087897
      px      :     0.023474
      py      :     0.028166
  4 H s       :     0.821529  s :     0.821529
      pz      :     0.033288  p :     0.065622
      px      :     0.017633
      py      :     0.014701
  5 H s       :     0.791447  s :     0.791447
      pz      :     0.033211  p :     0.069089
      px      :     0.020778
      py      :     0.015100
  6 H s       :     0.806992  s :     0.806992
      pz      :     0.037977  p :     0.089982
      px      :     0.031126
      py      :     0.020879


                      *****************************
                      * MAYER POPULATION ANALYSIS *
                      *****************************

  NA   - Mulliken gross atomic population
  ZA   - Total nuclear charge
  QA   - Mulliken gross atomic charge
  VA   - Mayer's total valence
  BVA  - Mayer's bonded valence
  FA   - Mayer's free valence

  ATOM       NA         ZA         QA         VA         BVA        FA
  0 O      7.8946     8.0000     0.1054     2.0689     1.3571     0.7118
  1 C      6.4423     6.0000    -0.4423     3.6358     2.9732     0.6625
  2 C      6.2108     6.0000    -0.2108     3.6101     3.3528     0.2573
  3 H      0.8267     1.0000     0.1733     1.0086     0.9638     0.0448
  4 H      0.9369     1.0000     0.0631     1.0753     0.9357     0.1396
  5 H      0.8431     1.0000     0.1569     0.9721     0.9398     0.0323
  6 H      0.8457     1.0000     0.1543     0.9929     0.9571     0.0358

  Mayer bond orders larger than 0.100000
B(  0-O ,  1-C ) :   0.5447 B(  0-O ,  2-C ) :   0.8192 B(  1-C ,  2-C ) :   0.5984 
B(  1-C ,  3-H ) :   0.9425 B(  1-C ,  4-H ) :   0.8803 B(  2-C ,  5-H ) :   0.9320 
B(  2-C ,  6-H ) :   0.9428 


-------
TIMINGS
-------

Total TD-DFT gradient time         ...        5.111 sec

Fock matrix formation       ....       0.848 sec  ( 16.6%)
  Coulomb formation         ....       0.686 sec  ( 80.8% of F)
  RI-J                      ....       0.292 sec  ( 34.4% of F)
  Chain of spheres X        ....       0.393 sec  ( 46.4% of F)
  XC integration            ....       0.162 sec  ( 19.2% of F)
Z-vector equation           ....       1.387 sec  ( 27.1%)
One electron gradient       ....       0.032 sec  (  0.6%)
Prescreening matrices       ....       0.156 sec  (  3.1%)
RI-J Coulomb gradient       ....       0.261 sec  (  5.1%)
COSX gradient               ....       0.348 sec  (  6.8%)
XC gradient                 ....       1.754 sec  ( 34.3%)

Maximum memory used throughout the entire SCFGRAD-calculation: 130.3 MB

                            ***************************************
                            *     ORCA property calculations      *
                            ***************************************

                                    ---------------------
                                    Active property flags
                                    ---------------------
   (+) Dipole Moment


------------------------------------------------------------------------------
                       ORCA ELECTRIC PROPERTIES CALCULATION
------------------------------------------------------------------------------

Dipole Moment Calculation                       ... on
Quadrupole Moment Calculation                   ... off
Polarizability Calculation                      ... off
GBWName                                         ... ox_es1_A_orca0032.gbw
Electron density                                ... ox_es1_A_orca0032.scfp
The origin for moment calculation is the CENTER OF MASS  = (-0.014367, -0.054027  0.014595)

-------------
DIPOLE MOMENT
-------------
                                X             Y             Z
Electronic contribution:      0.14261       1.62500       0.16329
Nuclear contribution   :     -0.11642      -2.29247      -0.04833
                        -----------------------------------------
Total Dipole Moment    :      0.02619      -0.66747       0.11497
                        -----------------------------------------
Magnitude (a.u.)       :      0.67781
Magnitude (Debye)      :      1.72285



--------------------
Rotational spectrum 
--------------------
 
Rotational constants in cm-1:     0.901898     0.687782     0.461064 
Rotational constants in MHz : 27038.224166 20619.177398 13822.355283 

 Dipole components along the rotational axes: 
x,y,z [a.u.] :    -0.106630    -0.668672     0.030508 
x,y,z [Debye]:    -0.271032    -1.699630     0.077544 

 

                        *** CIS RELAXED DENSITY ***

------------------------------------------------------------------------------
                       ORCA ELECTRIC PROPERTIES CALCULATION
------------------------------------------------------------------------------

Dipole Moment Calculation                       ... on
Quadrupole Moment Calculation                   ... off
Polarizability Calculation                      ... off
GBWName                                         ... ox_es1_A_orca0032.gbw
Electron density                                ... ox_es1_A_orca0032.cisp
The origin for moment calculation is the CENTER OF MASS  = (-0.014367, -0.054027  0.014595)

-------------
DIPOLE MOMENT
-------------
                                X             Y             Z
Electronic contribution:      0.72493       2.20994       0.16830
Nuclear contribution   :     -0.11642      -2.29247      -0.04833
                        -----------------------------------------
Total Dipole Moment    :      0.60851      -0.08253       0.11997
                        -----------------------------------------
Magnitude (a.u.)       :      0.62569
Magnitude (Debye)      :      1.59038



--------------------
Rotational spectrum 
--------------------
 
Rotational constants in cm-1:     0.901898     0.687782     0.461064 
Rotational constants in MHz : 27038.224166 20619.177398 13822.355283 

 Dipole components along the rotational axes: 
x,y,z [a.u.] :     0.575666    -0.213114     0.121166 
x,y,z [Debye]:     1.463227    -0.541692     0.307980 

 

Timings for individual modules:

Sum of individual times         ...        7.867 sec (=   0.131 min)
GTO integral calculation        ...        0.338 sec (=   0.006 min)   4.3 %
SCF iterations                  ...        1.188 sec (=   0.020 min)  15.1 %
CIS module                      ...        0.997 sec (=   0.017 min)  12.7 %
SCF Gradient evaluation         ...        5.344 sec (=   0.089 min)  67.9 %
                             ****ORCA TERMINATED NORMALLY****
TOTAL RUN TIME: 0 days 0 hours 0 minutes 8 seconds 246 msec
