
                                 *****************
                                 * O   R   C   A *
                                 *****************

                                            #,                                       
                                            ###                                      
                                            ####                                     
                                            #####                                    
                                            ######                                   
                                           ########,                                 
                                     ,,################,,,,,                         
                               ,,#################################,,                 
                          ,,##########################################,,             
                       ,#########################################, ''#####,          
                    ,#############################################,,   '####,        
                  ,##################################################,,,,####,       
                ,###########''''           ''''###############################       
              ,#####''   ,,,,##########,,,,          '''####'''          '####       
            ,##' ,,,,###########################,,,                        '##       
           ' ,,###''''                  '''############,,,                           
         ,,##''                                '''############,,,,        ,,,,,,###''
      ,#''                                            '''#######################'''  
     '                                                          ''''####''''         
             ,#######,   #######,   ,#######,      ##                                
            ,#'     '#,  ##    ##  ,#'     '#,    #''#        ######   ,####,        
            ##       ##  ##   ,#'  ##            #'  '#       #        #'  '#        
            ##       ##  #######   ##           ,######,      #####,   #    #        
            '#,     ,#'  ##    ##  '#,     ,#' ,#      #,         ##   #,  ,#        
             '#######'   ##     ##  '#######'  #'      '#     #####' # '####'        



                  #######################################################
                  #                        -***-                        #
                  #          Department of theory and spectroscopy      #
                  #    Directorship and core code : Frank Neese         #
                  #        Max Planck Institute fuer Kohlenforschung    #
                  #                Kaiser Wilhelm Platz 1               #
                  #                 D-45470 Muelheim/Ruhr               #
                  #                      Germany                        #
                  #                                                     #
                  #                  All rights reserved                #
                  #                        -***-                        #
                  #######################################################


                         Program Version 5.0.2 -  RELEASE  -


 With contributions from (in alphabetic order):
   Daniel Aravena         : Magnetic Suceptibility
   Michael Atanasov       : Ab Initio Ligand Field Theory (pilot matlab implementation)
   Alexander A. Auer      : GIAO ZORA, VPT2 properties, NMR spectrum
   Ute Becker             : Parallelization
   Giovanni Bistoni       : ED, misc. LED, open-shell LED, HFLD
   Martin Brehm           : Molecular dynamics
   Dmytro Bykov           : SCF Hessian
   Vijay G. Chilkuri      : MRCI spin determinant printing, contributions to CSF-ICE
   Dipayan Datta          : RHF DLPNO-CCSD density
   Achintya Kumar Dutta   : EOM-CC, STEOM-CC
   Dmitry Ganyushin       : Spin-Orbit,Spin-Spin,Magnetic field MRCI
   Miquel Garcia          : C-PCM and meta-GGA Hessian, CC/C-PCM, Gaussian charge scheme
   Yang Guo               : DLPNO-NEVPT2, F12-NEVPT2, CIM, IAO-localization
   Andreas Hansen         : Spin unrestricted coupled pair/coupled cluster methods
   Benjamin Helmich-Paris : MC-RPA, TRAH-SCF, COSX integrals
   Lee Huntington         : MR-EOM, pCC
   Robert Izsak           : Overlap fitted RIJCOSX, COSX-SCS-MP3, EOM
   Marcus Kettner         : VPT2
   Christian Kollmar      : KDIIS, OOCD, Brueckner-CCSD(T), CCSD density, CASPT2, CASPT2-K
   Simone Kossmann        : Meta GGA functionals, TD-DFT gradient, OOMP2, MP2 Hessian
   Martin Krupicka        : Initial AUTO-CI
   Lucas Lang             : DCDCAS
   Marvin Lechner         : AUTO-CI (C++ implementation), FIC-MRCC
   Dagmar Lenk            : GEPOL surface, SMD
   Dimitrios Liakos       : Extrapolation schemes; Compound Job, initial MDCI parallelization
   Dimitrios Manganas     : Further ROCIS development; embedding schemes
   Dimitrios Pantazis     : SARC Basis sets
   Anastasios Papadopoulos: AUTO-CI, single reference methods and gradients
   Taras Petrenko         : DFT Hessian,TD-DFT gradient, ASA, ECA, R-Raman, ABS, FL, XAS/XES, NRVS
   Peter Pinski           : DLPNO-MP2, DLPNO-MP2 Gradient
   Christoph Reimann      : Effective Core Potentials
   Marius Retegan         : Local ZFS, SOC
   Christoph Riplinger    : Optimizer, TS searches, QM/MM, DLPNO-CCSD(T), (RO)-DLPNO pert. Triples
   Tobias Risthaus        : Range-separated hybrids, TD-DFT gradient, RPA, STAB
   Michael Roemelt        : Original ROCIS implementation
   Masaaki Saitow         : Open-shell DLPNO-CCSD energy and density
   Barbara Sandhoefer     : DKH picture change effects
   Avijit Sen             : IP-ROCIS
   Kantharuban Sivalingam : CASSCF convergence, NEVPT2, FIC-MRCI
   Bernardo de Souza      : ESD, SOC TD-DFT
   Georgi Stoychev        : AutoAux, RI-MP2 NMR, DLPNO-MP2 response
   Willem Van den Heuvel  : Paramagnetic NMR
   Boris Wezisla          : Elementary symmetry handling
   Frank Wennmohs         : Technical directorship


 We gratefully acknowledge several colleagues who have allowed us to
 interface, adapt or use parts of their codes:
   Stefan Grimme, W. Hujo, H. Kruse, P. Pracht,  : VdW corrections, initial TS optimization,
                  C. Bannwarth, S. Ehlert          DFT functionals, gCP, sTDA/sTD-DF
   Ed Valeev, F. Pavosevic, A. Kumar             : LibInt (2-el integral package), F12 methods
   Garnet Chan, S. Sharma, J. Yang, R. Olivares  : DMRG
   Ulf Ekstrom                                   : XCFun DFT Library
   Mihaly Kallay                                 : mrcc  (arbitrary order and MRCC methods)
   Jiri Pittner, Ondrej Demel                    : Mk-CCSD
   Frank Weinhold                                : gennbo (NPA and NBO analysis)
   Christopher J. Cramer and Donald G. Truhlar   : smd solvation model
   Lars Goerigk                                  : TD-DFT with DH, B97 family of functionals
   V. Asgeirsson, H. Jonsson                     : NEB implementation
   FAccTs GmbH                                   : IRC, NEB, NEB-TS, DLPNO-Multilevel, CI-OPT
                                                   MM, QMMM, 2- and 3-layer-ONIOM, Crystal-QMMM,
                                                   LR-CPCM, SF, NACMEs, symmetry and pop. for TD-DFT,
                                                   nearIR, NL-DFT gradient (VV10), updates on ESD,
                                                   ML-optimized integration grids
   S Lehtola, MJT Oliveira, MAL Marques          : LibXC Library
   Liviu Ungur et al                             : ANISO software


 Your calculation uses the libint2 library for the computation of 2-el integrals
 For citations please refer to: http://libint.valeyev.net

 Your ORCA version has been built with support for libXC version: 5.1.0
 For citations please refer to: https://tddft.org/programs/libxc/

 This ORCA versions uses:
   CBLAS   interface :  Fast vector & matrix operations
   LAPACKE interface :  Fast linear algebra routines
   SCALAPACK package :  Parallel linear algebra routines
   Shared memory     :  Shared parallel matrices
   BLAS/LAPACK       :  OpenBLAS 0.3.15  USE64BITINT DYNAMIC_ARCH NO_AFFINITY SkylakeX SINGLE_THREADED
        Core in use  :  SkylakeX
   Copyright (c) 2011-2014, The OpenBLAS Project


Your calculation utilizes the atom-pairwise dispersion correction
with the Becke-Johnson damping scheme (D3BJ)
Cite in your paper:
S.Grimme, S.Ehrlich, L.Goerigk, J Comput Chem, (2011), 32, 1456–1465 
S.Grimme, J.Antony, S.Ehrlich and H.Krieg, J.Chem.Phys., 132, (2010), 154104 
   

================================================================================

----- Orbital basis set information -----
Your calculation utilizes the basis: def2-TZVP
   F. Weigend and R. Ahlrichs, Phys. Chem. Chem. Phys. 7, 3297 (2005).

----- AuxJ basis set information -----
Your calculation utilizes the auxiliary basis: def2/J
   F. Weigend, Phys. Chem. Chem. Phys. 8, 1057 (2006).

================================================================================
                                        WARNINGS
                       Please study these warnings very carefully!
================================================================================

INFO   : Checking CIS options ...

WARNING: CIS/ROCIS methods need fully converged wavefunctions
  ===> : Setting SCFConvForced true
         You can overwrite this default with %scf ConvForced false 


INFO   : the flag for use of the SHARK integral package has been found!

================================================================================
                                       INPUT FILE
================================================================================
NAME = ox_es1_F_orca0007.inp
|  1> ! engrad PBE0 D3BJ def2-TZVP  
|  2> %pal nprocs 8 end
|  3> %maxcore 3000
|  4> 
|  5> %tddft
|  6>   nroots 1
|  7>   tda true
|  8>   Iroot 1
|  9>   end 
| 10> *xyz 0 1 
| 11> O   -1.1943263217637248 0.8782137288777498 -0.010729227162163919
| 12> C   -0.7726197762703593 -0.4479510663438744 -0.02370386161290418
| 13> C   0.7716984366142912 -0.3962632396319452 -0.0459453527756492
| 14> H   -1.2489502701985797 -0.6238404833715246 0.9153735424681404
| 15> H   -1.2855125650964816 -0.5913713243061874 -0.9375781874226592
| 16> H   1.2132488612545225 -0.5834182581377498 -0.8917367918050217
| 17> H   1.311548423179055 -0.6102578042027206 0.9223090341756989
| 18> *
| 19> 
| 20>                          ****END OF INPUT****
================================================================================

                     *******************************
                     * Energy+Gradient Calculation *
                     *******************************

---------------------------------
CARTESIAN COORDINATES (ANGSTROEM)
---------------------------------
  O     -1.194326    0.878214   -0.010729
  C     -0.772620   -0.447951   -0.023704
  C      0.771698   -0.396263   -0.045945
  H     -1.248950   -0.623840    0.915374
  H     -1.285513   -0.591371   -0.937578
  H      1.213249   -0.583418   -0.891737
  H      1.311548   -0.610258    0.922309

----------------------------
CARTESIAN COORDINATES (A.U.)
----------------------------
  NO LB      ZA    FRAG     MASS         X           Y           Z
   0 O     8.0000    0    15.999   -2.256950    1.659583   -0.020275
   1 C     6.0000    0    12.011   -1.460040   -0.846505   -0.044794
   2 C     6.0000    0    12.011    1.458299   -0.748829   -0.086824
   3 H     1.0000    0     1.008   -2.360174   -1.178888    1.729805
   4 H     1.0000    0     1.008   -2.429267   -1.117530   -1.771766
   5 H     1.0000    0     1.008    2.292708   -1.102501   -1.685138
   6 H     1.0000    0     1.008    2.478467   -1.153220    1.742911

--------------------------------
INTERNAL COORDINATES (ANGSTROEM)
--------------------------------
 O      0   0   0     0.000000000000     0.00000000     0.00000000
 C      1   0   0     1.391660093463     0.00000000     0.00000000
 C      2   1   0     1.545343022764   105.72878017     0.00000000
 H      2   1   3     1.067564610374    90.77913614   119.07711356
 H      2   1   3     1.057730904625    89.44594485   240.49361557
 H      3   2   1     0.972294675902   117.38148787   256.15864879
 H      3   2   1     1.129047492141   117.33207535   103.04729820

---------------------------
INTERNAL COORDINATES (A.U.)
---------------------------
 O      0   0   0     0.000000000000     0.00000000     0.00000000
 C      1   0   0     2.629856448152     0.00000000     0.00000000
 C      2   1   0     2.920275095991   105.72878017     0.00000000
 H      2   1   3     2.017404743874    90.77913614   119.07711356
 H      2   1   3     1.998821733125    89.44594485   240.49361557
 H      3   2   1     1.837370658924   117.38148787   256.15864879
 H      3   2   1     2.133590552337   117.33207535   103.04729820

---------------------
BASIS SET INFORMATION
---------------------
There are 3 groups of distinct atoms

 Group   1 Type O   : 11s6p2d1f contracted to 5s3p2d1f pattern {62111/411/11/1}
 Group   2 Type C   : 11s6p2d1f contracted to 5s3p2d1f pattern {62111/411/11/1}
 Group   3 Type H   : 5s1p contracted to 3s1p pattern {311/1}

Atom   0O    basis set group =>   1
Atom   1C    basis set group =>   2
Atom   2C    basis set group =>   2
Atom   3H    basis set group =>   3
Atom   4H    basis set group =>   3
Atom   5H    basis set group =>   3
Atom   6H    basis set group =>   3
---------------------------------
AUXILIARY/J BASIS SET INFORMATION
---------------------------------
There are 3 groups of distinct atoms

 Group   1 Type O   : 12s5p4d2f1g contracted to 6s4p3d1f1g pattern {711111/2111/211/2/1}
 Group   2 Type C   : 12s5p4d2f1g contracted to 6s4p3d1f1g pattern {711111/2111/211/2/1}
 Group   3 Type H   : 5s2p1d contracted to 3s1p1d pattern {311/2/1}

Atom   0O    basis set group =>   1
Atom   1C    basis set group =>   2
Atom   2C    basis set group =>   2
Atom   3H    basis set group =>   3
Atom   4H    basis set group =>   3
Atom   5H    basis set group =>   3
Atom   6H    basis set group =>   3

Checking for AutoStart:
The File: ox_es1_F_orca0007.gbw exists
Trying to determine its content:
     ... Fine, the file contains calculation information
     ... Fine, the calculation information was read
     ... Fine, the file contains a basis set
     ... Fine, the basis set was read
     ... Fine, the file contains a geometry
     ... Fine, the geometry was read
     ... Fine, the file contains a set of orbitals
     ... Fine, the orbitals can be read
     => possible old guess file was deleted
     => GBW file was renamed to GES file
     => GES file is set as startup file
     => Guess is set to MORead
     ... now leaving AutoStart



           ************************************************************
           *        Program running with 8 parallel MPI-processes     *
           *              working on a common directory               *
           ************************************************************
------------------------------------------------------------------------------
                           ORCA GTO INTEGRAL CALCULATION
                           -- RI-GTO INTEGRALS CHOSEN --
------------------------------------------------------------------------------
------------------------------------------------------------------------------
                   ___                                                        
                  /   \      - P O W E R E D   B Y -                         
                 /     \                                                     
                 |  |  |   _    _      __       _____    __    __             
                 |  |  |  | |  | |    /  \     |  _  \  |  |  /  |          
                  \  \/   | |  | |   /    \    | | | |  |  | /  /          
                 / \  \   | |__| |  /  /\  \   | |_| |  |  |/  /          
                |  |  |   |  __  | /  /__\  \  |    /   |      \           
                |  |  |   | |  | | |   __   |  |    \   |  |\   \          
                \     /   | |  | | |  |  |  |  | |\  \  |  | \   \       
                 \___/    |_|  |_| |__|  |__|  |_| \__\ |__|  \__/        
                                                                              
                      - O R C A' S   B I G   F R I E N D -                    
                                      &                                       
                       - I N T E G R A L  F E E D E R -                       
                                                                              
 v1 FN, 2020, v2 2021                                                         
------------------------------------------------------------------------------


Reading SHARK input file ox_es1_F_orca0007.SHARKINP.tmp ... ok
----------------------
SHARK INTEGRAL PACKAGE
----------------------

Number of atoms                             ...      7
Number of basis functions                   ...    117
Number of shells                            ...     49
Maximum angular momentum                    ...      3
Integral batch strategy                     ... SHARK/LIBINT Hybrid
RI-J (if used) integral strategy            ... SPLIT-RIJ (Revised 2003 algorithm where possible)
Printlevel                                  ...      1
Contraction scheme used                     ... SEGMENTED contraction
Coulomb Range Separation                    ... NOT USED
Exchange Range Separation                   ... NOT USED
Finite Nucleus Model                        ... NOT USED
Auxiliary Coulomb fitting basis             ... AVAILABLE
   # of basis functions in Aux-J            ...    191
   # of shells in Aux-J                     ...     65
   Maximum angular momentum in Aux-J        ...      4
Auxiliary J/K fitting basis                 ... NOT available
Auxiliary Correlation fitting basis         ... NOT available
Auxiliary 'external' fitting basis          ... NOT available
Integral threshold                          ...     2.500000e-11
Primitive cut-off                           ...     2.500000e-12
Primitive pair pre-selection threshold      ...     2.500000e-12

Calculating pre-screening integrals         ... done (  0.0 sec) Dimension = 49
Organizing shell pair data                  ... done (  0.0 sec)
Shell pair information
Total number of shell pairs                 ...      1225
Shell pairs after pre-screening             ...      1213
Total number of primitive shell pairs       ...      3648
Primitive shell pairs kept                  ...      3080
          la=0 lb=0:    367 shell pairs
          la=1 lb=0:    351 shell pairs
          la=1 lb=1:     91 shell pairs
          la=2 lb=0:    161 shell pairs
          la=2 lb=1:     78 shell pairs
          la=2 lb=2:     21 shell pairs
          la=3 lb=0:     81 shell pairs
          la=3 lb=1:     39 shell pairs
          la=3 lb=2:     18 shell pairs
          la=3 lb=3:      6 shell pairs

Calculating one electron integrals          ... done (  0.0 sec)
Calculating RI/J V-Matrix + Cholesky decomp.... done (  0.0 sec)
Calculating Nuclear repulsion               ... done (  0.0 sec) ENN=     68.124346848183 Eh

SHARK setup successfully completed in   0.1 seconds

Maximum memory used throughout the entire GTOINT-calculation: 14.9 MB


           ************************************************************
           *        Program running with 8 parallel MPI-processes     *
           *              working on a common directory               *
           ************************************************************
-------------------------------------------------------------------------------
                                 ORCA SCF
-------------------------------------------------------------------------------

------------
SCF SETTINGS
------------
Hamiltonian:
 Density Functional     Method          .... DFT(GTOs)
 Exchange Functional    Exchange        .... PBE
   PBE kappa parameter   XKappa         ....  0.804000
   PBE mue parameter    XMuePBE         ....  0.219520
 Correlation Functional Correlation     .... PBE
   PBE beta parameter  CBetaPBE         ....  0.066725
 LDA part of GGA corr.  LDAOpt          .... PW91-LDA
 Gradients option       PostSCFGGA      .... off
 Hybrid DFT is turned on
   Fraction HF Exchange ScalHFX         ....  0.250000
   Scaling of DF-GGA-X  ScalDFX         ....  0.750000
   Scaling of DF-GGA-C  ScalDFC         ....  1.000000
   Scaling of DF-LDA-C  ScalLDAC        ....  1.000000
   Perturbative correction              ....  0.000000
   Density functional embedding theory  .... OFF
   NL short-range parameter             ....  6.900000
 RI-approximation to the Coulomb term is turned on
   Number of AuxJ basis functions       .... 191
   RIJ-COSX (HFX calculated with COS-X)).... on


General Settings:
 Integral files         IntName         .... ox_es1_F_orca0007
 Hartree-Fock type      HFTyp           .... RHF
 Total Charge           Charge          ....    0
 Multiplicity           Mult            ....    1
 Number of Electrons    NEL             ....   24
 Basis Dimension        Dim             ....  117
 Nuclear Repulsion      ENuc            ....     68.1243468482 Eh

Convergence Acceleration:
 DIIS                   CNVDIIS         .... on
   Start iteration      DIISMaxIt       ....    12
   Startup error        DIISStart       ....  0.200000
   # of expansion vecs  DIISMaxEq       ....     5
   Bias factor          DIISBfac        ....   1.050
   Max. coefficient     DIISMaxC        ....  10.000
 Trust-Rad. Augm. Hess. CNVTRAH         .... auto
   Auto Start mean grad. ratio tolernc. ....  1.125000
   Auto Start start iteration           ....     1
   Auto Start num. interpolation iter.  ....    10
   Max. Number of Micro iterations      ....    16
   Max. Number of Macro iterations      .... Maxiter - #DIIS iter
   Number of Davidson start vectors     ....     2
   Converg. threshold I  (grad. norm)   ....   1.000e-05
   Converg. threshold II (energy diff.) ....   1.000e-08
   Grad. Scal. Fac. for Micro threshold ....   0.100
   Minimum threshold for Micro iter.    ....   0.010
   NR start threshold (gradient norm)   ....   0.001
   Initial trust radius                 ....   0.400
   Minimum AH scaling param. (alpha)    ....   1.000
   Maximum AH scaling param. (alpha)    .... 1000.000
   Orbital update algorithm             .... Taylor
   White noise on init. David. guess    .... on
   Maximum white noise                  ....   0.010
   Quad. conv. algorithm                .... NR
 SOSCF                  CNVSOSCF        .... on
   Start iteration      SOSCFMaxIt      ....   150
   Startup grad/error   SOSCFStart      ....  0.003300
 Level Shifting         CNVShift        .... on
   Level shift para.    LevelShift      ....    0.2500
   Turn off err/grad.   ShiftErr        ....    0.0010
 Zerner damping         CNVZerner       .... off
 Static damping         CNVDamp         .... on
   Fraction old density DampFac         ....    0.7000
   Max. Damping (<1)    DampMax         ....    0.9800
   Min. Damping (>=0)   DampMin         ....    0.0000
   Turn off err/grad.   DampErr         ....    0.1000
 Fernandez-Rico         CNVRico         .... off

SCF Procedure:
 Maximum # iterations   MaxIter         ....   125
 SCF integral mode      SCFMode         .... Direct
   Integral package                     .... SHARK and LIBINT hybrid scheme
 Reset frequency        DirectResetFreq ....    20
 Integral Threshold     Thresh          ....  2.500e-11 Eh
 Primitive CutOff       TCut            ....  2.500e-12 Eh

Convergence Tolerance:
 Convergence Check Mode ConvCheckMode   .... Total+1el-Energy
 Convergence forced     ConvForced      .... 1
 Energy Change          TolE            ....  1.000e-08 Eh
 1-El. energy change                    ....  1.000e-05 Eh
 Orbital Gradient       TolG            ....  1.000e-05
 Orbital Rotation angle TolX            ....  1.000e-05
 DIIS Error             TolErr          ....  5.000e-07


Diagonalization of the overlap matrix:
Smallest eigenvalue                        ... 7.568e-04
Time for diagonalization                   ...    0.001 sec
Threshold for overlap eigenvalues          ... 1.000e-08
Number of eigenvalues below threshold      ... 0
Time for construction of square roots      ...    0.001 sec
Total time needed                          ...    0.003 sec

---------------------
INITIAL GUESS: MOREAD
---------------------
Guess MOs are being read from file: ox_es1_F_orca0007.ges
Input Geometry matches current geometry (good)
Input basis set matches current basis set (good)
MOs were renormalized
MOs were reorthogonalized (Cholesky)
                      ------------------
                      INITIAL GUESS DONE (   0.0 sec)
                      ------------------
-------------------
DFT GRID GENERATION
-------------------

General Integration Accuracy     IntAcc      ... 4.388
Radial Grid Type                 RadialGrid  ... OptM3 with GC (2021)
Angular Grid (max. ang.)         AngularGrid ... 4 (Lebedev-302)
Angular grid pruning method      GridPruning ... 4 (adaptive)
Weight generation scheme         WeightScheme... Becke
Basis function cutoff            BFCut       ... 1.0000e-11
Integration weight cutoff        WCut        ... 1.0000e-14
Angular grids for H and He will be reduced by one unit
Partially contracted basis set               ... off
Rotationally invariant grid construction     ... off

Total number of grid points                  ...    31325
Total number of batches                      ...      492
Average number of points per batch           ...       63
Average number of grid points per atom       ...     4475
Time for grid setup =    0.119 sec

--------------------
COSX GRID GENERATION
--------------------

GRIDX 1
-------
General Integration Accuracy     IntAcc      ... 3.816
Radial Grid Type                 RadialGrid  ... OptM3 with GC (2021)
Angular Grid (max. ang.)         AngularGrid ... 1 (Lebedev-50)
Angular grid pruning method      GridPruning ... 4 (adaptive)
Weight generation scheme         WeightScheme... Becke
Basis function cutoff            BFCut       ... 1.0000e-11
Integration weight cutoff        WCut        ... 1.0000e-14
Angular grids for H and He will be reduced by one unit
Partially contracted basis set               ... on
Rotationally invariant grid construction     ... off

Total number of grid points                  ...     4041
Total number of batches                      ...       67
Average number of points per batch           ...       60
Average number of grid points per atom       ...      577
UseSFitting                                  ... on

GRIDX 2
-------
General Integration Accuracy     IntAcc      ... 4.020
Radial Grid Type                 RadialGrid  ... OptM3 with GC (2021)
Angular Grid (max. ang.)         AngularGrid ... 2 (Lebedev-110)
Angular grid pruning method      GridPruning ... 4 (adaptive)
Weight generation scheme         WeightScheme... Becke
Basis function cutoff            BFCut       ... 1.0000e-11
Integration weight cutoff        WCut        ... 1.0000e-14
Angular grids for H and He will be reduced by one unit
Partially contracted basis set               ... on
Rotationally invariant grid construction     ... off

Total number of grid points                  ...     8745
Total number of batches                      ...      141
Average number of points per batch           ...       62
Average number of grid points per atom       ...     1249
UseSFitting                                  ... on

GRIDX 3
-------
General Integration Accuracy     IntAcc      ... 4.338
Radial Grid Type                 RadialGrid  ... OptM3 with GC (2021)
Angular Grid (max. ang.)         AngularGrid ... 3 (Lebedev-194)
Angular grid pruning method      GridPruning ... 4 (adaptive)
Weight generation scheme         WeightScheme... Becke
Basis function cutoff            BFCut       ... 1.0000e-11
Integration weight cutoff        WCut        ... 1.0000e-14
Angular grids for H and He will be reduced by one unit
Partially contracted basis set               ... on
Rotationally invariant grid construction     ... off

Total number of grid points                  ...    19265
Total number of batches                      ...      305
Average number of points per batch           ...       63
Average number of grid points per atom       ...     2752
UseSFitting                                  ... on

Time for X-Grid setup             =    0.074 sec

--------------
SCF ITERATIONS
--------------
ITER       Energy         Delta-E        Max-DP      RMS-DP      [F,P]     Damp
               ***  Starting incremental Fock matrix formation  ***
                      *** Initiating the SOSCF procedure ***
                      *** Re-Reading the Fockian *** 
                      *** Removing any level shift *** 
ITER      Energy       Delta-E        Grad      Rot      Max-DP    RMS-DP
  0   -153.48780055 -153.4878005525  0.000002  0.000002  0.000002  0.000000
               *** Restarting incremental Fock matrix formation ***
                 **** Energy Check signals convergence ****
              ***Rediagonalizing the Fockian in SOSCF/NRSCF***

               *****************************************************
               *                     SUCCESS                       *
               *           SCF CONVERGED AFTER   1 CYCLES          *
               *****************************************************

Old exchange energy                            =     -4.962965186 Eh
New exchange energy                            =     -4.962980833 Eh
Exchange energy change after final integration =     -0.000015647 Eh
Total energy after final integration           =   -153.487816200 Eh
Final COS-X integration done in                =     0.257 sec

----------------
TOTAL SCF ENERGY
----------------

Total Energy       :         -153.48781620 Eh           -4176.61581 eV

Components:
Nuclear Repulsion  :           68.12434685 Eh            1853.75772 eV
Electronic Energy  :         -221.61216305 Eh           -6030.37353 eV
One Electron Energy:         -342.95713784 Eh           -9332.33817 eV
Two Electron Energy:          121.34497479 Eh            3301.96463 eV
Max COSX asymmetry :            0.00000499 Eh               0.00014 eV

Virial components:
Potential Energy   :         -306.46843020 Eh           -8339.42995 eV
Kinetic Energy     :          152.98061401 Eh            4162.81414 eV
Virial Ratio       :            2.00331547


DFT components:
N(Alpha)           :       12.000002297283 electrons
N(Beta)            :       12.000002297283 electrons
N(Total)           :       24.000004594565 electrons
E(X)               :      -14.908018155869 Eh       
E(C)               :       -0.771315838584 Eh       
E(XC)              :      -15.679333994453 Eh       
DFET-embed. en.    :        0.000000000000 Eh       

---------------
SCF CONVERGENCE
---------------

  Last Energy change         ...   -5.8890e-11  Tolerance :   1.0000e-08
  Last MAX-Density change    ...    6.6613e-16  Tolerance :   1.0000e-07
  Last RMS-Density change    ...    2.1389e-17  Tolerance :   5.0000e-09
  Last Orbital Gradient      ...    8.6023e-07  Tolerance :   1.0000e-05
  Last Orbital Rotation      ...    9.2051e-06  Tolerance :   1.0000e-05

             **** THE GBW FILE WAS UPDATED (ox_es1_F_orca0007.gbw) ****
             **** DENSITY ox_es1_F_orca0007.scfp WAS UPDATED ****
             **** ENERGY FILE WAS UPDATED (ox_es1_F_orca0007.en.tmp) ****
             **** THE GBW FILE WAS UPDATED (ox_es1_F_orca0007.gbw) ****
             **** DENSITY ox_es1_F_orca0007.scfp WAS UPDATED ****
----------------
ORBITAL ENERGIES
----------------

  NO   OCC          E(Eh)            E(eV) 
   0   2.0000     -19.188668      -522.1502 
   1   2.0000     -10.324239      -280.9368 
   2   2.0000     -10.265331      -279.3339 
   3   2.0000      -1.003914       -27.3179 
   4   2.0000      -0.774396       -21.0724 
   5   2.0000      -0.625363       -17.0170 
   6   2.0000      -0.533069       -14.5056 
   7   2.0000      -0.473272       -12.8784 
   8   2.0000      -0.453438       -12.3387 
   9   2.0000      -0.391384       -10.6501 
  10   2.0000      -0.257576        -7.0090 
  11   2.0000      -0.243841        -6.6353 
  12   0.0000      -0.164125        -4.4661 
  13   0.0000       0.051295         1.3958 
  14   0.0000       0.082782         2.2526 
  15   0.0000       0.094474         2.5708 
  16   0.0000       0.135653         3.6913 
  17   0.0000       0.147563         4.0154 
  18   0.0000       0.178132         4.8472 
  19   0.0000       0.199776         5.4362 
  20   0.0000       0.231058         6.2874 
  21   0.0000       0.242464         6.5978 
  22   0.0000       0.249896         6.8000 
  23   0.0000       0.328815         8.9475 
  24   0.0000       0.358721         9.7613 
  25   0.0000       0.367034         9.9875 
  26   0.0000       0.404283        11.0011 
  27   0.0000       0.424223        11.5437 
  28   0.0000       0.454018        12.3544 
  29   0.0000       0.468066        12.7367 
  30   0.0000       0.518632        14.1127 
  31   0.0000       0.554596        15.0913 
  32   0.0000       0.567773        15.4499 
  33   0.0000       0.604268        16.4430 
  34   0.0000       0.691493        18.8165 
  35   0.0000       0.719611        19.5816 
  36   0.0000       0.787646        21.4329 
  37   0.0000       0.823343        22.4043 
  38   0.0000       0.897881        24.4326 
  39   0.0000       0.917285        24.9606 
  40   0.0000       0.926315        25.2063 
  41   0.0000       1.015898        27.6440 
  42   0.0000       1.041845        28.3501 
  43   0.0000       1.090342        29.6697 
  44   0.0000       1.178772        32.0760 
  45   0.0000       1.322434        35.9852 
  46   0.0000       1.411153        38.3994 
  47   0.0000       1.435928        39.0736 
  48   0.0000       1.485920        40.4339 
  49   0.0000       1.512518        41.1577 
  50   0.0000       1.558077        42.3974 
  51   0.0000       1.601776        43.5865 
  52   0.0000       1.625146        44.2225 
  53   0.0000       1.668373        45.3987 
  54   0.0000       1.736751        47.2594 
  55   0.0000       1.774822        48.2953 
  56   0.0000       1.781335        48.4726 
  57   0.0000       1.869915        50.8830 
  58   0.0000       1.884082        51.2685 
  59   0.0000       1.901797        51.7505 
  60   0.0000       1.991357        54.1876 
  61   0.0000       2.059405        56.0393 
  62   0.0000       2.138664        58.1960 
  63   0.0000       2.230095        60.6840 
  64   0.0000       2.313523        62.9541 
  65   0.0000       2.353789        64.0498 
  66   0.0000       2.397465        65.2383 
  67   0.0000       2.466052        67.1047 
  68   0.0000       2.518124        68.5216 
  69   0.0000       2.552390        69.4541 
  70   0.0000       2.576438        70.1084 
  71   0.0000       2.598693        70.7140 
  72   0.0000       2.631165        71.5976 
  73   0.0000       2.702214        73.5310 
  74   0.0000       2.763241        75.1916 
  75   0.0000       2.786070        75.8128 
  76   0.0000       2.882721        78.4428 
  77   0.0000       2.999279        81.6145 
  78   0.0000       3.010720        81.9259 
  79   0.0000       3.045695        82.8776 
  80   0.0000       3.062477        83.3342 
  81   0.0000       3.108482        84.5861 
  82   0.0000       3.117796        84.8396 
  83   0.0000       3.146278        85.6146 
  84   0.0000       3.231633        87.9372 
  85   0.0000       3.285396        89.4002 
  86   0.0000       3.340650        90.9037 
  87   0.0000       3.363181        91.5168 
  88   0.0000       3.420107        93.0658 
  89   0.0000       3.484692        94.8233 
  90   0.0000       3.490059        94.9693 
  91   0.0000       3.614469        98.3547 
  92   0.0000       3.685150       100.2780 
  93   0.0000       3.800675       103.4216 
  94   0.0000       3.984638       108.4275 
  95   0.0000       4.033211       109.7493 
  96   0.0000       4.070976       110.7769 
  97   0.0000       4.273784       116.2956 
  98   0.0000       4.437365       120.7468 
  99   0.0000       4.544059       123.6501 
 100   0.0000       4.593767       125.0028 
 101   0.0000       4.748636       129.2170 
 102   0.0000       5.192374       141.2917 
 103   0.0000       5.225438       142.1914 
 104   0.0000       5.433364       147.8494 
 105   0.0000       5.436460       147.9336 
 106   0.0000       5.813473       158.1927 
 107   0.0000       5.827508       158.5745 
 108   0.0000       5.992534       163.0651 
 109   0.0000       6.370913       173.3614 
 110   0.0000       6.376321       173.5085 
 111   0.0000       6.813468       185.4039 
 112   0.0000       6.835590       186.0059 
 113   0.0000       6.958087       189.3392 
 114   0.0000      22.081227       600.8607 
 115   0.0000      22.491854       612.0345 
 116   0.0000      43.817168      1192.3258 

                    ********************************
                    * MULLIKEN POPULATION ANALYSIS *
                    ********************************

-----------------------
MULLIKEN ATOMIC CHARGES
-----------------------
   0 O :   -0.391986
   1 C :   -0.085081
   2 C :   -0.125062
   3 H :    0.127347
   4 H :    0.132357
   5 H :    0.167214
   6 H :    0.175211
Sum of atomic charges:    0.0000000

--------------------------------
MULLIKEN REDUCED ORBITAL CHARGES
--------------------------------
  0 O s       :     3.899538  s :     3.899538
      pz      :     1.931538  p :     4.465821
      px      :     1.146679
      py      :     1.387604
      dz2     :     0.003167  d :     0.025310
      dxz     :     0.000340
      dyz     :     0.006283
      dx2y2   :     0.008632
      dxy     :     0.006888
      f0      :     0.000165  f :     0.001316
      f+1     :     0.000081
      f-1     :     0.000269
      f+2     :     0.000184
      f-2     :     0.000048
      f+3     :     0.000302
      f-3     :     0.000268
  1 C s       :     3.216726  s :     3.216726
      pz      :     1.080938  p :     2.697702
      px      :     0.861656
      py      :     0.755108
      dz2     :     0.016047  d :     0.160476
      dxz     :     0.016527
      dyz     :     0.047308
      dx2y2   :     0.024014
      dxy     :     0.056580
      f0      :     0.002133  f :     0.010176
      f+1     :     0.001339
      f-1     :     0.000560
      f+2     :     0.002401
      f-2     :     0.000776
      f+3     :     0.002643
      f-3     :     0.000325
  2 C s       :     3.294802  s :     3.294802
      pz      :     1.061047  p :     2.784795
      px      :     1.020588
      py      :     0.703159
      dz2     :     0.005836  d :     0.041550
      dxz     :     0.020361
      dyz     :     0.002047
      dx2y2   :     0.003993
      dxy     :     0.009313
      f0      :     0.000506  f :     0.003915
      f+1     :     0.001126
      f-1     :     0.000088
      f+2     :     0.000535
      f-2     :     0.000155
      f+3     :     0.000631
      f-3     :     0.000874
  3 H s       :     0.848675  s :     0.848675
      pz      :     0.011279  p :     0.023978
      px      :     0.006209
      py      :     0.006490
  4 H s       :     0.842917  s :     0.842917
      pz      :     0.011024  p :     0.024726
      px      :     0.006747
      py      :     0.006954
  5 H s       :     0.806667  s :     0.806667
      pz      :     0.011974  p :     0.026119
      px      :     0.008272
      py      :     0.005873
  6 H s       :     0.803215  s :     0.803215
      pz      :     0.011132  p :     0.021574
      px      :     0.006444
      py      :     0.003998


                     *******************************
                     * LOEWDIN POPULATION ANALYSIS *
                     *******************************

----------------------
LOEWDIN ATOMIC CHARGES
----------------------
   0 O :   -0.053622
   1 C :   -0.462898
   2 C :    0.043354
   3 H :    0.119809
   4 H :    0.119349
   5 H :    0.086637
   6 H :    0.147370

-------------------------------
LOEWDIN REDUCED ORBITAL CHARGES
-------------------------------
  0 O s       :     3.549499  s :     3.549499
      pz      :     1.846642  p :     4.437694
      px      :     1.106493
      py      :     1.484559
      dz2     :     0.006566  d :     0.062238
      dxz     :     0.000905
      dyz     :     0.019793
      dx2y2   :     0.019485
      dxy     :     0.015488
      f0      :     0.000533  f :     0.004191
      f+1     :     0.000130
      f-1     :     0.000555
      f+2     :     0.000791
      f-2     :     0.000228
      f+3     :     0.000906
      f-3     :     0.001049
  1 C s       :     2.835783  s :     2.835783
      pz      :     1.069784  p :     2.962415
      px      :     0.995527
      py      :     0.897104
      dz2     :     0.084604  d :     0.592652
      dxz     :     0.078589
      dyz     :     0.126547
      dx2y2   :     0.122360
      dxy     :     0.180551
      f0      :     0.012847  f :     0.072048
      f+1     :     0.007299
      f-1     :     0.006719
      f+2     :     0.013516
      f-2     :     0.005739
      f+3     :     0.020910
      f-3     :     0.005019
  2 C s       :     2.921898  s :     2.921898
      pz      :     1.094959  p :     2.833086
      px      :     1.103481
      py      :     0.634647
      dz2     :     0.029896  d :     0.183093
      dxz     :     0.087963
      dyz     :     0.006421
      dx2y2   :     0.029368
      dxy     :     0.029444
      f0      :     0.002958  f :     0.018569
      f+1     :     0.003202
      f-1     :     0.000896
      f+2     :     0.003098
      f-2     :     0.001222
      f+3     :     0.003235
      f-3     :     0.003958
  3 H s       :     0.811899  s :     0.811899
      pz      :     0.033014  p :     0.068292
      px      :     0.017485
      py      :     0.017793
  4 H s       :     0.809338  s :     0.809338
      pz      :     0.032810  p :     0.071313
      px      :     0.019237
      py      :     0.019266
  5 H s       :     0.824778  s :     0.824778
      pz      :     0.042960  p :     0.088585
      px      :     0.027322
      py      :     0.018303
  6 H s       :     0.791661  s :     0.791661
      pz      :     0.032622  p :     0.060969
      px      :     0.017618
      py      :     0.010729


                      *****************************
                      * MAYER POPULATION ANALYSIS *
                      *****************************

  NA   - Mulliken gross atomic population
  ZA   - Total nuclear charge
  QA   - Mulliken gross atomic charge
  VA   - Mayer's total valence
  BVA  - Mayer's bonded valence
  FA   - Mayer's free valence

  ATOM       NA         ZA         QA         VA         BVA        FA
  0 O      8.3920     8.0000    -0.3920     1.7600     1.7600     0.0000
  1 C      6.0851     6.0000    -0.0851     4.0095     4.0095     0.0000
  2 C      6.1251     6.0000    -0.1251     3.6896     3.6896     0.0000
  3 H      0.8727     1.0000     0.1273     0.9874     0.9874     0.0000
  4 H      0.8676     1.0000     0.1324     0.9918     0.9918     0.0000
  5 H      0.8328     1.0000     0.1672     0.9644     0.9644     0.0000
  6 H      0.8248     1.0000     0.1752     0.9623     0.9623    -0.0000

  Mayer bond orders larger than 0.100000
B(  0-O ,  1-C ) :   0.9932 B(  0-O ,  2-C ) :   0.7836 B(  1-C ,  2-C ) :   1.0164 
B(  1-C ,  3-H ) :   0.9950 B(  1-C ,  4-H ) :   0.9980 B(  2-C ,  5-H ) :   0.9525 
B(  2-C ,  6-H ) :   0.9467 

-------
TIMINGS
-------

Total SCF time: 0 days 0 hours 0 min 0 sec 

Total time                  ....       0.981 sec
Sum of individual times     ....       0.901 sec  ( 91.9%)

Fock matrix formation       ....       0.696 sec  ( 71.0%)
  Split-RI-J                ....       0.113 sec  ( 16.2% of F)
  Chain of spheres X        ....       0.513 sec  ( 73.7% of F)
  XC integration            ....       0.062 sec  (  8.9% of F)
    Basis function eval.    ....       0.018 sec  ( 28.9% of XC)
    Density eval.           ....       0.013 sec  ( 21.6% of XC)
    XC-Functional eval.     ....       0.004 sec  (  6.0% of XC)
    XC-Potential eval.      ....       0.020 sec  ( 31.9% of XC)
Diagonalization             ....       0.002 sec  (  0.2%)
Density matrix formation    ....       0.000 sec  (  0.0%)
Population analysis         ....       0.003 sec  (  0.3%)
Initial guess               ....       0.004 sec  (  0.4%)
Orbital Transformation      ....       0.000 sec  (  0.0%)
Orbital Orthonormalization  ....       0.001 sec  (  0.2%)
DIIS solution               ....       0.001 sec  (  0.1%)
SOSCF solution              ....       0.002 sec  (  0.2%)
Grid generation             ....       0.192 sec  ( 19.6%)

Maximum memory used throughout the entire SCF-calculation: 61.1 MB


           ************************************************************
           *        Program running with 8 parallel MPI-processes     *
           *              working on a common directory               *
           ************************************************************
------------------------------------------------------------------------------
                        ORCA TD-DFT/TDA CALCULATION
------------------------------------------------------------------------------

Input orbitals are from        ... ox_es1_F_orca0007.gbw
CI-vector output               ... ox_es1_F_orca0007.cis
Tamm-Dancoff approximation     ... operative
CIS-Integral strategy          ... AO-integrals
Integral handling              ... AO integral Direct
Max. core memory used          ... 3000 MB
Reference state                ... RHF
Generation of triplets         ... off
Follow IRoot                   ... off
Number of operators            ... 1
Orbital ranges used for CIS calculation:
 Operator 0:  Orbitals   3... 11  to  12...116
XAS localization array:
 Operator 0:  Orbitals  -1... -1

-------------------
XC-INTEGRATION GRID
-------------------

General Integration Accuracy     IntAcc      ... 3.467
Radial Grid Type                 RadialGrid  ... OptM3 with GC (2021)
Angular Grid (max. ang.)         AngularGrid ... 1 (Lebedev-50)
Angular grid pruning method      GridPruning ... 4 (adaptive)
Weight generation scheme         WeightScheme... Becke
Basis function cutoff            BFCut       ... 1.0000e-11
Integration weight cutoff        WCut        ... 1.0000e-14
Angular grids for H and He will be reduced by one unit
Partially contracted basis set               ... off
Rotationally invariant grid construction     ... off

Total number of grid points                  ...     4547
Total number of batches                      ...       75
Average number of points per batch           ...       60
Average number of grid points per atom       ...      650

---------------------
COSX-INTEGRATION GRID
---------------------

General Integration Accuracy     IntAcc      ... 3.067
Radial Grid Type                 RadialGrid  ... OptM3 with GC (2021)
Angular Grid (max. ang.)         AngularGrid ... 1 (Lebedev-50)
Angular grid pruning method      GridPruning ... 4 (adaptive)
Weight generation scheme         WeightScheme... Becke
Basis function cutoff            BFCut       ... 1.0000e-11
Integration weight cutoff        WCut        ... 1.0000e-14
Angular grids for H and He will be reduced by one unit
Partially contracted basis set               ... on
Rotationally invariant grid construction     ... off

Total number of grid points                  ...     2087
Total number of batches                      ...       37
Average number of points per batch           ...       56
Average number of grid points per atom       ...      298

---------------
TD-DFT XC SETUP
---------------

DFT calculation                         ... on
Name of the grid file                   ... ox_es1_F_orca0007.grid_cis.tmp
Exchange functional (TD-DFT)            ... PBE
   PBE kappa parameter  XKappa (TD-DFT) ...  0.804000
   PBE mue parameter   XMuePBE (TD-DFT) ...  0.219520
Correlation functional (TD-DFT)         ... PBE
   PBE beta parameter CBetaPBE (TD-DFT) ...  0.066725
 LDA part of GGA corr.  LDAOpt (TD-DFT) ... PW91-LDA
Hybrid DFT                              ... on
   Exchange mixing (TD-DFT)             ...  0.250
   GGA exch. scaling (TD-DFT)           ...  0.750
   GGA corr. scaling (TD-DFT)           ...  1.000

Building densities             ... done
Calculating rho(r) on the grid ... done
Building xc-kernel on the grid ... done
                    *** TD-DFT CALCULATION INITIALIZED ***

------------------------
DAVIDSON-DIAGONALIZATION
------------------------

Dimension of the eigenvalue problem            ...    945
Number of roots to be determined               ...      1
Maximum size of the expansion space            ...     10
Maximum number of iterations                   ...    100
Convergence tolerance for the residual         ...    2.500e-07
Convergence tolerance for the energies         ...    2.500e-07
Orthogonality tolerance                        ...    1.000e-14
Level Shift                                    ...    0.000e+00
Constructing the preconditioner                ... o.k.
Building the initial guess                     ... o.k.
Number of trial vectors determined             ...     10


                       ****Iteration    0****

   Memory handling for direct AO based CIS:
   Memory per vector needed      ...     1 MB
   Memory needed                 ...     1 MB
   Memory available              ...  3000 MB
   Number of vectors per batch   ...  3000
   Number of batches             ...     1
   Time for densities:            0.000
   Time for RI-J (Direct):        0.015
   Time for K (COSX):             0.055
   Time for XC-Integration:       0.015
   Time for Sigma-Completion:     0.000
   Size of expansion space: 3
   Lowest Energy          :     0.001369353028
   Maximum Energy change  :     0.001369353028 (vector 0)
   Maximum residual norm  :     0.002274138680

                       ****Iteration    1****
   Time for densities:            0.000
   Time for RI-J (Direct):        0.013
   Time for K (COSX):             0.049
   Time for XC-Integration:       0.006
   Time for Sigma-Completion:     0.000
   Size of expansion space: 4
   Lowest Energy          :    -0.000077888207
   Maximum Energy change  :     0.001447241235 (vector 0)
   Maximum residual norm  :     0.000025455677

                       ****Iteration    2****
   Time for densities:            0.000
   Time for RI-J (Direct):        0.012
   Time for K (COSX):             0.049
   Time for XC-Integration:       0.006
   Time for Sigma-Completion:     0.000
   Size of expansion space: 5
   Lowest Energy          :    -0.000092532064
   Maximum Energy change  :     0.000014643858 (vector 0)
   Maximum residual norm  :     0.000000585810

                       ****Iteration    3****
   Time for densities:            0.000
   Time for RI-J (Direct):        0.012
   Time for K (COSX):             0.049
   Time for XC-Integration:       0.006
   Time for Sigma-Completion:     0.000
   Size of expansion space: 6
   Lowest Energy          :    -0.000093002830
   Maximum Energy change  :     0.000000470766 (vector 0)
   Maximum residual norm  :     0.000000036587

      *** CONVERGENCE OF RESIDUAL NORM REACHED ***

Storing the converged CI vectors               ... ox_es1_F_orca0007.cis1

                 *** DAVIDSON DONE ***

Total time for solving the CIS problem:     0.291sec

------------------------------------
TD-DFT/TDA EXCITED STATES (SINGLETS)
------------------------------------

the weight of the individual excitations are printed if larger than 1.0e-02

STATE  1:  E=  -0.000093 au     -0.003 eV      -20.4 cm**-1 <S**2> =   0.000000
    11a ->  12a  :     0.996472 (c=  0.99823440)


-----------------------------
TD-DFT/TDA-EXCITATION SPECTRA
-----------------------------

Center of mass = ( -0.8206,  0.0636, -0.0429)
Calculating the Dipole integrals                  ... done
Transforming integrals                            ... done
Calculating the Linear Momentum integrals         ... done
Transforming integrals                            ... done
Calculating angular momentum integrals            ... done
Transforming integrals                            ... done

-----------------------------------------------------------------------------
         ABSORPTION SPECTRUM VIA TRANSITION ELECTRIC DIPOLE MOMENTS
-----------------------------------------------------------------------------
State   Energy    Wavelength  fosc         T2        TX        TY        TZ  
        (cm-1)      (nm)                 (au**2)    (au)      (au)      (au) 
-----------------------------------------------------------------------------
   1     -20.4   -489913.6   -0.000000171   0.00276  -0.00535  -0.00208  -0.05218

-----------------------------------------------------------------------------
         ABSORPTION SPECTRUM VIA TRANSITION VELOCITY DIPOLE MOMENTS
-----------------------------------------------------------------------------
State   Energy    Wavelength   fosc        P2         PX        PY        PZ  
        (cm-1)      (nm)                 (au**2)     (au)      (au)      (au) 
-----------------------------------------------------------------------------
   1     -20.4   -489913.6   -1.540451318   0.00021  -0.00197  -0.00018   0.01453

-------------------------------------------------------------------
                             CD SPECTRUM
-------------------------------------------------------------------
State  Energy     Wavelength     R         MX        MY        MZ   
       (cm-1)       (nm)     (1e40*cgs)   (au)      (au)      (au)  
-------------------------------------------------------------------
   1     -20.4   -489913.6     -0.18387  -0.05785   0.30667   0.00119

-------------------------------------------------------------------
         CD SPECTRUM VIA TRANSITION VELOCITY DIPOLE MOMENTS        
-------------------------------------------------------------------
State  Energy     Wavelength     R         MX        MY        MZ   
       (cm-1)       (nm)     (1e40*cgs)   (au)      (au)      (au)  
-------------------------------------------------------------------
   1     -20.4   -489913.6    -384.77424  -0.05785   0.30667   0.00119

Total run time:        0.534 sec

           *** ORCA-CIS/TD-DFT FINISHED WITHOUT ERROR ***

Maximum memory used throughout the entire CIS-calculation: 49.4 MB

-----------------------
CIS/TD-DFT TOTAL ENERGY
-----------------------

    E(SCF)  =   -153.487816200 Eh
    DE(CIS) =     -0.000093003 Eh (Root  1)
    ----------------------------- ---------
    E(tot)  =   -153.487909203 Eh



-------------------------------------------------------------------------------
                          DFT DISPERSION CORRECTION                            
                                                                               
                              DFTD3 V3.1  Rev 1                                
                          USING Becke-Johnson damping                          
-------------------------------------------------------------------------------
The PBE0 functional is recognized
Active option DFTDOPT                   ...         4   

molecular C6(AA) [au] = 394.806556 


            DFT-D V3
 parameters
 s6 scaling factor         :     1.0000 
 a1 scaling factor         :     0.4145 
 s8 scaling factor         :     1.2177 
 a2 scaling factor         :     4.8593 
 ad hoc parameters k1-k3   :    16.0000     1.3333    -4.0000 

 Edisp/kcal,au: -1.639580497260  -0.002612837559 
 E6   /kcal   :  -1.069616933 
 E8   /kcal   :  -0.569963564 
 % E8         :  34.762767992 

-------------------------   ----------------
Dispersion correction           -0.002612838
-------------------------   ----------------


-------------------------   --------------------
FINAL SINGLE POINT ENERGY      -153.490522040091
-------------------------   --------------------



           ************************************************************
           *        Program running with 8 parallel MPI-processes     *
           *              working on a common directory               *
           ************************************************************
------------------------------------------------------------------------------
                         ORCA SCF GRADIENT CALCULATION
------------------------------------------------------------------------------


------------------------
TD-DFT GRADIENT XC SETUP
------------------------

Building densities                     ... done
Calculating rho(r) on the grid         ... done
Building xc-kernel on the grid         ... done
Building xc 3rd derivative on the grid      ... done
                *** TD-DFT GRADIENT CALCULATION INITIALIZED ***

-------------------
TD-DFT/TDA GRADIENT
-------------------

Reference wavefunction             ... RHF
State of interest                  ... 1
Basis dimension                    ... 117
DFT-XC contribution needed         ... YES
RI-approximation                   ... ON
CIS-vectors being read from        ... ox_es1_F_orca0007.cis

 => Number of Vectors found: 1
 => Orbital Window: 3...11 -> 12...116

Reading the CIS file                     ... done
Norm of the CI vector                    ... 1.000000000
Making the CIS (pseudo)densities         ... done
Making operators G(D) and Q(T)           ... done
Transforming the Fock operators          ... done
Making the frozen-core relaxed density   ... done
Constructing the G(H) operator           ... done
Transforming the G(H) operator           ... done
Calculating the CIS Lagrangian           ... done
Solving the Z-vector equations           ... done
Finalizing the relaxed density           ... done
Storing the relaxed density              ... done
Constructing the G(Z) operator           ... done
Transforming the G(Z) operator           ... done
Making the W-matrix                      ... done
Finalizing the W-matrix                  ... done
Transforming the W-matrix                ... done
Nuclear repulsion gradient               ... done
One-Electron gradient                    ... done
Dispersion correction                    ... done
Prescreening matrices                    ... done
COSX-gradient                            ... done
Coulomb gradient (RI)                    ... done
Exchange-Correlation gradient            ... done

                 ---------------------------
                 EXCITED STATE GRADIENT DONE
                 ---------------------------

------------------
CARTESIAN GRADIENT
------------------

   1   O   :   -0.010631343   -0.029961789   -0.000164008
   2   C   :   -0.063646870   -0.073921536   -0.009680355
   3   C   :    0.093476839    0.023783555   -0.114921473
   4   H   :    0.011083018    0.041553641   -0.016773013
   5   H   :    0.012743159    0.045137151    0.024603839
   6   H   :   -0.053306086    0.007708871    0.093084179
   7   H   :    0.010342387   -0.014163038    0.023865627

Difference to translation invariance:
           :    0.0000611037    0.0001368549    0.0000147972

Difference to rotation invariance:
           :    0.0000235603    0.0001010565   -0.0006903469

Norm of the cartesian gradient     ...    0.2247421551
RMS gradient                       ...    0.0490427589
MAX gradient                       ...    0.1149214726

------------------------------------------------------------------------------
                  RELAXED CIS/TDA DENSITY POPULATION ANALYSIS
                                   IROOT 1
------------------------------------------------------------------------------
------------------------------------------------------------------------------
                           ORCA POPULATION ANALYSIS
------------------------------------------------------------------------------
Input electron density              ... ox_es1_F_orca0007.cisp
BaseName (.gbw .S,...)              ... ox_es1_F_orca0007

                    ********************************
                    * MULLIKEN POPULATION ANALYSIS *
                    ********************************

-----------------------
MULLIKEN ATOMIC CHARGES
-----------------------
   0 O :   -0.341347
   1 C :   -0.089937
   2 C :   -0.188316
   3 H :    0.159489
   4 H :    0.165998
   5 H :    0.147425
   6 H :    0.146688
Sum of atomic charges:    0.0000000

--------------------------------
MULLIKEN REDUCED ORBITAL CHARGES
--------------------------------
  0 O s       :     3.894641  s :     3.894641
      pz      :     1.113623  p :     4.420017
      px      :     1.911528
      py      :     1.394866
      dz2     :     0.002915  d :     0.025520
      dxz     :     0.000374
      dyz     :     0.007506
      dx2y2   :     0.008213
      dxy     :     0.006513
      f0      :     0.000084  f :     0.001169
      f+1     :     0.000010
      f-1     :     0.000058
      f+2     :     0.000170
      f-2     :     0.000068
      f+3     :     0.000405
      f-3     :     0.000373
  1 C s       :     3.219450  s :     3.219450
      pz      :     1.005687  p :     2.710841
      px      :     0.923187
      py      :     0.781967
      dz2     :     0.015292  d :     0.148997
      dxz     :     0.019848
      dyz     :     0.026554
      dx2y2   :     0.030180
      dxy     :     0.057123
      f0      :     0.001151  f :     0.010648
      f+1     :     0.001485
      f-1     :     0.000298
      f+2     :     0.001341
      f-2     :     0.000455
      f+3     :     0.003142
      f-3     :     0.002777
  2 C s       :     3.293175  s :     3.293175
      pz      :     1.039524  p :     2.855239
      px      :     0.990648
      py      :     0.825068
      dz2     :     0.005340  d :     0.036139
      dxz     :     0.014809
      dyz     :     0.001990
      dx2y2   :     0.004649
      dxy     :     0.009352
      f0      :     0.000470  f :     0.003761
      f+1     :     0.001042
      f-1     :     0.000165
      f+2     :     0.000501
      f-2     :     0.000074
      f+3     :     0.000672
      f-3     :     0.000838
  3 H s       :     0.815858  s :     0.815858
      pz      :     0.011627  p :     0.024653
      px      :     0.006380
      py      :     0.006646
  4 H s       :     0.808538  s :     0.808538
      pz      :     0.011387  p :     0.025464
      px      :     0.007034
      py      :     0.007043
  5 H s       :     0.826270  s :     0.826270
      pz      :     0.011480  p :     0.026305
      px      :     0.007915
      py      :     0.006909
  6 H s       :     0.831800  s :     0.831800
      pz      :     0.010547  p :     0.021512
      px      :     0.006219
      py      :     0.004746


                     *******************************
                     * LOEWDIN POPULATION ANALYSIS *
                     *******************************

----------------------
LOEWDIN ATOMIC CHARGES
----------------------
   0 O :   -0.022434
   1 C :   -0.424111
   2 C :   -0.068043
   3 H :    0.153514
   4 H :    0.152897
   5 H :    0.076424
   6 H :    0.131754

-------------------------------
LOEWDIN REDUCED ORBITAL CHARGES
-------------------------------
  0 O s       :     3.551487  s :     3.551487
      pz      :     1.077504  p :     4.405825
      px      :     1.833292
      py      :     1.495029
      dz2     :     0.006602  d :     0.061159
      dxz     :     0.000815
      dyz     :     0.017194
      dx2y2   :     0.020388
      dxy     :     0.016159
      f0      :     0.000540  f :     0.003964
      f+1     :     0.000082
      f-1     :     0.000364
      f+2     :     0.000539
      f-2     :     0.000193
      f+3     :     0.001024
      f-3     :     0.001221
  1 C s       :     2.839232  s :     2.839232
      pz      :     1.001219  p :     2.947021
      px      :     1.034524
      py      :     0.911277
      dz2     :     0.084169  d :     0.561260
      dxz     :     0.084303
      dyz     :     0.065810
      dx2y2   :     0.158628
      dxy     :     0.168351
      f0      :     0.007378  f :     0.076599
      f+1     :     0.007350
      f-1     :     0.006349
      f+2     :     0.008200
      f-2     :     0.003025
      f+3     :     0.023613
      f-3     :     0.020683
  2 C s       :     2.931356  s :     2.931356
      pz      :     1.086137  p :     2.939282
      px      :     1.091951
      py      :     0.761194
      dz2     :     0.030558  d :     0.178713
      dxz     :     0.078337
      dyz     :     0.006076
      dx2y2   :     0.030899
      dxy     :     0.032844
      f0      :     0.002767  f :     0.018692
      f+1     :     0.003543
      f-1     :     0.001017
      f+2     :     0.002829
      f-2     :     0.001071
      f+3     :     0.003567
      f-3     :     0.003897
  3 H s       :     0.777918  s :     0.777918
      pz      :     0.033255  p :     0.068568
      px      :     0.017565
      py      :     0.017749
  4 H s       :     0.775396  s :     0.775396
      pz      :     0.033061  p :     0.071707
      px      :     0.019562
      py      :     0.019084
  5 H s       :     0.833235  s :     0.833235
      pz      :     0.041084  p :     0.090341
      px      :     0.026444
      py      :     0.022813
  6 H s       :     0.806998  s :     0.806998
      pz      :     0.030748  p :     0.061248
      px      :     0.017120
      py      :     0.013380


                      *****************************
                      * MAYER POPULATION ANALYSIS *
                      *****************************

  NA   - Mulliken gross atomic population
  ZA   - Total nuclear charge
  QA   - Mulliken gross atomic charge
  VA   - Mayer's total valence
  BVA  - Mayer's bonded valence
  FA   - Mayer's free valence

  ATOM       NA         ZA         QA         VA         BVA        FA
  0 O      8.3413     8.0000    -0.3413     1.6862     1.2387     0.4475
  1 C      6.0899     6.0000    -0.0899     4.0960     4.0170     0.0790
  2 C      6.1883     6.0000    -0.1883     3.7785     3.0431     0.7354
  3 H      0.8405     1.0000     0.1595     0.9752     0.9246     0.0505
  4 H      0.8340     1.0000     0.1660     0.9769     0.9379     0.0390
  5 H      0.8526     1.0000     0.1474     0.9725     0.9656     0.0069
  6 H      0.8533     1.0000     0.1467     0.9739     0.9679     0.0060

  Mayer bond orders larger than 0.100000
B(  0-O ,  1-C ) :   1.1121 B(  1-C ,  2-C ) :   1.0628 B(  1-C ,  3-H ) :   0.9147 
B(  1-C ,  4-H ) :   0.9165 B(  2-C ,  5-H ) :   0.9539 B(  2-C ,  6-H ) :   0.9510 



-------
TIMINGS
-------

Total TD-DFT gradient time         ...        5.889 sec

Fock matrix formation       ....       0.802 sec  ( 13.6%)
  Coulomb formation         ....       0.654 sec  ( 81.5% of F)
  RI-J                      ....       0.285 sec  ( 35.5% of F)
  Chain of spheres X        ....       0.368 sec  ( 45.9% of F)
  XC integration            ....       0.149 sec  ( 18.5% of F)
Z-vector equation           ....       2.411 sec  ( 40.9%)
One electron gradient       ....       0.032 sec  (  0.5%)
Prescreening matrices       ....       0.152 sec  (  2.6%)
RI-J Coulomb gradient       ....       0.248 sec  (  4.2%)
COSX gradient               ....       0.358 sec  (  6.1%)
XC gradient                 ....       1.591 sec  ( 27.0%)

Maximum memory used throughout the entire SCFGRAD-calculation: 130.2 MB

                            ***************************************
                            *     ORCA property calculations      *
                            ***************************************

                                    ---------------------
                                    Active property flags
                                    ---------------------
   (+) Dipole Moment


------------------------------------------------------------------------------
                       ORCA ELECTRIC PROPERTIES CALCULATION
------------------------------------------------------------------------------

Dipole Moment Calculation                       ... on
Quadrupole Moment Calculation                   ... off
Polarizability Calculation                      ... off
GBWName                                         ... ox_es1_F_orca0007.gbw
Electron density                                ... ox_es1_F_orca0007.scfp
The origin for moment calculation is the CENTER OF MASS  = (-0.820563,  0.063595 -0.042887)

-------------
DIPOLE MOMENT
-------------
                                X             Y             Z
Electronic contribution:     -0.65182       1.25593      -0.10036
Nuclear contribution   :      1.60920      -2.37376       0.09319
                        -----------------------------------------
Total Dipole Moment    :      0.95738      -1.11783      -0.00716
                        -----------------------------------------
Magnitude (a.u.)       :      1.47179
Magnitude (Debye)      :      3.74100



--------------------
Rotational spectrum 
--------------------
 
Rotational constants in cm-1:     1.378749     0.351821     0.316014 
Rotational constants in MHz : 41333.861991 10547.340862  9473.860807 

 Dipole components along the rotational axes: 
x,y,z [a.u.] :    -1.392698    -0.475965     0.004797 
x,y,z [Debye]:    -3.539957    -1.209808     0.012192 

 

                        *** CIS RELAXED DENSITY ***

------------------------------------------------------------------------------
                       ORCA ELECTRIC PROPERTIES CALCULATION
------------------------------------------------------------------------------

Dipole Moment Calculation                       ... on
Quadrupole Moment Calculation                   ... off
Polarizability Calculation                      ... off
GBWName                                         ... ox_es1_F_orca0007.gbw
Electron density                                ... ox_es1_F_orca0007.cisp
The origin for moment calculation is the CENTER OF MASS  = (-0.820563,  0.063595 -0.042887)

-------------
DIPOLE MOMENT
-------------
                                X             Y             Z
Electronic contribution:     -1.11145       1.36787      -0.09281
Nuclear contribution   :      1.60920      -2.37376       0.09319
                        -----------------------------------------
Total Dipole Moment    :      0.49776      -1.00589       0.00038
                        -----------------------------------------
Magnitude (a.u.)       :      1.12231
Magnitude (Debye)      :      2.85269



--------------------
Rotational spectrum 
--------------------
 
Rotational constants in cm-1:     1.378749     0.351821     0.316014 
Rotational constants in MHz : 41333.861991 10547.340862  9473.860807 

 Dipole components along the rotational axes: 
x,y,z [a.u.] :    -0.939942    -0.613186     0.009637 
x,y,z [Debye]:    -2.389142    -1.558596     0.024496 

 

Timings for individual modules:

Sum of individual times         ...        8.196 sec (=   0.137 min)
GTO integral calculation        ...        0.258 sec (=   0.004 min)   3.1 %
SCF iterations                  ...        1.146 sec (=   0.019 min)  14.0 %
CIS module                      ...        0.722 sec (=   0.012 min)   8.8 %
SCF Gradient evaluation         ...        6.070 sec (=   0.101 min)  74.1 %
                             ****ORCA TERMINATED NORMALLY****
TOTAL RUN TIME: 0 days 0 hours 0 minutes 8 seconds 511 msec
