
                                 *****************
                                 * O   R   C   A *
                                 *****************

                                            #,                                       
                                            ###                                      
                                            ####                                     
                                            #####                                    
                                            ######                                   
                                           ########,                                 
                                     ,,################,,,,,                         
                               ,,#################################,,                 
                          ,,##########################################,,             
                       ,#########################################, ''#####,          
                    ,#############################################,,   '####,        
                  ,##################################################,,,,####,       
                ,###########''''           ''''###############################       
              ,#####''   ,,,,##########,,,,          '''####'''          '####       
            ,##' ,,,,###########################,,,                        '##       
           ' ,,###''''                  '''############,,,                           
         ,,##''                                '''############,,,,        ,,,,,,###''
      ,#''                                            '''#######################'''  
     '                                                          ''''####''''         
             ,#######,   #######,   ,#######,      ##                                
            ,#'     '#,  ##    ##  ,#'     '#,    #''#        ######   ,####,        
            ##       ##  ##   ,#'  ##            #'  '#       #        #'  '#        
            ##       ##  #######   ##           ,######,      #####,   #    #        
            '#,     ,#'  ##    ##  '#,     ,#' ,#      #,         ##   #,  ,#        
             '#######'   ##     ##  '#######'  #'      '#     #####' # '####'        



                  #######################################################
                  #                        -***-                        #
                  #          Department of theory and spectroscopy      #
                  #    Directorship and core code : Frank Neese         #
                  #        Max Planck Institute fuer Kohlenforschung    #
                  #                Kaiser Wilhelm Platz 1               #
                  #                 D-45470 Muelheim/Ruhr               #
                  #                      Germany                        #
                  #                                                     #
                  #                  All rights reserved                #
                  #                        -***-                        #
                  #######################################################


                         Program Version 5.0.2 -  RELEASE  -


 With contributions from (in alphabetic order):
   Daniel Aravena         : Magnetic Suceptibility
   Michael Atanasov       : Ab Initio Ligand Field Theory (pilot matlab implementation)
   Alexander A. Auer      : GIAO ZORA, VPT2 properties, NMR spectrum
   Ute Becker             : Parallelization
   Giovanni Bistoni       : ED, misc. LED, open-shell LED, HFLD
   Martin Brehm           : Molecular dynamics
   Dmytro Bykov           : SCF Hessian
   Vijay G. Chilkuri      : MRCI spin determinant printing, contributions to CSF-ICE
   Dipayan Datta          : RHF DLPNO-CCSD density
   Achintya Kumar Dutta   : EOM-CC, STEOM-CC
   Dmitry Ganyushin       : Spin-Orbit,Spin-Spin,Magnetic field MRCI
   Miquel Garcia          : C-PCM and meta-GGA Hessian, CC/C-PCM, Gaussian charge scheme
   Yang Guo               : DLPNO-NEVPT2, F12-NEVPT2, CIM, IAO-localization
   Andreas Hansen         : Spin unrestricted coupled pair/coupled cluster methods
   Benjamin Helmich-Paris : MC-RPA, TRAH-SCF, COSX integrals
   Lee Huntington         : MR-EOM, pCC
   Robert Izsak           : Overlap fitted RIJCOSX, COSX-SCS-MP3, EOM
   Marcus Kettner         : VPT2
   Christian Kollmar      : KDIIS, OOCD, Brueckner-CCSD(T), CCSD density, CASPT2, CASPT2-K
   Simone Kossmann        : Meta GGA functionals, TD-DFT gradient, OOMP2, MP2 Hessian
   Martin Krupicka        : Initial AUTO-CI
   Lucas Lang             : DCDCAS
   Marvin Lechner         : AUTO-CI (C++ implementation), FIC-MRCC
   Dagmar Lenk            : GEPOL surface, SMD
   Dimitrios Liakos       : Extrapolation schemes; Compound Job, initial MDCI parallelization
   Dimitrios Manganas     : Further ROCIS development; embedding schemes
   Dimitrios Pantazis     : SARC Basis sets
   Anastasios Papadopoulos: AUTO-CI, single reference methods and gradients
   Taras Petrenko         : DFT Hessian,TD-DFT gradient, ASA, ECA, R-Raman, ABS, FL, XAS/XES, NRVS
   Peter Pinski           : DLPNO-MP2, DLPNO-MP2 Gradient
   Christoph Reimann      : Effective Core Potentials
   Marius Retegan         : Local ZFS, SOC
   Christoph Riplinger    : Optimizer, TS searches, QM/MM, DLPNO-CCSD(T), (RO)-DLPNO pert. Triples
   Tobias Risthaus        : Range-separated hybrids, TD-DFT gradient, RPA, STAB
   Michael Roemelt        : Original ROCIS implementation
   Masaaki Saitow         : Open-shell DLPNO-CCSD energy and density
   Barbara Sandhoefer     : DKH picture change effects
   Avijit Sen             : IP-ROCIS
   Kantharuban Sivalingam : CASSCF convergence, NEVPT2, FIC-MRCI
   Bernardo de Souza      : ESD, SOC TD-DFT
   Georgi Stoychev        : AutoAux, RI-MP2 NMR, DLPNO-MP2 response
   Willem Van den Heuvel  : Paramagnetic NMR
   Boris Wezisla          : Elementary symmetry handling
   Frank Wennmohs         : Technical directorship


 We gratefully acknowledge several colleagues who have allowed us to
 interface, adapt or use parts of their codes:
   Stefan Grimme, W. Hujo, H. Kruse, P. Pracht,  : VdW corrections, initial TS optimization,
                  C. Bannwarth, S. Ehlert          DFT functionals, gCP, sTDA/sTD-DF
   Ed Valeev, F. Pavosevic, A. Kumar             : LibInt (2-el integral package), F12 methods
   Garnet Chan, S. Sharma, J. Yang, R. Olivares  : DMRG
   Ulf Ekstrom                                   : XCFun DFT Library
   Mihaly Kallay                                 : mrcc  (arbitrary order and MRCC methods)
   Jiri Pittner, Ondrej Demel                    : Mk-CCSD
   Frank Weinhold                                : gennbo (NPA and NBO analysis)
   Christopher J. Cramer and Donald G. Truhlar   : smd solvation model
   Lars Goerigk                                  : TD-DFT with DH, B97 family of functionals
   V. Asgeirsson, H. Jonsson                     : NEB implementation
   FAccTs GmbH                                   : IRC, NEB, NEB-TS, DLPNO-Multilevel, CI-OPT
                                                   MM, QMMM, 2- and 3-layer-ONIOM, Crystal-QMMM,
                                                   LR-CPCM, SF, NACMEs, symmetry and pop. for TD-DFT,
                                                   nearIR, NL-DFT gradient (VV10), updates on ESD,
                                                   ML-optimized integration grids
   S Lehtola, MJT Oliveira, MAL Marques          : LibXC Library
   Liviu Ungur et al                             : ANISO software


 Your calculation uses the libint2 library for the computation of 2-el integrals
 For citations please refer to: http://libint.valeyev.net

 Your ORCA version has been built with support for libXC version: 5.1.0
 For citations please refer to: https://tddft.org/programs/libxc/

 This ORCA versions uses:
   CBLAS   interface :  Fast vector & matrix operations
   LAPACKE interface :  Fast linear algebra routines
   SCALAPACK package :  Parallel linear algebra routines
   Shared memory     :  Shared parallel matrices
   BLAS/LAPACK       :  OpenBLAS 0.3.15  USE64BITINT DYNAMIC_ARCH NO_AFFINITY SkylakeX SINGLE_THREADED
        Core in use  :  SkylakeX
   Copyright (c) 2011-2014, The OpenBLAS Project


Your calculation utilizes the atom-pairwise dispersion correction
with the Becke-Johnson damping scheme (D3BJ)
Cite in your paper:
S.Grimme, S.Ehrlich, L.Goerigk, J Comput Chem, (2011), 32, 1456–1465 
S.Grimme, J.Antony, S.Ehrlich and H.Krieg, J.Chem.Phys., 132, (2010), 154104 
   

================================================================================

----- Orbital basis set information -----
Your calculation utilizes the basis: def2-TZVP
   F. Weigend and R. Ahlrichs, Phys. Chem. Chem. Phys. 7, 3297 (2005).

----- AuxJ basis set information -----
Your calculation utilizes the auxiliary basis: def2/J
   F. Weigend, Phys. Chem. Chem. Phys. 8, 1057 (2006).

================================================================================
                                        WARNINGS
                       Please study these warnings very carefully!
================================================================================

INFO   : Checking CIS options ...

WARNING: CIS/ROCIS methods need fully converged wavefunctions
  ===> : Setting SCFConvForced true
         You can overwrite this default with %scf ConvForced false 


INFO   : the flag for use of the SHARK integral package has been found!

================================================================================
                                       INPUT FILE
================================================================================
NAME = ox_es1_A_orca0049.inp
|  1> ! engrad PBE0 D3BJ def2-TZVP  
|  2> %pal nprocs 8 end
|  3> %maxcore 3000
|  4> 
|  5> %tddft
|  6>   nroots 1
|  7>   tda true
|  8>   Iroot 1
|  9>   end 
| 10> *xyz 0 1 
| 11> O   -0.05113957825992028 0.7540554831288327 -0.08342909369387948
| 12> C   -0.708928433869736 -0.41466069301486297 -0.0241593231149687
| 13> C   0.8075888781645015 -0.508308773150117 -0.07321874401049101
| 14> H   -1.2526003390720013 -0.6159158948693922 1.0041726045728934
| 15> H   -1.286766983143447 -0.6143368683284353 -0.9219016434750353
| 16> H   1.2551914550029588 -0.6240878631256664 -0.887360076079329
| 17> H   1.1850032621507876 -0.5944437925137052 0.9889807377073726
| 18> *
| 19> 
| 20>                          ****END OF INPUT****
================================================================================

                     *******************************
                     * Energy+Gradient Calculation *
                     *******************************

---------------------------------
CARTESIAN COORDINATES (ANGSTROEM)
---------------------------------
  O     -0.051140    0.754055   -0.083429
  C     -0.708928   -0.414661   -0.024159
  C      0.807589   -0.508309   -0.073219
  H     -1.252600   -0.615916    1.004173
  H     -1.286767   -0.614337   -0.921902
  H      1.255191   -0.624088   -0.887360
  H      1.185003   -0.594444    0.988981

----------------------------
CARTESIAN COORDINATES (A.U.)
----------------------------
  NO LB      ZA    FRAG     MASS         X           Y           Z
   0 O     8.0000    0    15.999   -0.096640    1.424958   -0.157658
   1 C     6.0000    0    12.011   -1.339681   -0.783595   -0.045655
   2 C     6.0000    0    12.011    1.526122   -0.960564   -0.138363
   3 H     1.0000    0     1.008   -2.367072   -1.163912    1.897611
   4 H     1.0000    0     1.008   -2.431637   -1.160928   -1.742142
   5 H     1.0000    0     1.008    2.371968   -1.179355   -1.676868
   6 H     1.0000    0     1.008    2.239332   -1.123336    1.868903

--------------------------------
INTERNAL COORDINATES (ANGSTROEM)
--------------------------------
 O      0   0   0     0.000000000000     0.00000000     0.00000000
 C      1   0   0     1.342421910075     0.00000000     0.00000000
 C      2   1   0     1.520197864553    64.11229649     0.00000000
 H      2   1   3     1.180486912372   114.36543238   111.24194925
 H      2   1   3     1.086144206715   112.59678480   246.96837832
 H      3   2   1     0.936257962877   120.83710563   265.63335027
 H      3   2   1     1.130543496625   107.90254143    95.25756618

---------------------------
INTERNAL COORDINATES (A.U.)
---------------------------
 O      0   0   0     0.000000000000     0.00000000     0.00000000
 C      1   0   0     2.536809766217     0.00000000     0.00000000
 C      2   1   0     2.872757633377    64.11229649     0.00000000
 H      2   1   3     2.230796969062   114.36543238   111.24194925
 H      2   1   3     2.052515092636   112.59678480   246.96837832
 H      3   2   1     1.769271140541   120.83710563   265.63335027
 H      3   2   1     2.136417591108   107.90254143    95.25756618

---------------------
BASIS SET INFORMATION
---------------------
There are 3 groups of distinct atoms

 Group   1 Type O   : 11s6p2d1f contracted to 5s3p2d1f pattern {62111/411/11/1}
 Group   2 Type C   : 11s6p2d1f contracted to 5s3p2d1f pattern {62111/411/11/1}
 Group   3 Type H   : 5s1p contracted to 3s1p pattern {311/1}

Atom   0O    basis set group =>   1
Atom   1C    basis set group =>   2
Atom   2C    basis set group =>   2
Atom   3H    basis set group =>   3
Atom   4H    basis set group =>   3
Atom   5H    basis set group =>   3
Atom   6H    basis set group =>   3
---------------------------------
AUXILIARY/J BASIS SET INFORMATION
---------------------------------
There are 3 groups of distinct atoms

 Group   1 Type O   : 12s5p4d2f1g contracted to 6s4p3d1f1g pattern {711111/2111/211/2/1}
 Group   2 Type C   : 12s5p4d2f1g contracted to 6s4p3d1f1g pattern {711111/2111/211/2/1}
 Group   3 Type H   : 5s2p1d contracted to 3s1p1d pattern {311/2/1}

Atom   0O    basis set group =>   1
Atom   1C    basis set group =>   2
Atom   2C    basis set group =>   2
Atom   3H    basis set group =>   3
Atom   4H    basis set group =>   3
Atom   5H    basis set group =>   3
Atom   6H    basis set group =>   3

Checking for AutoStart:
The File: ox_es1_A_orca0049.gbw exists
Trying to determine its content:
     ... Fine, the file contains calculation information
     ... Fine, the calculation information was read
     ... Fine, the file contains a basis set
     ... Fine, the basis set was read
     ... Fine, the file contains a geometry
     ... Fine, the geometry was read
     ... Fine, the file contains a set of orbitals
     ... Fine, the orbitals can be read
     => possible old guess file was deleted
     => GBW file was renamed to GES file
     => GES file is set as startup file
     => Guess is set to MORead
     ... now leaving AutoStart



           ************************************************************
           *        Program running with 8 parallel MPI-processes     *
           *              working on a common directory               *
           ************************************************************
------------------------------------------------------------------------------
                           ORCA GTO INTEGRAL CALCULATION
                           -- RI-GTO INTEGRALS CHOSEN --
------------------------------------------------------------------------------
------------------------------------------------------------------------------
                   ___                                                        
                  /   \      - P O W E R E D   B Y -                         
                 /     \                                                     
                 |  |  |   _    _      __       _____    __    __             
                 |  |  |  | |  | |    /  \     |  _  \  |  |  /  |          
                  \  \/   | |  | |   /    \    | | | |  |  | /  /          
                 / \  \   | |__| |  /  /\  \   | |_| |  |  |/  /          
                |  |  |   |  __  | /  /__\  \  |    /   |      \           
                |  |  |   | |  | | |   __   |  |    \   |  |\   \          
                \     /   | |  | | |  |  |  |  | |\  \  |  | \   \       
                 \___/    |_|  |_| |__|  |__|  |_| \__\ |__|  \__/        
                                                                              
                      - O R C A' S   B I G   F R I E N D -                    
                                      &                                       
                       - I N T E G R A L  F E E D E R -                       
                                                                              
 v1 FN, 2020, v2 2021                                                         
------------------------------------------------------------------------------


Reading SHARK input file ox_es1_A_orca0049.SHARKINP.tmp ... ok
----------------------
SHARK INTEGRAL PACKAGE
----------------------

Number of atoms                             ...      7
Number of basis functions                   ...    117
Number of shells                            ...     49
Maximum angular momentum                    ...      3
Integral batch strategy                     ... SHARK/LIBINT Hybrid
RI-J (if used) integral strategy            ... SPLIT-RIJ (Revised 2003 algorithm where possible)
Printlevel                                  ...      1
Contraction scheme used                     ... SEGMENTED contraction
Coulomb Range Separation                    ... NOT USED
Exchange Range Separation                   ... NOT USED
Finite Nucleus Model                        ... NOT USED
Auxiliary Coulomb fitting basis             ... AVAILABLE
   # of basis functions in Aux-J            ...    191
   # of shells in Aux-J                     ...     65
   Maximum angular momentum in Aux-J        ...      4
Auxiliary J/K fitting basis                 ... NOT available
Auxiliary Correlation fitting basis         ... NOT available
Auxiliary 'external' fitting basis          ... NOT available
Integral threshold                          ...     2.500000e-11
Primitive cut-off                           ...     2.500000e-12
Primitive pair pre-selection threshold      ...     2.500000e-12

Calculating pre-screening integrals         ... done (  0.0 sec) Dimension = 49
Organizing shell pair data                  ... done (  0.0 sec)
Shell pair information
Total number of shell pairs                 ...      1225
Shell pairs after pre-screening             ...      1221
Total number of primitive shell pairs       ...      3648
Primitive shell pairs kept                  ...      3153
          la=0 lb=0:    374 shell pairs
          la=1 lb=0:    351 shell pairs
          la=1 lb=1:     91 shell pairs
          la=2 lb=0:    162 shell pairs
          la=2 lb=1:     78 shell pairs
          la=2 lb=2:     21 shell pairs
          la=3 lb=0:     81 shell pairs
          la=3 lb=1:     39 shell pairs
          la=3 lb=2:     18 shell pairs
          la=3 lb=3:      6 shell pairs

Calculating one electron integrals          ... done (  0.0 sec)
Calculating RI/J V-Matrix + Cholesky decomp.... done (  0.0 sec)
Calculating Nuclear repulsion               ... done (  0.0 sec) ENN=     75.069780453493 Eh

SHARK setup successfully completed in   0.1 seconds

Maximum memory used throughout the entire GTOINT-calculation: 14.9 MB


           ************************************************************
           *        Program running with 8 parallel MPI-processes     *
           *              working on a common directory               *
           ************************************************************
-------------------------------------------------------------------------------
                                 ORCA SCF
-------------------------------------------------------------------------------

------------
SCF SETTINGS
------------
Hamiltonian:
 Density Functional     Method          .... DFT(GTOs)
 Exchange Functional    Exchange        .... PBE
   PBE kappa parameter   XKappa         ....  0.804000
   PBE mue parameter    XMuePBE         ....  0.219520
 Correlation Functional Correlation     .... PBE
   PBE beta parameter  CBetaPBE         ....  0.066725
 LDA part of GGA corr.  LDAOpt          .... PW91-LDA
 Gradients option       PostSCFGGA      .... off
 Hybrid DFT is turned on
   Fraction HF Exchange ScalHFX         ....  0.250000
   Scaling of DF-GGA-X  ScalDFX         ....  0.750000
   Scaling of DF-GGA-C  ScalDFC         ....  1.000000
   Scaling of DF-LDA-C  ScalLDAC        ....  1.000000
   Perturbative correction              ....  0.000000
   Density functional embedding theory  .... OFF
   NL short-range parameter             ....  6.900000
 RI-approximation to the Coulomb term is turned on
   Number of AuxJ basis functions       .... 191
   RIJ-COSX (HFX calculated with COS-X)).... on


General Settings:
 Integral files         IntName         .... ox_es1_A_orca0049
 Hartree-Fock type      HFTyp           .... RHF
 Total Charge           Charge          ....    0
 Multiplicity           Mult            ....    1
 Number of Electrons    NEL             ....   24
 Basis Dimension        Dim             ....  117
 Nuclear Repulsion      ENuc            ....     75.0697804535 Eh

Convergence Acceleration:
 DIIS                   CNVDIIS         .... on
   Start iteration      DIISMaxIt       ....    12
   Startup error        DIISStart       ....  0.200000
   # of expansion vecs  DIISMaxEq       ....     5
   Bias factor          DIISBfac        ....   1.050
   Max. coefficient     DIISMaxC        ....  10.000
 Trust-Rad. Augm. Hess. CNVTRAH         .... auto
   Auto Start mean grad. ratio tolernc. ....  1.125000
   Auto Start start iteration           ....     1
   Auto Start num. interpolation iter.  ....    10
   Max. Number of Micro iterations      ....    16
   Max. Number of Macro iterations      .... Maxiter - #DIIS iter
   Number of Davidson start vectors     ....     2
   Converg. threshold I  (grad. norm)   ....   1.000e-05
   Converg. threshold II (energy diff.) ....   1.000e-08
   Grad. Scal. Fac. for Micro threshold ....   0.100
   Minimum threshold for Micro iter.    ....   0.010
   NR start threshold (gradient norm)   ....   0.001
   Initial trust radius                 ....   0.400
   Minimum AH scaling param. (alpha)    ....   1.000
   Maximum AH scaling param. (alpha)    .... 1000.000
   Orbital update algorithm             .... Taylor
   White noise on init. David. guess    .... on
   Maximum white noise                  ....   0.010
   Quad. conv. algorithm                .... NR
 SOSCF                  CNVSOSCF        .... on
   Start iteration      SOSCFMaxIt      ....   150
   Startup grad/error   SOSCFStart      ....  0.003300
 Level Shifting         CNVShift        .... on
   Level shift para.    LevelShift      ....    0.2500
   Turn off err/grad.   ShiftErr        ....    0.0010
 Zerner damping         CNVZerner       .... off
 Static damping         CNVDamp         .... on
   Fraction old density DampFac         ....    0.7000
   Max. Damping (<1)    DampMax         ....    0.9800
   Min. Damping (>=0)   DampMin         ....    0.0000
   Turn off err/grad.   DampErr         ....    0.1000
 Fernandez-Rico         CNVRico         .... off

SCF Procedure:
 Maximum # iterations   MaxIter         ....   125
 SCF integral mode      SCFMode         .... Direct
   Integral package                     .... SHARK and LIBINT hybrid scheme
 Reset frequency        DirectResetFreq ....    20
 Integral Threshold     Thresh          ....  2.500e-11 Eh
 Primitive CutOff       TCut            ....  2.500e-12 Eh

Convergence Tolerance:
 Convergence Check Mode ConvCheckMode   .... Total+1el-Energy
 Convergence forced     ConvForced      .... 1
 Energy Change          TolE            ....  1.000e-08 Eh
 1-El. energy change                    ....  1.000e-05 Eh
 Orbital Gradient       TolG            ....  1.000e-05
 Orbital Rotation angle TolX            ....  1.000e-05
 DIIS Error             TolErr          ....  5.000e-07


Diagonalization of the overlap matrix:
Smallest eigenvalue                        ... 5.303e-04
Time for diagonalization                   ...    0.001 sec
Threshold for overlap eigenvalues          ... 1.000e-08
Number of eigenvalues below threshold      ... 0
Time for construction of square roots      ...    0.001 sec
Total time needed                          ...    0.003 sec

---------------------
INITIAL GUESS: MOREAD
---------------------
Guess MOs are being read from file: ox_es1_A_orca0049.ges
Input Geometry matches current geometry (good)
Input basis set matches current basis set (good)
MOs were renormalized
MOs were reorthogonalized (Cholesky)
                      ------------------
                      INITIAL GUESS DONE (   0.0 sec)
                      ------------------
-------------------
DFT GRID GENERATION
-------------------

General Integration Accuracy     IntAcc      ... 4.388
Radial Grid Type                 RadialGrid  ... OptM3 with GC (2021)
Angular Grid (max. ang.)         AngularGrid ... 4 (Lebedev-302)
Angular grid pruning method      GridPruning ... 4 (adaptive)
Weight generation scheme         WeightScheme... Becke
Basis function cutoff            BFCut       ... 1.0000e-11
Integration weight cutoff        WCut        ... 1.0000e-14
Angular grids for H and He will be reduced by one unit
Partially contracted basis set               ... off
Rotationally invariant grid construction     ... off

Total number of grid points                  ...    31302
Total number of batches                      ...      493
Average number of points per batch           ...       63
Average number of grid points per atom       ...     4472
Time for grid setup =    0.117 sec

--------------------
COSX GRID GENERATION
--------------------

GRIDX 1
-------
General Integration Accuracy     IntAcc      ... 3.816
Radial Grid Type                 RadialGrid  ... OptM3 with GC (2021)
Angular Grid (max. ang.)         AngularGrid ... 1 (Lebedev-50)
Angular grid pruning method      GridPruning ... 4 (adaptive)
Weight generation scheme         WeightScheme... Becke
Basis function cutoff            BFCut       ... 1.0000e-11
Integration weight cutoff        WCut        ... 1.0000e-14
Angular grids for H and He will be reduced by one unit
Partially contracted basis set               ... on
Rotationally invariant grid construction     ... off

Total number of grid points                  ...     4035
Total number of batches                      ...       67
Average number of points per batch           ...       60
Average number of grid points per atom       ...      576
UseSFitting                                  ... on

GRIDX 2
-------
General Integration Accuracy     IntAcc      ... 4.020
Radial Grid Type                 RadialGrid  ... OptM3 with GC (2021)
Angular Grid (max. ang.)         AngularGrid ... 2 (Lebedev-110)
Angular grid pruning method      GridPruning ... 4 (adaptive)
Weight generation scheme         WeightScheme... Becke
Basis function cutoff            BFCut       ... 1.0000e-11
Integration weight cutoff        WCut        ... 1.0000e-14
Angular grids for H and He will be reduced by one unit
Partially contracted basis set               ... on
Rotationally invariant grid construction     ... off

Total number of grid points                  ...     8718
Total number of batches                      ...      139
Average number of points per batch           ...       62
Average number of grid points per atom       ...     1245
UseSFitting                                  ... on

GRIDX 3
-------
General Integration Accuracy     IntAcc      ... 4.338
Radial Grid Type                 RadialGrid  ... OptM3 with GC (2021)
Angular Grid (max. ang.)         AngularGrid ... 3 (Lebedev-194)
Angular grid pruning method      GridPruning ... 4 (adaptive)
Weight generation scheme         WeightScheme... Becke
Basis function cutoff            BFCut       ... 1.0000e-11
Integration weight cutoff        WCut        ... 1.0000e-14
Angular grids for H and He will be reduced by one unit
Partially contracted basis set               ... on
Rotationally invariant grid construction     ... off

Total number of grid points                  ...    19242
Total number of batches                      ...      304
Average number of points per batch           ...       63
Average number of grid points per atom       ...     2749
UseSFitting                                  ... on

Time for X-Grid setup             =    0.072 sec

--------------
SCF ITERATIONS
--------------
ITER       Energy         Delta-E        Max-DP      RMS-DP      [F,P]     Damp
               ***  Starting incremental Fock matrix formation  ***
                      *** Initiating the SOSCF procedure ***
                      *** Re-Reading the Fockian *** 
                      *** Removing any level shift *** 
ITER      Energy       Delta-E        Grad      Rot      Max-DP    RMS-DP
  0   -153.63604067 -153.6360406693  0.000001  0.000001  0.000002  0.000000
               *** Restarting incremental Fock matrix formation ***
                  ***Gradient check signals convergence***
              ***Rediagonalizing the Fockian in SOSCF/NRSCF***

               *****************************************************
               *                     SUCCESS                       *
               *           SCF CONVERGED AFTER   1 CYCLES          *
               *****************************************************

Old exchange energy                            =     -4.995991284 Eh
New exchange energy                            =     -4.995985558 Eh
Exchange energy change after final integration =      0.000005726 Eh
Total energy after final integration           =   -153.636034944 Eh
Final COS-X integration done in                =     0.259 sec

----------------
TOTAL SCF ENERGY
----------------

Total Energy       :         -153.63603494 Eh           -4180.64905 eV

Components:
Nuclear Repulsion  :           75.06978045 Eh            2042.75258 eV
Electronic Energy  :         -228.70581540 Eh           -6223.40163 eV
One Electron Energy:         -356.75557892 Eh           -9707.81284 eV
Two Electron Energy:          128.04976353 Eh            3484.41121 eV
Max COSX asymmetry :            0.00000169 Eh               0.00005 eV

Virial components:
Potential Energy   :         -306.65950582 Eh           -8344.62939 eV
Kinetic Energy     :          153.02347088 Eh            4163.98034 eV
Virial Ratio       :            2.00400307


DFT components:
N(Alpha)           :       12.000002183390 electrons
N(Beta)            :       12.000002183390 electrons
N(Total)           :       24.000004366780 electrons
E(X)               :      -14.960824243072 Eh       
E(C)               :       -0.789308097930 Eh       
E(XC)              :      -15.750132341002 Eh       
DFET-embed. en.    :        0.000000000000 Eh       

---------------
SCF CONVERGENCE
---------------

  Last Energy change         ...   -2.9701e-11  Tolerance :   1.0000e-08
  Last MAX-Density change    ...    1.4433e-15  Tolerance :   1.0000e-07
  Last RMS-Density change    ...    2.1041e-17  Tolerance :   5.0000e-09
  Last Orbital Gradient      ...    5.3713e-07  Tolerance :   1.0000e-05
  Last Orbital Rotation      ...    8.2245e-07  Tolerance :   1.0000e-05

             **** THE GBW FILE WAS UPDATED (ox_es1_A_orca0049.gbw) ****
             **** DENSITY ox_es1_A_orca0049.scfp WAS UPDATED ****
             **** ENERGY FILE WAS UPDATED (ox_es1_A_orca0049.en.tmp) ****
             **** THE GBW FILE WAS UPDATED (ox_es1_A_orca0049.gbw) ****
             **** DENSITY ox_es1_A_orca0049.scfp WAS UPDATED ****
----------------
ORBITAL ENERGIES
----------------

  NO   OCC          E(Eh)            E(eV) 
   0   2.0000     -19.218928      -522.9736 
   1   2.0000     -10.284082      -279.8441 
   2   2.0000     -10.273816      -279.5648 
   3   2.0000      -1.105353       -30.0782 
   4   2.0000      -0.708238       -19.2721 
   5   2.0000      -0.649115       -17.6633 
   6   2.0000      -0.545279       -14.8378 
   7   2.0000      -0.489152       -13.3105 
   8   2.0000      -0.424586       -11.5536 
   9   2.0000      -0.403556       -10.9813 
  10   2.0000      -0.319472        -8.6933 
  11   2.0000      -0.284256        -7.7350 
  12   0.0000       0.052619         1.4318 
  13   0.0000       0.057346         1.5605 
  14   0.0000       0.083051         2.2599 
  15   0.0000       0.102928         2.8008 
  16   0.0000       0.114339         3.1113 
  17   0.0000       0.148449         4.0395 
  18   0.0000       0.189073         5.1449 
  19   0.0000       0.197581         5.3764 
  20   0.0000       0.262365         7.1393 
  21   0.0000       0.269953         7.3458 
  22   0.0000       0.303177         8.2499 
  23   0.0000       0.334435         9.1004 
  24   0.0000       0.387749        10.5512 
  25   0.0000       0.398516        10.8442 
  26   0.0000       0.417899        11.3716 
  27   0.0000       0.436250        11.8710 
  28   0.0000       0.454078        12.3561 
  29   0.0000       0.466575        12.6962 
  30   0.0000       0.479506        13.0480 
  31   0.0000       0.518891        14.1197 
  32   0.0000       0.570915        15.5354 
  33   0.0000       0.692333        18.8393 
  34   0.0000       0.704567        19.1722 
  35   0.0000       0.734889        19.9973 
  36   0.0000       0.829975        22.5848 
  37   0.0000       0.834160        22.6987 
  38   0.0000       0.900991        24.5172 
  39   0.0000       0.909482        24.7483 
  40   0.0000       1.011134        27.5144 
  41   0.0000       1.027289        27.9540 
  42   0.0000       1.045984        28.4627 
  43   0.0000       1.078168        29.3384 
  44   0.0000       1.175159        31.9777 
  45   0.0000       1.348889        36.7051 
  46   0.0000       1.446543        39.3624 
  47   0.0000       1.493640        40.6440 
  48   0.0000       1.509130        41.0655 
  49   0.0000       1.539763        41.8991 
  50   0.0000       1.601137        43.5691 
  51   0.0000       1.616470        43.9864 
  52   0.0000       1.661327        45.2070 
  53   0.0000       1.692142        46.0455 
  54   0.0000       1.785220        48.5783 
  55   0.0000       1.802192        49.0401 
  56   0.0000       1.830997        49.8240 
  57   0.0000       1.868864        50.8544 
  58   0.0000       1.941037        52.8183 
  59   0.0000       1.988892        54.1205 
  60   0.0000       2.112330        57.4794 
  61   0.0000       2.164694        58.9043 
  62   0.0000       2.203265        59.9539 
  63   0.0000       2.226854        60.5958 
  64   0.0000       2.279221        62.0208 
  65   0.0000       2.407276        65.5053 
  66   0.0000       2.446559        66.5743 
  67   0.0000       2.468223        67.1638 
  68   0.0000       2.524405        68.6925 
  69   0.0000       2.598807        70.7171 
  70   0.0000       2.619442        71.2786 
  71   0.0000       2.665889        72.5425 
  72   0.0000       2.701561        73.5132 
  73   0.0000       2.730717        74.3066 
  74   0.0000       2.762498        75.1714 
  75   0.0000       2.871183        78.1289 
  76   0.0000       2.954797        80.4041 
  77   0.0000       2.970378        80.8281 
  78   0.0000       2.987347        81.2898 
  79   0.0000       3.038049        82.6695 
  80   0.0000       3.056515        83.1720 
  81   0.0000       3.071026        83.5669 
  82   0.0000       3.168818        86.2279 
  83   0.0000       3.229115        87.8687 
  84   0.0000       3.285066        89.3912 
  85   0.0000       3.318478        90.3004 
  86   0.0000       3.369417        91.6865 
  87   0.0000       3.401367        92.5559 
  88   0.0000       3.564529        96.9958 
  89   0.0000       3.588649        97.6521 
  90   0.0000       3.622836        98.5824 
  91   0.0000       3.725465       101.3751 
  92   0.0000       3.831612       104.2635 
  93   0.0000       3.955440       107.6330 
  94   0.0000       3.995863       108.7330 
  95   0.0000       4.015388       109.2643 
  96   0.0000       4.201816       114.3372 
  97   0.0000       4.327265       117.7509 
  98   0.0000       4.370803       118.9356 
  99   0.0000       4.620434       125.7284 
 100   0.0000       4.717109       128.3591 
 101   0.0000       4.888689       133.0280 
 102   0.0000       5.331819       145.0862 
 103   0.0000       5.426644       147.6665 
 104   0.0000       5.597773       152.3231 
 105   0.0000       5.806863       158.0128 
 106   0.0000       5.851904       159.2384 
 107   0.0000       5.895629       160.4282 
 108   0.0000       6.094812       165.8483 
 109   0.0000       6.629034       180.3852 
 110   0.0000       6.641949       180.7366 
 111   0.0000       6.816997       185.4999 
 112   0.0000       6.966828       189.5770 
 113   0.0000       7.191284       195.6848 
 114   0.0000      22.303148       606.8995 
 115   0.0000      22.389876       609.2595 
 116   0.0000      43.863163      1193.5774 

                    ********************************
                    * MULLIKEN POPULATION ANALYSIS *
                    ********************************

-----------------------
MULLIKEN ATOMIC CHARGES
-----------------------
   0 O :   -0.308069
   1 C :   -0.030196
   2 C :   -0.142717
   3 H :    0.096052
   4 H :    0.104087
   5 H :    0.142864
   6 H :    0.137980
Sum of atomic charges:    0.0000000

--------------------------------
MULLIKEN REDUCED ORBITAL CHARGES
--------------------------------
  0 O s       :     3.852025  s :     3.852025
      pz      :     1.838368  p :     4.411283
      px      :     1.300988
      py      :     1.271927
      dz2     :     0.005467  d :     0.042602
      dxz     :     0.002907
      dyz     :     0.006701
      dx2y2   :     0.012176
      dxy     :     0.015351
      f0      :     0.000261  f :     0.002159
      f+1     :     0.000200
      f-1     :     0.000451
      f+2     :     0.000082
      f-2     :     0.000226
      f+3     :     0.000358
      f-3     :     0.000580
  1 C s       :     3.224599  s :     3.224599
      pz      :     1.025225  p :     2.664289
      px      :     0.872831
      py      :     0.766233
      dz2     :     0.006428  d :     0.128292
      dxz     :     0.029050
      dyz     :     0.036866
      dx2y2   :     0.033286
      dxy     :     0.022662
      f0      :     0.001838  f :     0.013015
      f+1     :     0.001505
      f-1     :     0.000713
      f+2     :     0.001556
      f-2     :     0.001873
      f+3     :     0.002087
      f-3     :     0.003443
  2 C s       :     3.251665  s :     3.251665
      pz      :     1.059010  p :     2.786940
      px      :     0.910153
      py      :     0.817777
      dz2     :     0.011282  d :     0.094020
      dxz     :     0.021389
      dyz     :     0.021689
      dx2y2   :     0.022796
      dxy     :     0.016865
      f0      :     0.001715  f :     0.010092
      f+1     :     0.001390
      f-1     :     0.000314
      f+2     :     0.000902
      f-2     :     0.001361
      f+3     :     0.002112
      f-3     :     0.002299
  3 H s       :     0.886220  s :     0.886220
      pz      :     0.010088  p :     0.017728
      px      :     0.004880
      py      :     0.002760
  4 H s       :     0.874507  s :     0.874507
      pz      :     0.010578  p :     0.021407
      px      :     0.006773
      py      :     0.004055
  5 H s       :     0.831383  s :     0.831383
      pz      :     0.011496  p :     0.025753
      px      :     0.007714
      py      :     0.006543
  6 H s       :     0.841415  s :     0.841415
      pz      :     0.012446  p :     0.020605
      px      :     0.004325
      py      :     0.003834


                     *******************************
                     * LOEWDIN POPULATION ANALYSIS *
                     *******************************

----------------------
LOEWDIN ATOMIC CHARGES
----------------------
   0 O :    0.122475
   1 C :   -0.378769
   2 C :   -0.187618
   3 H :    0.124384
   4 H :    0.109498
   5 H :    0.067964
   6 H :    0.142067

-------------------------------
LOEWDIN REDUCED ORBITAL CHARGES
-------------------------------
  0 O s       :     3.379032  s :     3.379032
      pz      :     1.719563  p :     4.394766
      px      :     1.289333
      py      :     1.385870
      dz2     :     0.011377  d :     0.096725
      dxz     :     0.008594
      dyz     :     0.016096
      dx2y2   :     0.033138
      dxy     :     0.027520
      f0      :     0.000689  f :     0.007002
      f+1     :     0.000294
      f-1     :     0.000872
      f+2     :     0.000215
      f-2     :     0.001071
      f+3     :     0.001282
      f-3     :     0.002579
  1 C s       :     2.839932  s :     2.839932
      pz      :     1.039735  p :     2.905977
      px      :     0.998324
      py      :     0.867918
      dz2     :     0.059668  d :     0.545450
      dxz     :     0.135895
      dyz     :     0.108923
      dx2y2   :     0.125337
      dxy     :     0.115627
      f0      :     0.012657  f :     0.087410
      f+1     :     0.006016
      f-1     :     0.006594
      f+2     :     0.010418
      f-2     :     0.009802
      f+3     :     0.016679
      f-3     :     0.025244
  2 C s       :     2.842456  s :     2.842456
      pz      :     1.068763  p :     2.924267
      px      :     1.020390
      py      :     0.835114
      dz2     :     0.060613  d :     0.365760
      dxz     :     0.098441
      dyz     :     0.052368
      dx2y2   :     0.080320
      dxy     :     0.074017
      f0      :     0.009382  f :     0.055136
      f+1     :     0.005351
      f-1     :     0.004254
      f+2     :     0.005189
      f-2     :     0.004894
      f+3     :     0.012066
      f-3     :     0.013999
  3 H s       :     0.827706  s :     0.827706
      pz      :     0.028234  p :     0.047910
      px      :     0.012248
      py      :     0.007429
  4 H s       :     0.828746  s :     0.828746
      pz      :     0.031893  p :     0.061757
      px      :     0.018159
      py      :     0.011705
  5 H s       :     0.839447  s :     0.839447
      pz      :     0.043248  p :     0.092590
      px      :     0.026608
      py      :     0.022734
  6 H s       :     0.801244  s :     0.801244
      pz      :     0.034137  p :     0.056690
      px      :     0.011917
      py      :     0.010636


                      *****************************
                      * MAYER POPULATION ANALYSIS *
                      *****************************

  NA   - Mulliken gross atomic population
  ZA   - Total nuclear charge
  QA   - Mulliken gross atomic charge
  VA   - Mayer's total valence
  BVA  - Mayer's bonded valence
  FA   - Mayer's free valence

  ATOM       NA         ZA         QA         VA         BVA        FA
  0 O      8.3081     8.0000    -0.3081     1.9824     1.9824     0.0000
  1 C      6.0302     6.0000    -0.0302     3.9854     3.9854     0.0000
  2 C      6.1427     6.0000    -0.1427     3.9430     3.9430     0.0000
  3 H      0.9039     1.0000     0.0961     0.9599     0.9599     0.0000
  4 H      0.8959     1.0000     0.1041     0.9592     0.9592     0.0000
  5 H      0.8571     1.0000     0.1429     0.9674     0.9674    -0.0000
  6 H      0.8620     1.0000     0.1380     0.9672     0.9672    -0.0000

  Mayer bond orders larger than 0.100000
B(  0-O ,  1-C ) :   1.0370 B(  0-O ,  2-C ) :   0.9337 B(  1-C ,  2-C ) :   1.0553 
B(  1-C ,  3-H ) :   0.9355 B(  1-C ,  4-H ) :   0.9530 B(  2-C ,  5-H ) :   0.9661 
B(  2-C ,  6-H ) :   0.9617 

-------
TIMINGS
-------

Total SCF time: 0 days 0 hours 0 min 0 sec 

Total time                  ....       0.991 sec
Sum of individual times     ....       0.906 sec  ( 91.4%)

Fock matrix formation       ....       0.699 sec  ( 70.5%)
  Split-RI-J                ....       0.113 sec  ( 16.2% of F)
  Chain of spheres X        ....       0.520 sec  ( 74.4% of F)
  XC integration            ....       0.064 sec  (  9.1% of F)
    Basis function eval.    ....       0.017 sec  ( 27.5% of XC)
    Density eval.           ....       0.013 sec  ( 21.2% of XC)
    XC-Functional eval.     ....       0.004 sec  (  5.9% of XC)
    XC-Potential eval.      ....       0.020 sec  ( 32.1% of XC)
Diagonalization             ....       0.002 sec  (  0.2%)
Density matrix formation    ....       0.000 sec  (  0.0%)
Population analysis         ....       0.003 sec  (  0.3%)
Initial guess               ....       0.008 sec  (  0.8%)
Orbital Transformation      ....       0.000 sec  (  0.0%)
Orbital Orthonormalization  ....       0.001 sec  (  0.1%)
DIIS solution               ....       0.001 sec  (  0.1%)
SOSCF solution              ....       0.002 sec  (  0.2%)
Grid generation             ....       0.190 sec  ( 19.1%)

Maximum memory used throughout the entire SCF-calculation: 61.1 MB


           ************************************************************
           *        Program running with 8 parallel MPI-processes     *
           *              working on a common directory               *
           ************************************************************
------------------------------------------------------------------------------
                        ORCA TD-DFT/TDA CALCULATION
------------------------------------------------------------------------------

Input orbitals are from        ... ox_es1_A_orca0049.gbw
CI-vector output               ... ox_es1_A_orca0049.cis
Tamm-Dancoff approximation     ... operative
CIS-Integral strategy          ... AO-integrals
Integral handling              ... AO integral Direct
Max. core memory used          ... 3000 MB
Reference state                ... RHF
Generation of triplets         ... off
Follow IRoot                   ... off
Number of operators            ... 1
Orbital ranges used for CIS calculation:
 Operator 0:  Orbitals   3... 11  to  12...116
XAS localization array:
 Operator 0:  Orbitals  -1... -1

-------------------
XC-INTEGRATION GRID
-------------------

General Integration Accuracy     IntAcc      ... 3.467
Radial Grid Type                 RadialGrid  ... OptM3 with GC (2021)
Angular Grid (max. ang.)         AngularGrid ... 1 (Lebedev-50)
Angular grid pruning method      GridPruning ... 4 (adaptive)
Weight generation scheme         WeightScheme... Becke
Basis function cutoff            BFCut       ... 1.0000e-11
Integration weight cutoff        WCut        ... 1.0000e-14
Angular grids for H and He will be reduced by one unit
Partially contracted basis set               ... off
Rotationally invariant grid construction     ... off

Total number of grid points                  ...     4536
Total number of batches                      ...       74
Average number of points per batch           ...       61
Average number of grid points per atom       ...      648

---------------------
COSX-INTEGRATION GRID
---------------------

General Integration Accuracy     IntAcc      ... 3.067
Radial Grid Type                 RadialGrid  ... OptM3 with GC (2021)
Angular Grid (max. ang.)         AngularGrid ... 1 (Lebedev-50)
Angular grid pruning method      GridPruning ... 4 (adaptive)
Weight generation scheme         WeightScheme... Becke
Basis function cutoff            BFCut       ... 1.0000e-11
Integration weight cutoff        WCut        ... 1.0000e-14
Angular grids for H and He will be reduced by one unit
Partially contracted basis set               ... on
Rotationally invariant grid construction     ... off

Total number of grid points                  ...     2084
Total number of batches                      ...       37
Average number of points per batch           ...       56
Average number of grid points per atom       ...      298

---------------
TD-DFT XC SETUP
---------------

DFT calculation                         ... on
Name of the grid file                   ... ox_es1_A_orca0049.grid_cis.tmp
Exchange functional (TD-DFT)            ... PBE
   PBE kappa parameter  XKappa (TD-DFT) ...  0.804000
   PBE mue parameter   XMuePBE (TD-DFT) ...  0.219520
Correlation functional (TD-DFT)         ... PBE
   PBE beta parameter CBetaPBE (TD-DFT) ...  0.066725
 LDA part of GGA corr.  LDAOpt (TD-DFT) ... PW91-LDA
Hybrid DFT                              ... on
   Exchange mixing (TD-DFT)             ...  0.250
   GGA exch. scaling (TD-DFT)           ...  0.750
   GGA corr. scaling (TD-DFT)           ...  1.000

Building densities             ... done
Calculating rho(r) on the grid ... done
Building xc-kernel on the grid ... done
                    *** TD-DFT CALCULATION INITIALIZED ***

------------------------
DAVIDSON-DIAGONALIZATION
------------------------

Dimension of the eigenvalue problem            ...    945
Number of roots to be determined               ...      1
Maximum size of the expansion space            ...     10
Maximum number of iterations                   ...    100
Convergence tolerance for the residual         ...    2.500e-07
Convergence tolerance for the energies         ...    2.500e-07
Orthogonality tolerance                        ...    1.000e-14
Level Shift                                    ...    0.000e+00
Constructing the preconditioner                ... o.k.
Building the initial guess                     ... o.k.
Number of trial vectors determined             ...     10


                       ****Iteration    0****

   Memory handling for direct AO based CIS:
   Memory per vector needed      ...     1 MB
   Memory needed                 ...     1 MB
   Memory available              ...  3000 MB
   Number of vectors per batch   ...  3000
   Number of batches             ...     1
   Time for densities:            0.001
   Time for RI-J (Direct):        0.015
   Time for K (COSX):             0.055
   Time for XC-Integration:       0.016
   Time for Sigma-Completion:     0.000
   Size of expansion space: 3
   Lowest Energy          :     0.267793881860
   Maximum Energy change  :     0.267793881860 (vector 0)
   Maximum residual norm  :     0.003872586095

                       ****Iteration    1****
   Time for densities:            0.000
   Time for RI-J (Direct):        0.012
   Time for K (COSX):             0.048
   Time for XC-Integration:       0.006
   Time for Sigma-Completion:     0.000
   Size of expansion space: 4
   Lowest Energy          :     0.264191580535
   Maximum Energy change  :     0.003602301325 (vector 0)
   Maximum residual norm  :     0.000783267155

                       ****Iteration    2****
   Time for densities:            0.000
   Time for RI-J (Direct):        0.012
   Time for K (COSX):             0.048
   Time for XC-Integration:       0.007
   Time for Sigma-Completion:     0.000
   Size of expansion space: 5
   Lowest Energy          :     0.263086297408
   Maximum Energy change  :     0.001105283127 (vector 0)
   Maximum residual norm  :     0.000165309383

                       ****Iteration    3****
   Time for densities:            0.000
   Time for RI-J (Direct):        0.012
   Time for K (COSX):             0.049
   Time for XC-Integration:       0.007
   Time for Sigma-Completion:     0.000
   Size of expansion space: 6
   Lowest Energy          :     0.262947370383
   Maximum Energy change  :     0.000138927025 (vector 0)
   Maximum residual norm  :     0.000018188939

                       ****Iteration    4****
   Time for densities:            0.000
   Time for RI-J (Direct):        0.012
   Time for K (COSX):             0.049
   Time for XC-Integration:       0.006
   Time for Sigma-Completion:     0.000
   Size of expansion space: 7
   Lowest Energy          :     0.262923320131
   Maximum Energy change  :     0.000024050252 (vector 0)
   Maximum residual norm  :     0.000003234648

                       ****Iteration    5****
   Time for densities:            0.000
   Time for RI-J (Direct):        0.012
   Time for K (COSX):             0.049
   Time for XC-Integration:       0.007
   Time for Sigma-Completion:     0.000
   Size of expansion space: 8
   Lowest Energy          :     0.262919121332
   Maximum Energy change  :     0.000004198799 (vector 0)
   Maximum residual norm  :     0.000000221838

      *** CONVERGENCE OF RESIDUAL NORM REACHED ***

Storing the converged CI vectors               ... ox_es1_A_orca0049.cis1

                 *** DAVIDSON DONE ***

Total time for solving the CIS problem:     0.429sec

------------------------------------
TD-DFT/TDA EXCITED STATES (SINGLETS)
------------------------------------

the weight of the individual excitations are printed if larger than 1.0e-02

STATE  1:  E=   0.262919 au      7.154 eV    57704.1 cm**-1 <S**2> =   0.000000
    11a ->  12a  :     0.654899 (c=  0.80925806)
    11a ->  13a  :     0.315679 (c= -0.56185323)
    11a ->  16a  :     0.013475 (c=  0.11608090)


-----------------------------
TD-DFT/TDA-EXCITATION SPECTRA
-----------------------------

Center of mass = (  0.0114, -0.0639, -0.0995)
Calculating the Dipole integrals                  ... done
Transforming integrals                            ... done
Calculating the Linear Momentum integrals         ... done
Transforming integrals                            ... done
Calculating angular momentum integrals            ... done
Transforming integrals                            ... done

-----------------------------------------------------------------------------
         ABSORPTION SPECTRUM VIA TRANSITION ELECTRIC DIPOLE MOMENTS
-----------------------------------------------------------------------------
State   Energy    Wavelength  fosc         T2        TX        TY        TZ  
        (cm-1)      (nm)                 (au**2)    (au)      (au)      (au) 
-----------------------------------------------------------------------------
   1   57704.1    173.3   0.004912353   0.02803   0.06426  -0.00097  -0.15458

-----------------------------------------------------------------------------
         ABSORPTION SPECTRUM VIA TRANSITION VELOCITY DIPOLE MOMENTS
-----------------------------------------------------------------------------
State   Energy    Wavelength   fosc        P2         PX        PY        PZ  
        (cm-1)      (nm)                 (au**2)     (au)      (au)      (au) 
-----------------------------------------------------------------------------
   1   57704.1    173.3   0.015763328   0.00622  -0.00409   0.00389   0.07864

-------------------------------------------------------------------
                             CD SPECTRUM
-------------------------------------------------------------------
State  Energy     Wavelength     R         MX        MY        MZ   
       (cm-1)       (nm)     (1e40*cgs)   (au)      (au)      (au)  
-------------------------------------------------------------------
   1   57704.1    173.3     -4.78317  -0.13854   0.20894   0.00672

-------------------------------------------------------------------
         CD SPECTRUM VIA TRANSITION VELOCITY DIPOLE MOMENTS        
-------------------------------------------------------------------
State  Energy     Wavelength     R         MX        MY        MZ   
       (cm-1)       (nm)     (1e40*cgs)   (au)      (au)      (au)  
-------------------------------------------------------------------
   1   57704.1    173.3      3.42186  -0.13854   0.20894   0.00672

Total run time:        0.692 sec

           *** ORCA-CIS/TD-DFT FINISHED WITHOUT ERROR ***

Maximum memory used throughout the entire CIS-calculation: 49.4 MB

-----------------------
CIS/TD-DFT TOTAL ENERGY
-----------------------

    E(SCF)  =   -153.636034944 Eh
    DE(CIS) =      0.262919121 Eh (Root  1)
    ----------------------------- ---------
    E(tot)  =   -153.373115822 Eh



-------------------------------------------------------------------------------
                          DFT DISPERSION CORRECTION                            
                                                                               
                              DFTD3 V3.1  Rev 1                                
                          USING Becke-Johnson damping                          
-------------------------------------------------------------------------------
The PBE0 functional is recognized
Active option DFTDOPT                   ...         4   

molecular C6(AA) [au] = 351.275750 


            DFT-D V3
 parameters
 s6 scaling factor         :     1.0000 
 a1 scaling factor         :     0.4145 
 s8 scaling factor         :     1.2177 
 a2 scaling factor         :     4.8593 
 ad hoc parameters k1-k3   :    16.0000     1.3333    -4.0000 

 Edisp/kcal,au: -1.512677630055  -0.002410604989 
 E6   /kcal   :  -0.991947212 
 E8   /kcal   :  -0.520730418 
 % E8         :  34.424414555 

-------------------------   ----------------
Dispersion correction           -0.002410605
-------------------------   ----------------


-------------------------   --------------------
FINAL SINGLE POINT ENERGY      -153.375526427262
-------------------------   --------------------



           ************************************************************
           *        Program running with 8 parallel MPI-processes     *
           *              working on a common directory               *
           ************************************************************
------------------------------------------------------------------------------
                         ORCA SCF GRADIENT CALCULATION
------------------------------------------------------------------------------


------------------------
TD-DFT GRADIENT XC SETUP
------------------------

Building densities                     ... done
Calculating rho(r) on the grid         ... done
Building xc-kernel on the grid         ... done
Building xc 3rd derivative on the grid      ... done
                *** TD-DFT GRADIENT CALCULATION INITIALIZED ***

-------------------
TD-DFT/TDA GRADIENT
-------------------

Reference wavefunction             ... RHF
State of interest                  ... 1
Basis dimension                    ... 117
DFT-XC contribution needed         ... YES
RI-approximation                   ... ON
CIS-vectors being read from        ... ox_es1_A_orca0049.cis

 => Number of Vectors found: 1
 => Orbital Window: 3...11 -> 12...116

Reading the CIS file                     ... done
Norm of the CI vector                    ... 1.000000000
Making the CIS (pseudo)densities         ... done
Making operators G(D) and Q(T)           ... done
Transforming the Fock operators          ... done
Making the frozen-core relaxed density   ... done
Constructing the G(H) operator           ... done
Transforming the G(H) operator           ... done
Calculating the CIS Lagrangian           ... done
Solving the Z-vector equations           ... done
Finalizing the relaxed density           ... done
Storing the relaxed density              ... done
Constructing the G(Z) operator           ... done
Transforming the G(Z) operator           ... done
Making the W-matrix                      ... done
Finalizing the W-matrix                  ... done
Transforming the W-matrix                ... done
Nuclear repulsion gradient               ... done
One-Electron gradient                    ... done
Dispersion correction                    ... done
Prescreening matrices                    ... done
COSX-gradient                            ... done
Coulomb gradient (RI)                    ... done
Exchange-Correlation gradient            ... done

                 ---------------------------
                 EXCITED STATE GRADIENT DONE
                 ---------------------------

------------------
CARTESIAN GRADIENT
------------------

   1   O   :    0.079286623   -0.159196728    0.002709086
   2   C   :   -0.019766939    0.035754249   -0.028616353
   3   C   :    0.028373261    0.125239161   -0.176948634
   4   H   :   -0.013870000   -0.008370742    0.039821140
   5   H   :    0.013113633   -0.002122401   -0.000907938
   6   H   :   -0.081176712    0.014283752    0.128418390
   7   H   :   -0.006017472   -0.005613051    0.035565413

Difference to translation invariance:
           :   -0.0000576055   -0.0000257612    0.0000411039

Difference to rotation invariance:
           :    0.0000487526   -0.0000378649    0.0002714994

Norm of the cartesian gradient     ...    0.3294981881
RMS gradient                       ...    0.0719023994
MAX gradient                       ...    0.1769486342

------------------------------------------------------------------------------
                  RELAXED CIS/TDA DENSITY POPULATION ANALYSIS
                                   IROOT 1
------------------------------------------------------------------------------
------------------------------------------------------------------------------
                           ORCA POPULATION ANALYSIS
------------------------------------------------------------------------------
Input electron density              ... ox_es1_A_orca0049.cisp
BaseName (.gbw .S,...)              ... ox_es1_A_orca0049

                    ********************************
                    * MULLIKEN POPULATION ANALYSIS *
                    ********************************

-----------------------
MULLIKEN ATOMIC CHARGES
-----------------------
   0 O :    0.092618
   1 C :   -0.117717
   2 C :   -0.640547
   3 H :    0.171972
   4 H :    0.155855
   5 H :    0.169525
   6 H :    0.168295
Sum of atomic charges:    0.0000000

--------------------------------
MULLIKEN REDUCED ORBITAL CHARGES
--------------------------------
  0 O s       :     3.760881  s :     3.760881
      pz      :     1.120547  p :     4.104494
      px      :     1.546404
      py      :     1.437542
      dz2     :     0.003804  d :     0.040430
      dxz     :     0.003319
      dyz     :     0.007200
      dx2y2   :     0.011664
      dxy     :     0.014442
      f0      :     0.000115  f :     0.001577
      f+1     :    -0.000030
      f-1     :     0.000170
      f+2     :     0.000093
      f-2     :     0.000245
      f+3     :     0.000384
      f-3     :     0.000601
  1 C s       :     3.228869  s :     3.228869
      pz      :     1.005274  p :     2.779807
      px      :     1.009861
      py      :     0.764672
      dz2     :     0.005138  d :     0.097272
      dxz     :     0.023521
      dyz     :     0.014967
      dx2y2   :     0.033422
      dxy     :     0.020224
      f0      :     0.001105  f :     0.011769
      f+1     :     0.001654
      f-1     :     0.000537
      f+2     :     0.000935
      f-2     :     0.001299
      f+3     :     0.002819
      f-3     :     0.003421
  2 C s       :     3.295653  s :     3.295653
      pz      :     1.076408  p :     3.251911
      px      :     0.826643
      py      :     1.348860
      dz2     :     0.014373  d :     0.083485
      dxz     :     0.010888
      dyz     :     0.004006
      dx2y2   :     0.031080
      dxy     :     0.023138
      f0      :     0.001267  f :     0.009498
      f+1     :     0.001268
      f-1     :     0.000689
      f+2     :     0.000701
      f-2     :     0.000771
      f+3     :     0.002892
      f-3     :     0.001909
  3 H s       :     0.808879  s :     0.808879
      pz      :     0.010355  p :     0.019149
      px      :     0.005900
      py      :     0.002895
  4 H s       :     0.821339  s :     0.821339
      pz      :     0.010826  p :     0.022806
      px      :     0.007882
      py      :     0.004097
  5 H s       :     0.799420  s :     0.799420
      pz      :     0.010499  p :     0.031054
      px      :     0.007284
      py      :     0.013272
  6 H s       :     0.807859  s :     0.807859
      pz      :     0.011596  p :     0.023846
      px      :     0.004309
      py      :     0.007941


                     *******************************
                     * LOEWDIN POPULATION ANALYSIS *
                     *******************************

----------------------
LOEWDIN ATOMIC CHARGES
----------------------
   0 O :    0.368999
   1 C :   -0.362731
   2 C :   -0.539754
   3 H :    0.177130
   4 H :    0.145355
   5 H :    0.064387
   6 H :    0.146614

-------------------------------
LOEWDIN REDUCED ORBITAL CHARGES
-------------------------------
  0 O s       :     3.424546  s :     3.424546
      pz      :     1.061492  p :     4.085256
      px      :     1.514886
      py      :     1.508878
      dz2     :     0.012468  d :     0.114307
      dxz     :     0.009373
      dyz     :     0.015448
      dx2y2   :     0.036792
      dxy     :     0.040226
      f0      :     0.000683  f :     0.006892
      f+1     :     0.000212
      f-1     :     0.000706
      f+2     :     0.000194
      f-2     :     0.001079
      f+3     :     0.001360
      f-3     :     0.002660
  1 C s       :     2.842897  s :     2.842897
      pz      :     0.997467  p :     2.967689
      px      :     1.071094
      py      :     0.899128
      dz2     :     0.063078  d :     0.468474
      dxz     :     0.113726
      dyz     :     0.050406
      dx2y2   :     0.129056
      dxy     :     0.112208
      f0      :     0.008353  f :     0.083671
      f+1     :     0.006929
      f-1     :     0.006679
      f+2     :     0.006890
      f-2     :     0.006713
      f+3     :     0.021700
      f-3     :     0.026407
  2 C s       :     2.838019  s :     2.838019
      pz      :     1.060853  p :     3.173864
      px      :     0.976693
      py      :     1.136318
      dz2     :     0.084058  d :     0.464232
      dxz     :     0.083171
      dyz     :     0.020820
      dx2y2   :     0.136301
      dxy     :     0.139882
      f0      :     0.007605  f :     0.063638
      f+1     :     0.005289
      f-1     :     0.007041
      f+2     :     0.003599
      f-2     :     0.002932
      f+3     :     0.023533
      f-3     :     0.013639
  3 H s       :     0.771795  s :     0.771795
      pz      :     0.028282  p :     0.051074
      px      :     0.015115
      py      :     0.007678
  4 H s       :     0.789366  s :     0.789366
      pz      :     0.032107  p :     0.065279
      px      :     0.021307
      py      :     0.011865
  5 H s       :     0.830001  s :     0.830001
      pz      :     0.041224  p :     0.105613
      px      :     0.025433
      py      :     0.038956
  6 H s       :     0.788783  s :     0.788783
      pz      :     0.031927  p :     0.064603
      px      :     0.011669
      py      :     0.021007


                      *****************************
                      * MAYER POPULATION ANALYSIS *
                      *****************************

  NA   - Mulliken gross atomic population
  ZA   - Total nuclear charge
  QA   - Mulliken gross atomic charge
  VA   - Mayer's total valence
  BVA  - Mayer's bonded valence
  FA   - Mayer's free valence

  ATOM       NA         ZA         QA         VA         BVA        FA
  0 O      7.9074     8.0000     0.0926     1.8362     1.1371     0.6991
  1 C      6.1177     6.0000    -0.1177     3.8058     3.6547     0.1511
  2 C      6.6405     6.0000    -0.6405     3.9775     3.0932     0.8843
  3 H      0.8280     1.0000     0.1720     0.9623     0.8896     0.0727
  4 H      0.8441     1.0000     0.1559     0.9716     0.9208     0.0508
  5 H      0.8305     1.0000     0.1695     0.9898     0.9766     0.0132
  6 H      0.8317     1.0000     0.1683     0.9719     0.9526     0.0192

  Mayer bond orders larger than 0.100000
B(  0-O ,  1-C ) :   0.9441 B(  0-O ,  2-C ) :   0.1963 B(  1-C ,  2-C ) :   0.9485 
B(  1-C ,  3-H ) :   0.8651 B(  1-C ,  4-H ) :   0.8960 B(  2-C ,  5-H ) :   0.9798 
B(  2-C ,  6-H ) :   0.9460 


-------
TIMINGS
-------

Total TD-DFT gradient time         ...        5.676 sec

Fock matrix formation       ....       0.890 sec  ( 15.7%)
  Coulomb formation         ....       0.721 sec  ( 81.0% of F)
  RI-J                      ....       0.308 sec  ( 34.6% of F)
  Chain of spheres X        ....       0.413 sec  ( 46.4% of F)
  XC integration            ....       0.169 sec  ( 19.0% of F)
Z-vector equation           ....       1.516 sec  ( 26.7%)
One electron gradient       ....       0.037 sec  (  0.6%)
Prescreening matrices       ....       0.178 sec  (  3.1%)
RI-J Coulomb gradient       ....       0.281 sec  (  5.0%)
COSX gradient               ....       0.404 sec  (  7.1%)
XC gradient                 ....       2.044 sec  ( 36.0%)

Maximum memory used throughout the entire SCFGRAD-calculation: 130.3 MB

                            ***************************************
                            *     ORCA property calculations      *
                            ***************************************

                                    ---------------------
                                    Active property flags
                                    ---------------------
   (+) Dipole Moment


------------------------------------------------------------------------------
                       ORCA ELECTRIC PROPERTIES CALCULATION
------------------------------------------------------------------------------

Dipole Moment Calculation                       ... on
Quadrupole Moment Calculation                   ... off
Polarizability Calculation                      ... off
GBWName                                         ... ox_es1_A_orca0049.gbw
Electron density                                ... ox_es1_A_orca0049.scfp
The origin for moment calculation is the CENTER OF MASS  = ( 0.011448, -0.063917 -0.099479)

-------------
DIPOLE MOMENT
-------------
                                X             Y             Z
Electronic contribution:      0.20258       1.48533      -0.37184
Nuclear contribution   :     -0.11662      -2.15881       0.36962
                        -----------------------------------------
Total Dipole Moment    :      0.08596      -0.67348      -0.00222
                        -----------------------------------------
Magnitude (a.u.)       :      0.67895
Magnitude (Debye)      :      1.72576



--------------------
Rotational spectrum 
--------------------
 
Rotational constants in cm-1:     0.900795     0.686495     0.469062 
Rotational constants in MHz : 27005.152193 20580.601873 14062.116801 

 Dipole components along the rotational axes: 
x,y,z [a.u.] :     0.315856    -0.599890    -0.036624 
x,y,z [Debye]:     0.802843    -1.524799    -0.093092 

 

                        *** CIS RELAXED DENSITY ***

------------------------------------------------------------------------------
                       ORCA ELECTRIC PROPERTIES CALCULATION
------------------------------------------------------------------------------

Dipole Moment Calculation                       ... on
Quadrupole Moment Calculation                   ... off
Polarizability Calculation                      ... off
GBWName                                         ... ox_es1_A_orca0049.gbw
Electron density                                ... ox_es1_A_orca0049.cisp
The origin for moment calculation is the CENTER OF MASS  = ( 0.011448, -0.063917 -0.099479)

-------------
DIPOLE MOMENT
-------------
                                X             Y             Z
Electronic contribution:     -0.68385       2.17351      -0.30695
Nuclear contribution   :     -0.11662      -2.15881       0.36962
                        -----------------------------------------
Total Dipole Moment    :     -0.80047       0.01470       0.06266
                        -----------------------------------------
Magnitude (a.u.)       :      0.80305
Magnitude (Debye)      :      2.04119



--------------------
Rotational spectrum 
--------------------
 
Rotational constants in cm-1:     0.900795     0.686495     0.469062 
Rotational constants in MHz : 27005.152193 20580.601873 14062.116801 

 Dipole components along the rotational axes: 
x,y,z [a.u.] :    -0.755825    -0.268781     0.037066 
x,y,z [Debye]:    -1.921154    -0.683188     0.094213 

 

Timings for individual modules:

Sum of individual times         ...        8.510 sec (=   0.142 min)
GTO integral calculation        ...        0.375 sec (=   0.006 min)   4.4 %
SCF iterations                  ...        1.293 sec (=   0.022 min)  15.2 %
CIS module                      ...        0.941 sec (=   0.016 min)  11.1 %
SCF Gradient evaluation         ...        5.902 sec (=   0.098 min)  69.4 %
                             ****ORCA TERMINATED NORMALLY****
TOTAL RUN TIME: 0 days 0 hours 0 minutes 8 seconds 919 msec
