
                                 *****************
                                 * O   R   C   A *
                                 *****************

                                            #,                                       
                                            ###                                      
                                            ####                                     
                                            #####                                    
                                            ######                                   
                                           ########,                                 
                                     ,,################,,,,,                         
                               ,,#################################,,                 
                          ,,##########################################,,             
                       ,#########################################, ''#####,          
                    ,#############################################,,   '####,        
                  ,##################################################,,,,####,       
                ,###########''''           ''''###############################       
              ,#####''   ,,,,##########,,,,          '''####'''          '####       
            ,##' ,,,,###########################,,,                        '##       
           ' ,,###''''                  '''############,,,                           
         ,,##''                                '''############,,,,        ,,,,,,###''
      ,#''                                            '''#######################'''  
     '                                                          ''''####''''         
             ,#######,   #######,   ,#######,      ##                                
            ,#'     '#,  ##    ##  ,#'     '#,    #''#        ######   ,####,        
            ##       ##  ##   ,#'  ##            #'  '#       #        #'  '#        
            ##       ##  #######   ##           ,######,      #####,   #    #        
            '#,     ,#'  ##    ##  '#,     ,#' ,#      #,         ##   #,  ,#        
             '#######'   ##     ##  '#######'  #'      '#     #####' # '####'        



                  #######################################################
                  #                        -***-                        #
                  #          Department of theory and spectroscopy      #
                  #    Directorship and core code : Frank Neese         #
                  #        Max Planck Institute fuer Kohlenforschung    #
                  #                Kaiser Wilhelm Platz 1               #
                  #                 D-45470 Muelheim/Ruhr               #
                  #                      Germany                        #
                  #                                                     #
                  #                  All rights reserved                #
                  #                        -***-                        #
                  #######################################################


                         Program Version 5.0.2 -  RELEASE  -


 With contributions from (in alphabetic order):
   Daniel Aravena         : Magnetic Suceptibility
   Michael Atanasov       : Ab Initio Ligand Field Theory (pilot matlab implementation)
   Alexander A. Auer      : GIAO ZORA, VPT2 properties, NMR spectrum
   Ute Becker             : Parallelization
   Giovanni Bistoni       : ED, misc. LED, open-shell LED, HFLD
   Martin Brehm           : Molecular dynamics
   Dmytro Bykov           : SCF Hessian
   Vijay G. Chilkuri      : MRCI spin determinant printing, contributions to CSF-ICE
   Dipayan Datta          : RHF DLPNO-CCSD density
   Achintya Kumar Dutta   : EOM-CC, STEOM-CC
   Dmitry Ganyushin       : Spin-Orbit,Spin-Spin,Magnetic field MRCI
   Miquel Garcia          : C-PCM and meta-GGA Hessian, CC/C-PCM, Gaussian charge scheme
   Yang Guo               : DLPNO-NEVPT2, F12-NEVPT2, CIM, IAO-localization
   Andreas Hansen         : Spin unrestricted coupled pair/coupled cluster methods
   Benjamin Helmich-Paris : MC-RPA, TRAH-SCF, COSX integrals
   Lee Huntington         : MR-EOM, pCC
   Robert Izsak           : Overlap fitted RIJCOSX, COSX-SCS-MP3, EOM
   Marcus Kettner         : VPT2
   Christian Kollmar      : KDIIS, OOCD, Brueckner-CCSD(T), CCSD density, CASPT2, CASPT2-K
   Simone Kossmann        : Meta GGA functionals, TD-DFT gradient, OOMP2, MP2 Hessian
   Martin Krupicka        : Initial AUTO-CI
   Lucas Lang             : DCDCAS
   Marvin Lechner         : AUTO-CI (C++ implementation), FIC-MRCC
   Dagmar Lenk            : GEPOL surface, SMD
   Dimitrios Liakos       : Extrapolation schemes; Compound Job, initial MDCI parallelization
   Dimitrios Manganas     : Further ROCIS development; embedding schemes
   Dimitrios Pantazis     : SARC Basis sets
   Anastasios Papadopoulos: AUTO-CI, single reference methods and gradients
   Taras Petrenko         : DFT Hessian,TD-DFT gradient, ASA, ECA, R-Raman, ABS, FL, XAS/XES, NRVS
   Peter Pinski           : DLPNO-MP2, DLPNO-MP2 Gradient
   Christoph Reimann      : Effective Core Potentials
   Marius Retegan         : Local ZFS, SOC
   Christoph Riplinger    : Optimizer, TS searches, QM/MM, DLPNO-CCSD(T), (RO)-DLPNO pert. Triples
   Tobias Risthaus        : Range-separated hybrids, TD-DFT gradient, RPA, STAB
   Michael Roemelt        : Original ROCIS implementation
   Masaaki Saitow         : Open-shell DLPNO-CCSD energy and density
   Barbara Sandhoefer     : DKH picture change effects
   Avijit Sen             : IP-ROCIS
   Kantharuban Sivalingam : CASSCF convergence, NEVPT2, FIC-MRCI
   Bernardo de Souza      : ESD, SOC TD-DFT
   Georgi Stoychev        : AutoAux, RI-MP2 NMR, DLPNO-MP2 response
   Willem Van den Heuvel  : Paramagnetic NMR
   Boris Wezisla          : Elementary symmetry handling
   Frank Wennmohs         : Technical directorship


 We gratefully acknowledge several colleagues who have allowed us to
 interface, adapt or use parts of their codes:
   Stefan Grimme, W. Hujo, H. Kruse, P. Pracht,  : VdW corrections, initial TS optimization,
                  C. Bannwarth, S. Ehlert          DFT functionals, gCP, sTDA/sTD-DF
   Ed Valeev, F. Pavosevic, A. Kumar             : LibInt (2-el integral package), F12 methods
   Garnet Chan, S. Sharma, J. Yang, R. Olivares  : DMRG
   Ulf Ekstrom                                   : XCFun DFT Library
   Mihaly Kallay                                 : mrcc  (arbitrary order and MRCC methods)
   Jiri Pittner, Ondrej Demel                    : Mk-CCSD
   Frank Weinhold                                : gennbo (NPA and NBO analysis)
   Christopher J. Cramer and Donald G. Truhlar   : smd solvation model
   Lars Goerigk                                  : TD-DFT with DH, B97 family of functionals
   V. Asgeirsson, H. Jonsson                     : NEB implementation
   FAccTs GmbH                                   : IRC, NEB, NEB-TS, DLPNO-Multilevel, CI-OPT
                                                   MM, QMMM, 2- and 3-layer-ONIOM, Crystal-QMMM,
                                                   LR-CPCM, SF, NACMEs, symmetry and pop. for TD-DFT,
                                                   nearIR, NL-DFT gradient (VV10), updates on ESD,
                                                   ML-optimized integration grids
   S Lehtola, MJT Oliveira, MAL Marques          : LibXC Library
   Liviu Ungur et al                             : ANISO software


 Your calculation uses the libint2 library for the computation of 2-el integrals
 For citations please refer to: http://libint.valeyev.net

 Your ORCA version has been built with support for libXC version: 5.1.0
 For citations please refer to: https://tddft.org/programs/libxc/

 This ORCA versions uses:
   CBLAS   interface :  Fast vector & matrix operations
   LAPACKE interface :  Fast linear algebra routines
   SCALAPACK package :  Parallel linear algebra routines
   Shared memory     :  Shared parallel matrices
   BLAS/LAPACK       :  OpenBLAS 0.3.15  USE64BITINT DYNAMIC_ARCH NO_AFFINITY SkylakeX SINGLE_THREADED
        Core in use  :  SkylakeX
   Copyright (c) 2011-2014, The OpenBLAS Project


Your calculation utilizes the atom-pairwise dispersion correction
with the Becke-Johnson damping scheme (D3BJ)
Cite in your paper:
S.Grimme, S.Ehrlich, L.Goerigk, J Comput Chem, (2011), 32, 1456–1465 
S.Grimme, J.Antony, S.Ehrlich and H.Krieg, J.Chem.Phys., 132, (2010), 154104 
   

================================================================================

----- Orbital basis set information -----
Your calculation utilizes the basis: def2-TZVP
   F. Weigend and R. Ahlrichs, Phys. Chem. Chem. Phys. 7, 3297 (2005).

----- AuxJ basis set information -----
Your calculation utilizes the auxiliary basis: def2/J
   F. Weigend, Phys. Chem. Chem. Phys. 8, 1057 (2006).

================================================================================
                                        WARNINGS
                       Please study these warnings very carefully!
================================================================================

INFO   : Checking CIS options ...

WARNING: CIS/ROCIS methods need fully converged wavefunctions
  ===> : Setting SCFConvForced true
         You can overwrite this default with %scf ConvForced false 


INFO   : the flag for use of the SHARK integral package has been found!

================================================================================
                                       INPUT FILE
================================================================================
NAME = ox_es1_D_orca0007.inp
|  1> ! engrad PBE0 D3BJ def2-TZVP  
|  2> %pal nprocs 8 end
|  3> %maxcore 3000
|  4> 
|  5> %tddft
|  6>   nroots 1
|  7>   tda true
|  8>   Iroot 1
|  9>   end 
| 10> *xyz 0 1 
| 11> O   -0.7211924901755584 0.9914815480494275 -0.024017823758860597
| 12> C   -0.7325029764069814 -0.3984807993279228 -0.05035880982216209
| 13> C   0.7218645843583106 -0.4372571989801323 -0.013345280946018057
| 14> H   -1.290944104464895 -0.7579778831085495 0.9671733503710132
| 15> H   -1.2452919417895427 -0.645628284440856 -0.9674751640973431
| 16> H   1.2870463358049333 -0.6525988159959619 -0.964556401960299
| 17> H   1.1679828002250265 -0.687012843572781 0.9766613294704894
| 18> *
| 19> 
| 20>                          ****END OF INPUT****
================================================================================

                     *******************************
                     * Energy+Gradient Calculation *
                     *******************************

---------------------------------
CARTESIAN COORDINATES (ANGSTROEM)
---------------------------------
  O     -0.721192    0.991482   -0.024018
  C     -0.732503   -0.398481   -0.050359
  C      0.721865   -0.437257   -0.013345
  H     -1.290944   -0.757978    0.967173
  H     -1.245292   -0.645628   -0.967475
  H      1.287046   -0.652599   -0.964556
  H      1.167983   -0.687013    0.976661

----------------------------
CARTESIAN COORDINATES (A.U.)
----------------------------
  NO LB      ZA    FRAG     MASS         X           Y           Z
   0 O     8.0000    0    15.999   -1.362856    1.873629   -0.045387
   1 C     6.0000    0    12.011   -1.384230   -0.753020   -0.095164
   2 C     6.0000    0    12.011    1.364126   -0.826296   -0.025219
   3 H     1.0000    0     1.008   -2.439531   -1.432371    1.827693
   4 H     1.0000    0     1.008   -2.353261   -1.220061   -1.828263
   5 H     1.0000    0     1.008    2.432165   -1.233233   -1.822747
   6 H     1.0000    0     1.008    2.207168   -1.298266    1.845622

--------------------------------
INTERNAL COORDINATES (ANGSTROEM)
--------------------------------
 O      0   0   0     0.000000000000     0.00000000     0.00000000
 C      1   0   0     1.390257926348     0.00000000     0.00000000
 C      2   1   0     1.455355149885    91.03289259     0.00000000
 H      2   1   3     1.215099314369   106.47924803   116.99564916
 H      2   1   3     1.079415031253   104.41115794   239.27688652
 H      3   2   1     1.127211169626   118.99193041   257.17201088
 H      3   2   1     1.114231768171   115.38379432   102.55013004

---------------------------
INTERNAL COORDINATES (A.U.)
---------------------------
 O      0   0   0     0.000000000000     0.00000000     0.00000000
 C      1   0   0     2.627206736310     0.00000000     0.00000000
 C      2   1   0     2.750222660874    91.03289259     0.00000000
 H      2   1   3     2.296204929673   106.47924803   116.99564916
 H      2   1   3     2.039798793906   104.41115794   239.27688652
 H      3   2   1     2.130120405689   118.99193041   257.17201088
 H      3   2   1     2.105592891559   115.38379432   102.55013004

---------------------
BASIS SET INFORMATION
---------------------
There are 3 groups of distinct atoms

 Group   1 Type O   : 11s6p2d1f contracted to 5s3p2d1f pattern {62111/411/11/1}
 Group   2 Type C   : 11s6p2d1f contracted to 5s3p2d1f pattern {62111/411/11/1}
 Group   3 Type H   : 5s1p contracted to 3s1p pattern {311/1}

Atom   0O    basis set group =>   1
Atom   1C    basis set group =>   2
Atom   2C    basis set group =>   2
Atom   3H    basis set group =>   3
Atom   4H    basis set group =>   3
Atom   5H    basis set group =>   3
Atom   6H    basis set group =>   3
---------------------------------
AUXILIARY/J BASIS SET INFORMATION
---------------------------------
There are 3 groups of distinct atoms

 Group   1 Type O   : 12s5p4d2f1g contracted to 6s4p3d1f1g pattern {711111/2111/211/2/1}
 Group   2 Type C   : 12s5p4d2f1g contracted to 6s4p3d1f1g pattern {711111/2111/211/2/1}
 Group   3 Type H   : 5s2p1d contracted to 3s1p1d pattern {311/2/1}

Atom   0O    basis set group =>   1
Atom   1C    basis set group =>   2
Atom   2C    basis set group =>   2
Atom   3H    basis set group =>   3
Atom   4H    basis set group =>   3
Atom   5H    basis set group =>   3
Atom   6H    basis set group =>   3

Checking for AutoStart:
The File: ox_es1_D_orca0007.gbw exists
Trying to determine its content:
     ... Fine, the file contains calculation information
     ... Fine, the calculation information was read
     ... Fine, the file contains a basis set
     ... Fine, the basis set was read
     ... Fine, the file contains a geometry
     ... Fine, the geometry was read
     ... Fine, the file contains a set of orbitals
     ... Fine, the orbitals can be read
     => possible old guess file was deleted
     => GBW file was renamed to GES file
     => GES file is set as startup file
     => Guess is set to MORead
     ... now leaving AutoStart



           ************************************************************
           *        Program running with 8 parallel MPI-processes     *
           *              working on a common directory               *
           ************************************************************
------------------------------------------------------------------------------
                           ORCA GTO INTEGRAL CALCULATION
                           -- RI-GTO INTEGRALS CHOSEN --
------------------------------------------------------------------------------
------------------------------------------------------------------------------
                   ___                                                        
                  /   \      - P O W E R E D   B Y -                         
                 /     \                                                     
                 |  |  |   _    _      __       _____    __    __             
                 |  |  |  | |  | |    /  \     |  _  \  |  |  /  |          
                  \  \/   | |  | |   /    \    | | | |  |  | /  /          
                 / \  \   | |__| |  /  /\  \   | |_| |  |  |/  /          
                |  |  |   |  __  | /  /__\  \  |    /   |      \           
                |  |  |   | |  | | |   __   |  |    \   |  |\   \          
                \     /   | |  | | |  |  |  |  | |\  \  |  | \   \       
                 \___/    |_|  |_| |__|  |__|  |_| \__\ |__|  \__/        
                                                                              
                      - O R C A' S   B I G   F R I E N D -                    
                                      &                                       
                       - I N T E G R A L  F E E D E R -                       
                                                                              
 v1 FN, 2020, v2 2021                                                         
------------------------------------------------------------------------------


Reading SHARK input file ox_es1_D_orca0007.SHARKINP.tmp ... ok
----------------------
SHARK INTEGRAL PACKAGE
----------------------

Number of atoms                             ...      7
Number of basis functions                   ...    117
Number of shells                            ...     49
Maximum angular momentum                    ...      3
Integral batch strategy                     ... SHARK/LIBINT Hybrid
RI-J (if used) integral strategy            ... SPLIT-RIJ (Revised 2003 algorithm where possible)
Printlevel                                  ...      1
Contraction scheme used                     ... SEGMENTED contraction
Coulomb Range Separation                    ... NOT USED
Exchange Range Separation                   ... NOT USED
Finite Nucleus Model                        ... NOT USED
Auxiliary Coulomb fitting basis             ... AVAILABLE
   # of basis functions in Aux-J            ...    191
   # of shells in Aux-J                     ...     65
   Maximum angular momentum in Aux-J        ...      4
Auxiliary J/K fitting basis                 ... NOT available
Auxiliary Correlation fitting basis         ... NOT available
Auxiliary 'external' fitting basis          ... NOT available
Integral threshold                          ...     2.500000e-11
Primitive cut-off                           ...     2.500000e-12
Primitive pair pre-selection threshold      ...     2.500000e-12

Calculating pre-screening integrals         ... done (  0.0 sec) Dimension = 49
Organizing shell pair data                  ... done (  0.0 sec)
Shell pair information
Total number of shell pairs                 ...      1225
Shell pairs after pre-screening             ...      1216
Total number of primitive shell pairs       ...      3648
Primitive shell pairs kept                  ...      3095
          la=0 lb=0:    369 shell pairs
          la=1 lb=0:    351 shell pairs
          la=1 lb=1:     91 shell pairs
          la=2 lb=0:    162 shell pairs
          la=2 lb=1:     78 shell pairs
          la=2 lb=2:     21 shell pairs
          la=3 lb=0:     81 shell pairs
          la=3 lb=1:     39 shell pairs
          la=3 lb=2:     18 shell pairs
          la=3 lb=3:      6 shell pairs

Calculating one electron integrals          ... done (  0.0 sec)
Calculating RI/J V-Matrix + Cholesky decomp.... done (  0.0 sec)
Calculating Nuclear repulsion               ... done (  0.0 sec) ENN=     69.398089648247 Eh

SHARK setup successfully completed in   0.1 seconds

Maximum memory used throughout the entire GTOINT-calculation: 14.9 MB


           ************************************************************
           *        Program running with 8 parallel MPI-processes     *
           *              working on a common directory               *
           ************************************************************
-------------------------------------------------------------------------------
                                 ORCA SCF
-------------------------------------------------------------------------------

------------
SCF SETTINGS
------------
Hamiltonian:
 Density Functional     Method          .... DFT(GTOs)
 Exchange Functional    Exchange        .... PBE
   PBE kappa parameter   XKappa         ....  0.804000
   PBE mue parameter    XMuePBE         ....  0.219520
 Correlation Functional Correlation     .... PBE
   PBE beta parameter  CBetaPBE         ....  0.066725
 LDA part of GGA corr.  LDAOpt          .... PW91-LDA
 Gradients option       PostSCFGGA      .... off
 Hybrid DFT is turned on
   Fraction HF Exchange ScalHFX         ....  0.250000
   Scaling of DF-GGA-X  ScalDFX         ....  0.750000
   Scaling of DF-GGA-C  ScalDFC         ....  1.000000
   Scaling of DF-LDA-C  ScalLDAC        ....  1.000000
   Perturbative correction              ....  0.000000
   Density functional embedding theory  .... OFF
   NL short-range parameter             ....  6.900000
 RI-approximation to the Coulomb term is turned on
   Number of AuxJ basis functions       .... 191
   RIJ-COSX (HFX calculated with COS-X)).... on


General Settings:
 Integral files         IntName         .... ox_es1_D_orca0007
 Hartree-Fock type      HFTyp           .... RHF
 Total Charge           Charge          ....    0
 Multiplicity           Mult            ....    1
 Number of Electrons    NEL             ....   24
 Basis Dimension        Dim             ....  117
 Nuclear Repulsion      ENuc            ....     69.3980896482 Eh

Convergence Acceleration:
 DIIS                   CNVDIIS         .... on
   Start iteration      DIISMaxIt       ....    12
   Startup error        DIISStart       ....  0.200000
   # of expansion vecs  DIISMaxEq       ....     5
   Bias factor          DIISBfac        ....   1.050
   Max. coefficient     DIISMaxC        ....  10.000
 Trust-Rad. Augm. Hess. CNVTRAH         .... auto
   Auto Start mean grad. ratio tolernc. ....  1.125000
   Auto Start start iteration           ....     1
   Auto Start num. interpolation iter.  ....    10
   Max. Number of Micro iterations      ....    16
   Max. Number of Macro iterations      .... Maxiter - #DIIS iter
   Number of Davidson start vectors     ....     2
   Converg. threshold I  (grad. norm)   ....   1.000e-05
   Converg. threshold II (energy diff.) ....   1.000e-08
   Grad. Scal. Fac. for Micro threshold ....   0.100
   Minimum threshold for Micro iter.    ....   0.010
   NR start threshold (gradient norm)   ....   0.001
   Initial trust radius                 ....   0.400
   Minimum AH scaling param. (alpha)    ....   1.000
   Maximum AH scaling param. (alpha)    .... 1000.000
   Orbital update algorithm             .... Taylor
   White noise on init. David. guess    .... on
   Maximum white noise                  ....   0.010
   Quad. conv. algorithm                .... NR
 SOSCF                  CNVSOSCF        .... on
   Start iteration      SOSCFMaxIt      ....   150
   Startup grad/error   SOSCFStart      ....  0.003300
 Level Shifting         CNVShift        .... on
   Level shift para.    LevelShift      ....    0.2500
   Turn off err/grad.   ShiftErr        ....    0.0010
 Zerner damping         CNVZerner       .... off
 Static damping         CNVDamp         .... on
   Fraction old density DampFac         ....    0.7000
   Max. Damping (<1)    DampMax         ....    0.9800
   Min. Damping (>=0)   DampMin         ....    0.0000
   Turn off err/grad.   DampErr         ....    0.1000
 Fernandez-Rico         CNVRico         .... off

SCF Procedure:
 Maximum # iterations   MaxIter         ....   125
 SCF integral mode      SCFMode         .... Direct
   Integral package                     .... SHARK and LIBINT hybrid scheme
 Reset frequency        DirectResetFreq ....    20
 Integral Threshold     Thresh          ....  2.500e-11 Eh
 Primitive CutOff       TCut            ....  2.500e-12 Eh

Convergence Tolerance:
 Convergence Check Mode ConvCheckMode   .... Total+1el-Energy
 Convergence forced     ConvForced      .... 1
 Energy Change          TolE            ....  1.000e-08 Eh
 1-El. energy change                    ....  1.000e-05 Eh
 Orbital Gradient       TolG            ....  1.000e-05
 Orbital Rotation angle TolX            ....  1.000e-05
 DIIS Error             TolErr          ....  5.000e-07


Diagonalization of the overlap matrix:
Smallest eigenvalue                        ... 4.366e-04
Time for diagonalization                   ...    0.001 sec
Threshold for overlap eigenvalues          ... 1.000e-08
Number of eigenvalues below threshold      ... 0
Time for construction of square roots      ...    0.001 sec
Total time needed                          ...    0.003 sec

---------------------
INITIAL GUESS: MOREAD
---------------------
Guess MOs are being read from file: ox_es1_D_orca0007.ges
Input Geometry matches current geometry (good)
Input basis set matches current basis set (good)
MOs were renormalized
MOs were reorthogonalized (Cholesky)
                      ------------------
                      INITIAL GUESS DONE (   0.0 sec)
                      ------------------
-------------------
DFT GRID GENERATION
-------------------

General Integration Accuracy     IntAcc      ... 4.388
Radial Grid Type                 RadialGrid  ... OptM3 with GC (2021)
Angular Grid (max. ang.)         AngularGrid ... 4 (Lebedev-302)
Angular grid pruning method      GridPruning ... 4 (adaptive)
Weight generation scheme         WeightScheme... Becke
Basis function cutoff            BFCut       ... 1.0000e-11
Integration weight cutoff        WCut        ... 1.0000e-14
Angular grids for H and He will be reduced by one unit
Partially contracted basis set               ... off
Rotationally invariant grid construction     ... off

Total number of grid points                  ...    31339
Total number of batches                      ...      494
Average number of points per batch           ...       63
Average number of grid points per atom       ...     4477
Time for grid setup =    0.135 sec

--------------------
COSX GRID GENERATION
--------------------

GRIDX 1
-------
General Integration Accuracy     IntAcc      ... 3.816
Radial Grid Type                 RadialGrid  ... OptM3 with GC (2021)
Angular Grid (max. ang.)         AngularGrid ... 1 (Lebedev-50)
Angular grid pruning method      GridPruning ... 4 (adaptive)
Weight generation scheme         WeightScheme... Becke
Basis function cutoff            BFCut       ... 1.0000e-11
Integration weight cutoff        WCut        ... 1.0000e-14
Angular grids for H and He will be reduced by one unit
Partially contracted basis set               ... on
Rotationally invariant grid construction     ... off

Total number of grid points                  ...     4029
Total number of batches                      ...       67
Average number of points per batch           ...       60
Average number of grid points per atom       ...      576
UseSFitting                                  ... on

GRIDX 2
-------
General Integration Accuracy     IntAcc      ... 4.020
Radial Grid Type                 RadialGrid  ... OptM3 with GC (2021)
Angular Grid (max. ang.)         AngularGrid ... 2 (Lebedev-110)
Angular grid pruning method      GridPruning ... 4 (adaptive)
Weight generation scheme         WeightScheme... Becke
Basis function cutoff            BFCut       ... 1.0000e-11
Integration weight cutoff        WCut        ... 1.0000e-14
Angular grids for H and He will be reduced by one unit
Partially contracted basis set               ... on
Rotationally invariant grid construction     ... off

Total number of grid points                  ...     8719
Total number of batches                      ...      139
Average number of points per batch           ...       62
Average number of grid points per atom       ...     1246
UseSFitting                                  ... on

GRIDX 3
-------
General Integration Accuracy     IntAcc      ... 4.338
Radial Grid Type                 RadialGrid  ... OptM3 with GC (2021)
Angular Grid (max. ang.)         AngularGrid ... 3 (Lebedev-194)
Angular grid pruning method      GridPruning ... 4 (adaptive)
Weight generation scheme         WeightScheme... Becke
Basis function cutoff            BFCut       ... 1.0000e-11
Integration weight cutoff        WCut        ... 1.0000e-14
Angular grids for H and He will be reduced by one unit
Partially contracted basis set               ... on
Rotationally invariant grid construction     ... off

Total number of grid points                  ...    19254
Total number of batches                      ...      304
Average number of points per batch           ...       63
Average number of grid points per atom       ...     2751
UseSFitting                                  ... on

Time for X-Grid setup             =    0.084 sec

--------------
SCF ITERATIONS
--------------
ITER       Energy         Delta-E        Max-DP      RMS-DP      [F,P]     Damp
               ***  Starting incremental Fock matrix formation  ***
                      *** Initiating the SOSCF procedure ***
                      *** Re-Reading the Fockian *** 
                      *** Removing any level shift *** 
ITER      Energy       Delta-E        Grad      Rot      Max-DP    RMS-DP
  0   -153.57742754 -153.5774275438  0.000002  0.000002  0.000004  0.000000
               *** Restarting incremental Fock matrix formation ***
                  ***Gradient check signals convergence***
              ***Rediagonalizing the Fockian in SOSCF/NRSCF***

               *****************************************************
               *                     SUCCESS                       *
               *           SCF CONVERGED AFTER   1 CYCLES          *
               *****************************************************

Old exchange energy                            =     -4.948295276 Eh
New exchange energy                            =     -4.948307519 Eh
Exchange energy change after final integration =     -0.000012243 Eh
Total energy after final integration           =   -153.577439787 Eh
Final COS-X integration done in                =     0.334 sec

----------------
TOTAL SCF ENERGY
----------------

Total Energy       :         -153.57743979 Eh           -4179.05460 eV

Components:
Nuclear Repulsion  :           69.39808965 Eh            1888.41802 eV
Electronic Energy  :         -222.97552943 Eh           -6067.47262 eV
One Electron Energy:         -345.63880770 Eh           -9405.31011 eV
Two Electron Energy:          122.66327826 Eh            3337.83749 eV
Max COSX asymmetry :            0.00000107 Eh               0.00003 eV

Virial components:
Potential Energy   :         -306.15707705 Eh           -8330.95760 eV
Kinetic Energy     :          152.57963726 Eh            4151.90301 eV
Virial Ratio       :            2.00653955


DFT components:
N(Alpha)           :       12.000009437421 electrons
N(Beta)            :       12.000009437421 electrons
N(Total)           :       24.000018874842 electrons
E(X)               :      -14.853301274098 Eh       
E(C)               :       -0.772930954643 Eh       
E(XC)              :      -15.626232228741 Eh       
DFET-embed. en.    :        0.000000000000 Eh       

---------------
SCF CONVERGENCE
---------------

  Last Energy change         ...   -9.7231e-11  Tolerance :   1.0000e-08
  Last MAX-Density change    ...    5.5511e-16  Tolerance :   1.0000e-07
  Last RMS-Density change    ...    1.7238e-17  Tolerance :   5.0000e-09
  Last Orbital Gradient      ...    1.1984e-06  Tolerance :   1.0000e-05
  Last Orbital Rotation      ...    4.0569e-06  Tolerance :   1.0000e-05

             **** THE GBW FILE WAS UPDATED (ox_es1_D_orca0007.gbw) ****
             **** DENSITY ox_es1_D_orca0007.scfp WAS UPDATED ****
             **** ENERGY FILE WAS UPDATED (ox_es1_D_orca0007.en.tmp) ****
             **** THE GBW FILE WAS UPDATED (ox_es1_D_orca0007.gbw) ****
             **** DENSITY ox_es1_D_orca0007.scfp WAS UPDATED ****
----------------
ORBITAL ENERGIES
----------------

  NO   OCC          E(Eh)            E(eV) 
   0   2.0000     -19.210015      -522.7311 
   1   2.0000     -10.320130      -280.8250 
   2   2.0000     -10.280728      -279.7528 
   3   2.0000      -1.018496       -27.7147 
   4   2.0000      -0.760015       -20.6811 
   5   2.0000      -0.615363       -16.7449 
   6   2.0000      -0.518222       -14.1015 
   7   2.0000      -0.478485       -13.0203 
   8   2.0000      -0.413950       -11.2641 
   9   2.0000      -0.404941       -11.0190 
  10   2.0000      -0.290589        -7.9073 
  11   2.0000      -0.264892        -7.2081 
  12   0.0000      -0.112560        -3.0629 
  13   0.0000       0.046645         1.2693 
  14   0.0000       0.071126         1.9354 
  15   0.0000       0.086062         2.3419 
  16   0.0000       0.128715         3.5025 
  17   0.0000       0.146498         3.9864 
  18   0.0000       0.179744         4.8911 
  19   0.0000       0.196391         5.3441 
  20   0.0000       0.237839         6.4719 
  21   0.0000       0.257158         6.9976 
  22   0.0000       0.274123         7.4593 
  23   0.0000       0.339281         9.2323 
  24   0.0000       0.375119        10.2075 
  25   0.0000       0.384202        10.4547 
  26   0.0000       0.396965        10.8020 
  27   0.0000       0.415825        11.3152 
  28   0.0000       0.423801        11.5322 
  29   0.0000       0.475683        12.9440 
  30   0.0000       0.494280        13.4500 
  31   0.0000       0.515950        14.0397 
  32   0.0000       0.548458        14.9243 
  33   0.0000       0.618899        16.8411 
  34   0.0000       0.655556        17.8386 
  35   0.0000       0.753933        20.5156 
  36   0.0000       0.808723        22.0065 
  37   0.0000       0.854023        23.2391 
  38   0.0000       0.882612        24.0171 
  39   0.0000       0.918409        24.9912 
  40   0.0000       0.945970        25.7412 
  41   0.0000       1.041577        28.3427 
  42   0.0000       1.043791        28.4030 
  43   0.0000       1.072694        29.1895 
  44   0.0000       1.178693        32.0739 
  45   0.0000       1.329215        36.1698 
  46   0.0000       1.390920        37.8489 
  47   0.0000       1.474606        40.1261 
  48   0.0000       1.507672        41.0258 
  49   0.0000       1.544767        42.0353 
  50   0.0000       1.563924        42.5565 
  51   0.0000       1.605989        43.7012 
  52   0.0000       1.641915        44.6788 
  53   0.0000       1.673916        45.5496 
  54   0.0000       1.704245        46.3749 
  55   0.0000       1.759510        47.8787 
  56   0.0000       1.799583        48.9691 
  57   0.0000       1.845985        50.2318 
  58   0.0000       1.865725        50.7690 
  59   0.0000       1.899639        51.6918 
  60   0.0000       1.985668        54.0328 
  61   0.0000       2.086151        56.7670 
  62   0.0000       2.100999        57.1711 
  63   0.0000       2.210686        60.1558 
  64   0.0000       2.314172        62.9718 
  65   0.0000       2.367345        64.4187 
  66   0.0000       2.375251        64.6339 
  67   0.0000       2.451169        66.6997 
  68   0.0000       2.467715        67.1499 
  69   0.0000       2.489101        67.7319 
  70   0.0000       2.553746        69.4910 
  71   0.0000       2.566832        69.8470 
  72   0.0000       2.587583        70.4117 
  73   0.0000       2.686106        73.0927 
  74   0.0000       2.763492        75.1984 
  75   0.0000       2.802555        76.2614 
  76   0.0000       2.838632        77.2431 
  77   0.0000       2.935723        79.8851 
  78   0.0000       2.970861        80.8412 
  79   0.0000       2.995398        81.5089 
  80   0.0000       3.053217        83.0823 
  81   0.0000       3.093359        84.1746 
  82   0.0000       3.108487        84.5862 
  83   0.0000       3.155592        85.8680 
  84   0.0000       3.161560        86.0304 
  85   0.0000       3.194177        86.9180 
  86   0.0000       3.334464        90.7354 
  87   0.0000       3.400215        92.5245 
  88   0.0000       3.446659        93.7884 
  89   0.0000       3.501553        95.2821 
  90   0.0000       3.566515        97.0498 
  91   0.0000       3.683593       100.2357 
  92   0.0000       3.693808       100.5136 
  93   0.0000       3.835988       104.3825 
  94   0.0000       3.919223       106.6475 
  95   0.0000       3.983471       108.3958 
  96   0.0000       4.099128       111.5429 
  97   0.0000       4.218331       114.7866 
  98   0.0000       4.346482       118.2738 
  99   0.0000       4.486702       122.0894 
 100   0.0000       4.499217       122.4299 
 101   0.0000       4.734277       128.8262 
 102   0.0000       5.208961       141.7430 
 103   0.0000       5.271584       143.4471 
 104   0.0000       5.383182       146.4838 
 105   0.0000       5.399160       146.9186 
 106   0.0000       5.803376       157.9179 
 107   0.0000       5.830451       158.6546 
 108   0.0000       5.973820       162.5559 
 109   0.0000       6.387185       173.8041 
 110   0.0000       6.459309       175.7667 
 111   0.0000       6.797098       184.9584 
 112   0.0000       6.857918       186.6134 
 113   0.0000       6.952133       189.1772 
 114   0.0000      22.020754       599.2152 
 115   0.0000      22.423586       610.1768 
 116   0.0000      43.732957      1190.0342 

                    ********************************
                    * MULLIKEN POPULATION ANALYSIS *
                    ********************************

-----------------------
MULLIKEN ATOMIC CHARGES
-----------------------
   0 O :   -0.361621
   1 C :   -0.008121
   2 C :   -0.144677
   3 H :    0.082304
   4 H :    0.103075
   5 H :    0.164987
   6 H :    0.164053
Sum of atomic charges:   -0.0000000

--------------------------------
MULLIKEN REDUCED ORBITAL CHARGES
--------------------------------
  0 O s       :     3.906357  s :     3.906357
      pz      :     1.886715  p :     4.427866
      px      :     1.277548
      py      :     1.263603
      dz2     :     0.003515  d :     0.026033
      dxz     :     0.000332
      dyz     :     0.005602
      dx2y2   :     0.009032
      dxy     :     0.007552
      f0      :     0.000161  f :     0.001365
      f+1     :     0.000069
      f-1     :     0.000331
      f+2     :     0.000168
      f-2     :     0.000022
      f+3     :     0.000297
      f-3     :     0.000317
  1 C s       :     3.188912  s :     3.188912
      pz      :     1.034809  p :     2.647665
      px      :     0.896096
      py      :     0.716761
      dz2     :     0.010108  d :     0.160860
      dxz     :     0.019310
      dyz     :     0.052983
      dx2y2   :     0.023703
      dxy     :     0.054756
      f0      :     0.001878  f :     0.010685
      f+1     :     0.001101
      f-1     :     0.000940
      f+2     :     0.003065
      f-2     :     0.000117
      f+3     :     0.002122
      f-3     :     0.001461
  2 C s       :     3.311802  s :     3.311802
      pz      :     1.039053  p :     2.769874
      px      :     1.006135
      py      :     0.724686
      dz2     :     0.007848  d :     0.057835
      dxz     :     0.022704
      dyz     :     0.006221
      dx2y2   :     0.006859
      dxy     :     0.014202
      f0      :     0.000634  f :     0.005166
      f+1     :     0.001049
      f-1     :     0.000155
      f+2     :     0.000692
      f-2     :     0.000326
      f+3     :     0.000994
      f-3     :     0.001317
  3 H s       :     0.901523  s :     0.901523
      pz      :     0.008699  p :     0.016173
      px      :     0.004529
      py      :     0.002945
  4 H s       :     0.875414  s :     0.875414
      pz      :     0.010862  p :     0.021511
      px      :     0.006270
      py      :     0.004378
  5 H s       :     0.813541  s :     0.813541
      pz      :     0.011078  p :     0.021471
      px      :     0.006569
      py      :     0.003825
  6 H s       :     0.813998  s :     0.813998
      pz      :     0.012151  p :     0.021950
      px      :     0.005647
      py      :     0.004152


                     *******************************
                     * LOEWDIN POPULATION ANALYSIS *
                     *******************************

----------------------
LOEWDIN ATOMIC CHARGES
----------------------
   0 O :   -0.016132
   1 C :   -0.466638
   2 C :   -0.037574
   3 H :    0.124729
   4 H :    0.110642
   5 H :    0.143156
   6 H :    0.141817

-------------------------------
LOEWDIN REDUCED ORBITAL CHARGES
-------------------------------
  0 O s       :     3.536412  s :     3.536412
      pz      :     1.807335  p :     4.416805
      px      :     1.219916
      py      :     1.389554
      dz2     :     0.007377  d :     0.058847
      dxz     :     0.000421
      dyz     :     0.015024
      dx2y2   :     0.019124
      dxy     :     0.016901
      f0      :     0.000411  f :     0.004067
      f+1     :     0.000111
      f-1     :     0.000648
      f+2     :     0.000776
      f-2     :     0.000025
      f+3     :     0.001247
      f-3     :     0.000849
  1 C s       :     2.836304  s :     2.836304
      pz      :     1.033977  p :     2.925600
      px      :     1.043477
      py      :     0.848146
      dz2     :     0.067306  d :     0.627482
      dxz     :     0.102311
      dyz     :     0.145850
      dx2y2   :     0.139219
      dxy     :     0.172797
      f0      :     0.011851  f :     0.077252
      f+1     :     0.005406
      f-1     :     0.007975
      f+2     :     0.018135
      f-2     :     0.001634
      f+3     :     0.015249
      f-3     :     0.017003
  2 C s       :     2.921066  s :     2.921066
      pz      :     1.064548  p :     2.852444
      px      :     1.120311
      py      :     0.667585
      dz2     :     0.034879  d :     0.238176
      dxz     :     0.104030
      dyz     :     0.014378
      dx2y2   :     0.040926
      dxy     :     0.043964
      f0      :     0.004196  f :     0.025889
      f+1     :     0.003278
      f-1     :     0.001273
      f+2     :     0.004155
      f-2     :     0.001341
      f+3     :     0.004867
      f-3     :     0.006778
  3 H s       :     0.833010  s :     0.833010
      pz      :     0.023828  p :     0.042261
      px      :     0.010963
      py      :     0.007469
  4 H s       :     0.827767  s :     0.827767
      pz      :     0.032361  p :     0.061591
      px      :     0.017082
      py      :     0.012147
  5 H s       :     0.796668  s :     0.796668
      pz      :     0.032300  p :     0.060177
      px      :     0.017606
      py      :     0.010270
  6 H s       :     0.796415  s :     0.796415
      pz      :     0.035130  p :     0.061768
      px      :     0.015408
      py      :     0.011230


                      *****************************
                      * MAYER POPULATION ANALYSIS *
                      *****************************

  NA   - Mulliken gross atomic population
  ZA   - Total nuclear charge
  QA   - Mulliken gross atomic charge
  VA   - Mayer's total valence
  BVA  - Mayer's bonded valence
  FA   - Mayer's free valence

  ATOM       NA         ZA         QA         VA         BVA        FA
  0 O      8.3616     8.0000    -0.3616     1.9005     1.9005    -0.0000
  1 C      6.0081     6.0000    -0.0081     4.0347     4.0347     0.0000
  2 C      6.1447     6.0000    -0.1447     3.8099     3.8099     0.0000
  3 H      0.9177     1.0000     0.0823     0.9598     0.9598    -0.0000
  4 H      0.8969     1.0000     0.1031     0.9595     0.9595     0.0000
  5 H      0.8350     1.0000     0.1650     0.9573     0.9573     0.0000
  6 H      0.8359     1.0000     0.1641     0.9576     0.9576    -0.0000

  Mayer bond orders larger than 0.100000
B(  0-O ,  1-C ) :   1.0434 B(  0-O ,  2-C ) :   0.8426 B(  1-C ,  2-C ) :   1.0773 
B(  1-C ,  3-H ) :   0.9401 B(  1-C ,  4-H ) :   0.9654 B(  2-C ,  5-H ) :   0.9379 
B(  2-C ,  6-H ) :   0.9399 

-------
TIMINGS
-------

Total SCF time: 0 days 0 hours 0 min 1 sec 

Total time                  ....       1.224 sec
Sum of individual times     ....       1.110 sec  ( 90.7%)

Fock matrix formation       ....       0.871 sec  ( 71.2%)
  Split-RI-J                ....       0.138 sec  ( 15.9% of F)
  Chain of spheres X        ....       0.652 sec  ( 74.8% of F)
  XC integration            ....       0.079 sec  (  9.1% of F)
    Basis function eval.    ....       0.023 sec  ( 28.7% of XC)
    Density eval.           ....       0.017 sec  ( 21.7% of XC)
    XC-Functional eval.     ....       0.005 sec  (  6.0% of XC)
    XC-Potential eval.      ....       0.026 sec  ( 33.2% of XC)
Diagonalization             ....       0.003 sec  (  0.2%)
Density matrix formation    ....       0.001 sec  (  0.0%)
Population analysis         ....       0.003 sec  (  0.3%)
Initial guess               ....       0.009 sec  (  0.7%)
Orbital Transformation      ....       0.000 sec  (  0.0%)
Orbital Orthonormalization  ....       0.001 sec  (  0.1%)
DIIS solution               ....       0.002 sec  (  0.1%)
SOSCF solution              ....       0.003 sec  (  0.2%)
Grid generation             ....       0.219 sec  ( 17.9%)

Maximum memory used throughout the entire SCF-calculation: 61.1 MB


           ************************************************************
           *        Program running with 8 parallel MPI-processes     *
           *              working on a common directory               *
           ************************************************************
------------------------------------------------------------------------------
                        ORCA TD-DFT/TDA CALCULATION
------------------------------------------------------------------------------

Input orbitals are from        ... ox_es1_D_orca0007.gbw
CI-vector output               ... ox_es1_D_orca0007.cis
Tamm-Dancoff approximation     ... operative
CIS-Integral strategy          ... AO-integrals
Integral handling              ... AO integral Direct
Max. core memory used          ... 3000 MB
Reference state                ... RHF
Generation of triplets         ... off
Follow IRoot                   ... off
Number of operators            ... 1
Orbital ranges used for CIS calculation:
 Operator 0:  Orbitals   3... 11  to  12...116
XAS localization array:
 Operator 0:  Orbitals  -1... -1

-------------------
XC-INTEGRATION GRID
-------------------

General Integration Accuracy     IntAcc      ... 3.467
Radial Grid Type                 RadialGrid  ... OptM3 with GC (2021)
Angular Grid (max. ang.)         AngularGrid ... 1 (Lebedev-50)
Angular grid pruning method      GridPruning ... 4 (adaptive)
Weight generation scheme         WeightScheme... Becke
Basis function cutoff            BFCut       ... 1.0000e-11
Integration weight cutoff        WCut        ... 1.0000e-14
Angular grids for H and He will be reduced by one unit
Partially contracted basis set               ... off
Rotationally invariant grid construction     ... off

Total number of grid points                  ...     4529
Total number of batches                      ...       74
Average number of points per batch           ...       61
Average number of grid points per atom       ...      647

---------------------
COSX-INTEGRATION GRID
---------------------

General Integration Accuracy     IntAcc      ... 3.067
Radial Grid Type                 RadialGrid  ... OptM3 with GC (2021)
Angular Grid (max. ang.)         AngularGrid ... 1 (Lebedev-50)
Angular grid pruning method      GridPruning ... 4 (adaptive)
Weight generation scheme         WeightScheme... Becke
Basis function cutoff            BFCut       ... 1.0000e-11
Integration weight cutoff        WCut        ... 1.0000e-14
Angular grids for H and He will be reduced by one unit
Partially contracted basis set               ... on
Rotationally invariant grid construction     ... off

Total number of grid points                  ...     2081
Total number of batches                      ...       38
Average number of points per batch           ...       54
Average number of grid points per atom       ...      297

---------------
TD-DFT XC SETUP
---------------

DFT calculation                         ... on
Name of the grid file                   ... ox_es1_D_orca0007.grid_cis.tmp
Exchange functional (TD-DFT)            ... PBE
   PBE kappa parameter  XKappa (TD-DFT) ...  0.804000
   PBE mue parameter   XMuePBE (TD-DFT) ...  0.219520
Correlation functional (TD-DFT)         ... PBE
   PBE beta parameter CBetaPBE (TD-DFT) ...  0.066725
 LDA part of GGA corr.  LDAOpt (TD-DFT) ... PW91-LDA
Hybrid DFT                              ... on
   Exchange mixing (TD-DFT)             ...  0.250
   GGA exch. scaling (TD-DFT)           ...  0.750
   GGA corr. scaling (TD-DFT)           ...  1.000

Building densities             ... done
Calculating rho(r) on the grid ... done
Building xc-kernel on the grid ... done
                    *** TD-DFT CALCULATION INITIALIZED ***

------------------------
DAVIDSON-DIAGONALIZATION
------------------------

Dimension of the eigenvalue problem            ...    945
Number of roots to be determined               ...      1
Maximum size of the expansion space            ...     10
Maximum number of iterations                   ...    100
Convergence tolerance for the residual         ...    2.500e-07
Convergence tolerance for the energies         ...    2.500e-07
Orthogonality tolerance                        ...    1.000e-14
Level Shift                                    ...    0.000e+00
Constructing the preconditioner                ... o.k.
Building the initial guess                     ... o.k.
Number of trial vectors determined             ...     10


                       ****Iteration    0****

   Memory handling for direct AO based CIS:
   Memory per vector needed      ...     1 MB
   Memory needed                 ...     1 MB
   Memory available              ...  3000 MB
   Number of vectors per batch   ...  3000
   Number of batches             ...     1
   Time for densities:            0.001
   Time for RI-J (Direct):        0.017
   Time for K (COSX):             0.063
   Time for XC-Integration:       0.017
   Time for Sigma-Completion:     0.000
   Size of expansion space: 3
   Lowest Energy          :     0.071662043533
   Maximum Energy change  :     0.071662043533 (vector 0)
   Maximum residual norm  :     0.002618332883

                       ****Iteration    1****
   Time for densities:            0.000
   Time for RI-J (Direct):        0.014
   Time for K (COSX):             0.058
   Time for XC-Integration:       0.007
   Time for Sigma-Completion:     0.000
   Size of expansion space: 4
   Lowest Energy          :     0.069598727661
   Maximum Energy change  :     0.002063315872 (vector 0)
   Maximum residual norm  :     0.000062986895

                       ****Iteration    2****
   Time for densities:            0.000
   Time for RI-J (Direct):        0.015
   Time for K (COSX):             0.060
   Time for XC-Integration:       0.008
   Time for Sigma-Completion:     0.000
   Size of expansion space: 5
   Lowest Energy          :     0.069552462340
   Maximum Energy change  :     0.000046265322 (vector 0)
   Maximum residual norm  :     0.000002097183

                       ****Iteration    3****
   Time for densities:            0.000
   Time for RI-J (Direct):        0.015
   Time for K (COSX):             0.060
   Time for XC-Integration:       0.008
   Time for Sigma-Completion:     0.000
   Size of expansion space: 6
   Lowest Energy          :     0.069550355486
   Maximum Energy change  :     0.000002106854 (vector 0)
   Maximum residual norm  :     0.000000118920

      *** CONVERGENCE OF RESIDUAL NORM REACHED ***

Storing the converged CI vectors               ... ox_es1_D_orca0007.cis1

                 *** DAVIDSON DONE ***

Total time for solving the CIS problem:     0.348sec

------------------------------------
TD-DFT/TDA EXCITED STATES (SINGLETS)
------------------------------------

the weight of the individual excitations are printed if larger than 1.0e-02

STATE  1:  E=   0.069550 au      1.893 eV    15264.5 cm**-1 <S**2> =   0.000000
    11a ->  12a  :     0.991400 (c=  0.99569082)


-----------------------------
TD-DFT/TDA-EXCITATION SPECTRA
-----------------------------

Center of mass = ( -0.5039,  0.1312, -0.0488)
Calculating the Dipole integrals                  ... done
Transforming integrals                            ... done
Calculating the Linear Momentum integrals         ... done
Transforming integrals                            ... done
Calculating angular momentum integrals            ... done
Transforming integrals                            ... done

-----------------------------------------------------------------------------
         ABSORPTION SPECTRUM VIA TRANSITION ELECTRIC DIPOLE MOMENTS
-----------------------------------------------------------------------------
State   Energy    Wavelength  fosc         T2        TX        TY        TZ  
        (cm-1)      (nm)                 (au**2)    (au)      (au)      (au) 
-----------------------------------------------------------------------------
   1   15264.5    655.1   0.000254922   0.00550  -0.00447   0.00100   0.07401

-----------------------------------------------------------------------------
         ABSORPTION SPECTRUM VIA TRANSITION VELOCITY DIPOLE MOMENTS
-----------------------------------------------------------------------------
State   Energy    Wavelength   fosc        P2         PX        PY        PZ  
        (cm-1)      (nm)                 (au**2)     (au)      (au)      (au) 
-----------------------------------------------------------------------------
   1   15264.5    655.1   0.008225002   0.00086  -0.00038   0.00288  -0.02915

-------------------------------------------------------------------
                             CD SPECTRUM
-------------------------------------------------------------------
State  Energy     Wavelength     R         MX        MY        MZ   
       (cm-1)       (nm)     (1e40*cgs)   (au)      (au)      (au)  
-------------------------------------------------------------------
   1   15264.5    655.1     -0.04046  -0.01863  -0.26268   0.00125

-------------------------------------------------------------------
         CD SPECTRUM VIA TRANSITION VELOCITY DIPOLE MOMENTS        
-------------------------------------------------------------------
State  Energy     Wavelength     R         MX        MY        MZ   
       (cm-1)       (nm)     (1e40*cgs)   (au)      (au)      (au)  
-------------------------------------------------------------------
   1   15264.5    655.1     -5.32024  -0.01863  -0.26268   0.00125

Total run time:        0.642 sec

           *** ORCA-CIS/TD-DFT FINISHED WITHOUT ERROR ***

Maximum memory used throughout the entire CIS-calculation: 49.4 MB

-----------------------
CIS/TD-DFT TOTAL ENERGY
-----------------------

    E(SCF)  =   -153.577439787 Eh
    DE(CIS) =      0.069550355 Eh (Root  1)
    ----------------------------- ---------
    E(tot)  =   -153.507889431 Eh



-------------------------------------------------------------------------------
                          DFT DISPERSION CORRECTION                            
                                                                               
                              DFTD3 V3.1  Rev 1                                
                          USING Becke-Johnson damping                          
-------------------------------------------------------------------------------
The PBE0 functional is recognized
Active option DFTDOPT                   ...         4   

molecular C6(AA) [au] = 393.054026 


            DFT-D V3
 parameters
 s6 scaling factor         :     1.0000 
 a1 scaling factor         :     0.4145 
 s8 scaling factor         :     1.2177 
 a2 scaling factor         :     4.8593 
 ad hoc parameters k1-k3   :    16.0000     1.3333    -4.0000 

 Edisp/kcal,au: -1.651474613823  -0.002631792038 
 E6   /kcal   :  -1.077890201 
 E8   /kcal   :  -0.573584413 
 % E8         :  34.731651811 

-------------------------   ----------------
Dispersion correction           -0.002631792
-------------------------   ----------------


-------------------------   --------------------
FINAL SINGLE POINT ENERGY      -153.510521223239
-------------------------   --------------------



           ************************************************************
           *        Program running with 8 parallel MPI-processes     *
           *              working on a common directory               *
           ************************************************************
------------------------------------------------------------------------------
                         ORCA SCF GRADIENT CALCULATION
------------------------------------------------------------------------------


------------------------
TD-DFT GRADIENT XC SETUP
------------------------

Building densities                     ... done
Calculating rho(r) on the grid         ... done
Building xc-kernel on the grid         ... done
Building xc 3rd derivative on the grid      ... done
                *** TD-DFT GRADIENT CALCULATION INITIALIZED ***

-------------------
TD-DFT/TDA GRADIENT
-------------------

Reference wavefunction             ... RHF
State of interest                  ... 1
Basis dimension                    ... 117
DFT-XC contribution needed         ... YES
RI-approximation                   ... ON
CIS-vectors being read from        ... ox_es1_D_orca0007.cis

 => Number of Vectors found: 1
 => Orbital Window: 3...11 -> 12...116

Reading the CIS file                     ... done
Norm of the CI vector                    ... 1.000000000
Making the CIS (pseudo)densities         ... done
Making operators G(D) and Q(T)           ... done
Transforming the Fock operators          ... done
Making the frozen-core relaxed density   ... done
Constructing the G(H) operator           ... done
Transforming the G(H) operator           ... done
Calculating the CIS Lagrangian           ... done
Solving the Z-vector equations           ... done
Finalizing the relaxed density           ... done
Storing the relaxed density              ... done
Constructing the G(Z) operator           ... done
Transforming the G(Z) operator           ... done
Making the W-matrix                      ... done
Finalizing the W-matrix                  ... done
Transforming the W-matrix                ... done
Nuclear repulsion gradient               ... done
One-Electron gradient                    ... done
Dispersion correction                    ... done
Prescreening matrices                    ... done
COSX-gradient                            ... done
Coulomb gradient (RI)                    ... done
Exchange-Correlation gradient            ... done

                 ---------------------------
                 EXCITED STATE GRADIENT DONE
                 ---------------------------

------------------
CARTESIAN GRADIENT
------------------

   1   O   :    0.035197384   -0.008991025   -0.003624670
   2   C   :   -0.018303707   -0.042305109   -0.044570956
   3   C   :   -0.025499093    0.065309981    0.002320802
   4   H   :   -0.014640709   -0.008383353    0.044877705
   5   H   :    0.013780174    0.015694598    0.005629848
   6   H   :    0.009563636   -0.010574576   -0.024750321
   7   H   :   -0.000093537   -0.010809514    0.020103957

Difference to translation invariance:
           :    0.0000041467   -0.0000589990   -0.0000136354

Difference to rotation invariance:
           :    0.0000307925   -0.0000189380    0.0005597840

Norm of the cartesian gradient     ...    0.1202853646
RMS gradient                       ...    0.0262484185
MAX gradient                       ...    0.0653099809

------------------------------------------------------------------------------
                  RELAXED CIS/TDA DENSITY POPULATION ANALYSIS
                                   IROOT 1
------------------------------------------------------------------------------
------------------------------------------------------------------------------
                           ORCA POPULATION ANALYSIS
------------------------------------------------------------------------------
Input electron density              ... ox_es1_D_orca0007.cisp
BaseName (.gbw .S,...)              ... ox_es1_D_orca0007

                    ********************************
                    * MULLIKEN POPULATION ANALYSIS *
                    ********************************

-----------------------
MULLIKEN ATOMIC CHARGES
-----------------------
   0 O :   -0.221731
   1 C :   -0.055328
   2 C :   -0.298084
   3 H :    0.153251
   4 H :    0.149033
   5 H :    0.137908
   6 H :    0.134951
Sum of atomic charges:   -0.0000000

--------------------------------
MULLIKEN REDUCED ORBITAL CHARGES
--------------------------------
  0 O s       :     3.889944  s :     3.889944
      pz      :     1.098933  p :     4.305610
      px      :     1.884706
      py      :     1.321971
      dz2     :     0.003013  d :     0.025133
      dxz     :     0.000282
      dyz     :     0.006225
      dx2y2   :     0.009206
      dxy     :     0.006408
      f0      :     0.000032  f :     0.001045
      f+1     :    -0.000042
      f-1     :     0.000099
      f+2     :     0.000208
      f-2     :     0.000002
      f+3     :     0.000329
      f-3     :     0.000416
  1 C s       :     3.190822  s :     3.190822
      pz      :     1.000426  p :     2.710578
      px      :     0.975572
      py      :     0.734581
      dz2     :     0.008972  d :     0.143243
      dxz     :     0.022130
      dyz     :     0.025964
      dx2y2   :     0.025162
      dxy     :     0.061014
      f0      :     0.000998  f :     0.010684
      f+1     :     0.001195
      f-1     :     0.000721
      f+2     :     0.001782
      f-2     :     0.000122
      f+3     :     0.003607
      f-3     :     0.002260
  2 C s       :     3.319764  s :     3.319764
      pz      :     1.015551  p :     2.924738
      px      :     0.935503
      py      :     0.973684
      dz2     :     0.007110  d :     0.048624
      dxz     :     0.014057
      dyz     :     0.002732
      dx2y2   :     0.009366
      dxy     :     0.015358
      f0      :     0.000579  f :     0.004956
      f+1     :     0.000895
      f-1     :     0.000280
      f+2     :     0.000655
      f-2     :     0.000175
      f+3     :     0.001167
      f-3     :     0.001206
  3 H s       :     0.829910  s :     0.829910
      pz      :     0.008974  p :     0.016839
      px      :     0.004739
      py      :     0.003126
  4 H s       :     0.828823  s :     0.828823
      pz      :     0.011180  p :     0.022144
      px      :     0.006507
      py      :     0.004457
  5 H s       :     0.839834  s :     0.839834
      pz      :     0.010056  p :     0.022258
      px      :     0.006210
      py      :     0.005993
  6 H s       :     0.842303  s :     0.842303
      pz      :     0.011039  p :     0.022746
      px      :     0.005389
      py      :     0.006318


                     *******************************
                     * LOEWDIN POPULATION ANALYSIS *
                     *******************************

----------------------
LOEWDIN ATOMIC CHARGES
----------------------
   0 O :    0.088045
   1 C :   -0.428736
   2 C :   -0.232275
   3 H :    0.179905
   4 H :    0.145558
   5 H :    0.124867
   6 H :    0.122638

-------------------------------
LOEWDIN REDUCED ORBITAL CHARGES
-------------------------------
  0 O s       :     3.547604  s :     3.547604
      pz      :     1.065735  p :     4.298997
      px      :     1.795281
      py      :     1.437981
      dz2     :     0.007765  d :     0.061527
      dxz     :     0.000412
      dyz     :     0.013679
      dx2y2   :     0.018738
      dxy     :     0.020932
      f0      :     0.000404  f :     0.003826
      f+1     :     0.000062
      f-1     :     0.000425
      f+2     :     0.000614
      f-2     :     0.000014
      f+3     :     0.001357
      f-3     :     0.000950
  1 C s       :     2.840735  s :     2.840735
      pz      :     0.985868  p :     2.940157
      px      :     1.089021
      py      :     0.865268
      dz2     :     0.065603  d :     0.564555
      dxz     :     0.102350
      dyz     :     0.072217
      dx2y2   :     0.157466
      dxy     :     0.166919
      f0      :     0.007056  f :     0.083289
      f+1     :     0.005335
      f-1     :     0.007688
      f+2     :     0.011688
      f-2     :     0.001548
      f+3     :     0.027117
      f-3     :     0.022857
  2 C s       :     2.931277  s :     2.931277
      pz      :     1.054228  p :     3.027543
      px      :     1.083013
      py      :     0.890301
      dz2     :     0.037582  d :     0.246137
      dxz     :     0.093283
      dyz     :     0.009800
      dx2y2   :     0.042987
      dxy     :     0.062484
      f0      :     0.004053  f :     0.027318
      f+1     :     0.003790
      f-1     :     0.001842
      f+2     :     0.003760
      f-2     :     0.001056
      f+3     :     0.005998
      f-3     :     0.006819
  3 H s       :     0.776599  s :     0.776599
      pz      :     0.024157  p :     0.043496
      px      :     0.011576
      py      :     0.007764
  4 H s       :     0.791491  s :     0.791491
      pz      :     0.032811  p :     0.062952
      px      :     0.017806
      py      :     0.012335
  5 H s       :     0.812660  s :     0.812660
      pz      :     0.029361  p :     0.062474
      px      :     0.016651
      py      :     0.016462
  6 H s       :     0.813161  s :     0.813161
      pz      :     0.031838  p :     0.064202
      px      :     0.014749
      py      :     0.017615


                      *****************************
                      * MAYER POPULATION ANALYSIS *
                      *****************************

  NA   - Mulliken gross atomic population
  ZA   - Total nuclear charge
  QA   - Mulliken gross atomic charge
  VA   - Mayer's total valence
  BVA  - Mayer's bonded valence
  FA   - Mayer's free valence

  ATOM       NA         ZA         QA         VA         BVA        FA
  0 O      8.2217     8.0000    -0.2217     1.9235     1.2121     0.7113
  1 C      6.0553     6.0000    -0.0553     4.0573     3.9763     0.0810
  2 C      6.2981     6.0000    -0.2981     3.8699     3.0885     0.7814
  3 H      0.8467     1.0000     0.1533     0.9537     0.8642     0.0895
  4 H      0.8510     1.0000     0.1490     0.9581     0.9042     0.0539
  5 H      0.8621     1.0000     0.1379     0.9746     0.9642     0.0105
  6 H      0.8650     1.0000     0.1350     0.9750     0.9655     0.0095

  Mayer bond orders larger than 0.100000
B(  0-O ,  1-C ) :   1.1148 B(  1-C ,  2-C ) :   1.1068 B(  1-C ,  3-H ) :   0.8507 
B(  1-C ,  4-H ) :   0.8995 B(  2-C ,  5-H ) :   0.9489 B(  2-C ,  6-H ) :   0.9505 



-------
TIMINGS
-------

Total TD-DFT gradient time         ...        6.121 sec

Fock matrix formation       ....       0.978 sec  ( 16.0%)
  Coulomb formation         ....       0.790 sec  ( 80.9% of F)
  RI-J                      ....       0.333 sec  ( 34.0% of F)
  Chain of spheres X        ....       0.457 sec  ( 46.8% of F)
  XC integration            ....       0.187 sec  ( 19.1% of F)
Z-vector equation           ....       1.939 sec  ( 31.7%)
One electron gradient       ....       0.039 sec  (  0.6%)
Prescreening matrices       ....       0.190 sec  (  3.1%)
RI-J Coulomb gradient       ....       0.299 sec  (  4.9%)
COSX gradient               ....       0.431 sec  (  7.0%)
XC gradient                 ....       1.912 sec  ( 31.2%)

Maximum memory used throughout the entire SCFGRAD-calculation: 130.2 MB

                            ***************************************
                            *     ORCA property calculations      *
                            ***************************************

                                    ---------------------
                                    Active property flags
                                    ---------------------
   (+) Dipole Moment


------------------------------------------------------------------------------
                       ORCA ELECTRIC PROPERTIES CALCULATION
------------------------------------------------------------------------------

Dipole Moment Calculation                       ... on
Quadrupole Moment Calculation                   ... off
Polarizability Calculation                      ... off
GBWName                                         ... ox_es1_D_orca0007.gbw
Electron density                                ... ox_es1_D_orca0007.scfp
The origin for moment calculation is the CENTER OF MASS  = (-0.503950,  0.131242 -0.048796)

-------------
DIPOLE MOMENT
-------------
                                X             Y             Z
Electronic contribution:     -0.33040       1.67516      -0.15833
Nuclear contribution   :      0.91786      -2.82061       0.10800
                        -----------------------------------------
Total Dipole Moment    :      0.58745      -1.14546      -0.05033
                        -----------------------------------------
Magnitude (a.u.)       :      1.28829
Magnitude (Debye)      :      3.27458



--------------------
Rotational spectrum 
--------------------
 
Rotational constants in cm-1:     1.063285     0.449018     0.368036 
Rotational constants in MHz : 31876.481048 13461.223161 11033.454403 

 Dipole components along the rotational axes: 
x,y,z [a.u.] :    -1.199533    -0.466208    -0.058929 
x,y,z [Debye]:    -3.048971    -1.185007    -0.149787 

 

                        *** CIS RELAXED DENSITY ***

------------------------------------------------------------------------------
                       ORCA ELECTRIC PROPERTIES CALCULATION
------------------------------------------------------------------------------

Dipole Moment Calculation                       ... on
Quadrupole Moment Calculation                   ... off
Polarizability Calculation                      ... off
GBWName                                         ... ox_es1_D_orca0007.gbw
Electron density                                ... ox_es1_D_orca0007.cisp
The origin for moment calculation is the CENTER OF MASS  = (-0.503950,  0.131242 -0.048796)

-------------
DIPOLE MOMENT
-------------
                                X             Y             Z
Electronic contribution:     -1.05478       1.93797      -0.11856
Nuclear contribution   :      0.91786      -2.82061       0.10800
                        -----------------------------------------
Total Dipole Moment    :     -0.13692      -0.88264      -0.01056
                        -----------------------------------------
Magnitude (a.u.)       :      0.89326
Magnitude (Debye)      :      2.27048



--------------------
Rotational spectrum 
--------------------
 
Rotational constants in cm-1:     1.063285     0.449018     0.368036 
Rotational constants in MHz : 31876.481048 13461.223161 11033.454403 

 Dipole components along the rotational axes: 
x,y,z [a.u.] :    -0.483729    -0.750808    -0.014231 
x,y,z [Debye]:    -1.229540    -1.908403    -0.036172 

 

Timings for individual modules:

Sum of individual times         ...        8.790 sec (=   0.147 min)
GTO integral calculation        ...        0.270 sec (=   0.005 min)   3.1 %
SCF iterations                  ...        1.389 sec (=   0.023 min)  15.8 %
CIS module                      ...        0.840 sec (=   0.014 min)   9.6 %
SCF Gradient evaluation         ...        6.291 sec (=   0.105 min)  71.6 %
                             ****ORCA TERMINATED NORMALLY****
TOTAL RUN TIME: 0 days 0 hours 0 minutes 9 seconds 157 msec
