
                                 *****************
                                 * O   R   C   A *
                                 *****************

                                            #,                                       
                                            ###                                      
                                            ####                                     
                                            #####                                    
                                            ######                                   
                                           ########,                                 
                                     ,,################,,,,,                         
                               ,,#################################,,                 
                          ,,##########################################,,             
                       ,#########################################, ''#####,          
                    ,#############################################,,   '####,        
                  ,##################################################,,,,####,       
                ,###########''''           ''''###############################       
              ,#####''   ,,,,##########,,,,          '''####'''          '####       
            ,##' ,,,,###########################,,,                        '##       
           ' ,,###''''                  '''############,,,                           
         ,,##''                                '''############,,,,        ,,,,,,###''
      ,#''                                            '''#######################'''  
     '                                                          ''''####''''         
             ,#######,   #######,   ,#######,      ##                                
            ,#'     '#,  ##    ##  ,#'     '#,    #''#        ######   ,####,        
            ##       ##  ##   ,#'  ##            #'  '#       #        #'  '#        
            ##       ##  #######   ##           ,######,      #####,   #    #        
            '#,     ,#'  ##    ##  '#,     ,#' ,#      #,         ##   #,  ,#        
             '#######'   ##     ##  '#######'  #'      '#     #####' # '####'        



                  #######################################################
                  #                        -***-                        #
                  #          Department of theory and spectroscopy      #
                  #    Directorship and core code : Frank Neese         #
                  #        Max Planck Institute fuer Kohlenforschung    #
                  #                Kaiser Wilhelm Platz 1               #
                  #                 D-45470 Muelheim/Ruhr               #
                  #                      Germany                        #
                  #                                                     #
                  #                  All rights reserved                #
                  #                        -***-                        #
                  #######################################################


                         Program Version 5.0.2 -  RELEASE  -


 With contributions from (in alphabetic order):
   Daniel Aravena         : Magnetic Suceptibility
   Michael Atanasov       : Ab Initio Ligand Field Theory (pilot matlab implementation)
   Alexander A. Auer      : GIAO ZORA, VPT2 properties, NMR spectrum
   Ute Becker             : Parallelization
   Giovanni Bistoni       : ED, misc. LED, open-shell LED, HFLD
   Martin Brehm           : Molecular dynamics
   Dmytro Bykov           : SCF Hessian
   Vijay G. Chilkuri      : MRCI spin determinant printing, contributions to CSF-ICE
   Dipayan Datta          : RHF DLPNO-CCSD density
   Achintya Kumar Dutta   : EOM-CC, STEOM-CC
   Dmitry Ganyushin       : Spin-Orbit,Spin-Spin,Magnetic field MRCI
   Miquel Garcia          : C-PCM and meta-GGA Hessian, CC/C-PCM, Gaussian charge scheme
   Yang Guo               : DLPNO-NEVPT2, F12-NEVPT2, CIM, IAO-localization
   Andreas Hansen         : Spin unrestricted coupled pair/coupled cluster methods
   Benjamin Helmich-Paris : MC-RPA, TRAH-SCF, COSX integrals
   Lee Huntington         : MR-EOM, pCC
   Robert Izsak           : Overlap fitted RIJCOSX, COSX-SCS-MP3, EOM
   Marcus Kettner         : VPT2
   Christian Kollmar      : KDIIS, OOCD, Brueckner-CCSD(T), CCSD density, CASPT2, CASPT2-K
   Simone Kossmann        : Meta GGA functionals, TD-DFT gradient, OOMP2, MP2 Hessian
   Martin Krupicka        : Initial AUTO-CI
   Lucas Lang             : DCDCAS
   Marvin Lechner         : AUTO-CI (C++ implementation), FIC-MRCC
   Dagmar Lenk            : GEPOL surface, SMD
   Dimitrios Liakos       : Extrapolation schemes; Compound Job, initial MDCI parallelization
   Dimitrios Manganas     : Further ROCIS development; embedding schemes
   Dimitrios Pantazis     : SARC Basis sets
   Anastasios Papadopoulos: AUTO-CI, single reference methods and gradients
   Taras Petrenko         : DFT Hessian,TD-DFT gradient, ASA, ECA, R-Raman, ABS, FL, XAS/XES, NRVS
   Peter Pinski           : DLPNO-MP2, DLPNO-MP2 Gradient
   Christoph Reimann      : Effective Core Potentials
   Marius Retegan         : Local ZFS, SOC
   Christoph Riplinger    : Optimizer, TS searches, QM/MM, DLPNO-CCSD(T), (RO)-DLPNO pert. Triples
   Tobias Risthaus        : Range-separated hybrids, TD-DFT gradient, RPA, STAB
   Michael Roemelt        : Original ROCIS implementation
   Masaaki Saitow         : Open-shell DLPNO-CCSD energy and density
   Barbara Sandhoefer     : DKH picture change effects
   Avijit Sen             : IP-ROCIS
   Kantharuban Sivalingam : CASSCF convergence, NEVPT2, FIC-MRCI
   Bernardo de Souza      : ESD, SOC TD-DFT
   Georgi Stoychev        : AutoAux, RI-MP2 NMR, DLPNO-MP2 response
   Willem Van den Heuvel  : Paramagnetic NMR
   Boris Wezisla          : Elementary symmetry handling
   Frank Wennmohs         : Technical directorship


 We gratefully acknowledge several colleagues who have allowed us to
 interface, adapt or use parts of their codes:
   Stefan Grimme, W. Hujo, H. Kruse, P. Pracht,  : VdW corrections, initial TS optimization,
                  C. Bannwarth, S. Ehlert          DFT functionals, gCP, sTDA/sTD-DF
   Ed Valeev, F. Pavosevic, A. Kumar             : LibInt (2-el integral package), F12 methods
   Garnet Chan, S. Sharma, J. Yang, R. Olivares  : DMRG
   Ulf Ekstrom                                   : XCFun DFT Library
   Mihaly Kallay                                 : mrcc  (arbitrary order and MRCC methods)
   Jiri Pittner, Ondrej Demel                    : Mk-CCSD
   Frank Weinhold                                : gennbo (NPA and NBO analysis)
   Christopher J. Cramer and Donald G. Truhlar   : smd solvation model
   Lars Goerigk                                  : TD-DFT with DH, B97 family of functionals
   V. Asgeirsson, H. Jonsson                     : NEB implementation
   FAccTs GmbH                                   : IRC, NEB, NEB-TS, DLPNO-Multilevel, CI-OPT
                                                   MM, QMMM, 2- and 3-layer-ONIOM, Crystal-QMMM,
                                                   LR-CPCM, SF, NACMEs, symmetry and pop. for TD-DFT,
                                                   nearIR, NL-DFT gradient (VV10), updates on ESD,
                                                   ML-optimized integration grids
   S Lehtola, MJT Oliveira, MAL Marques          : LibXC Library
   Liviu Ungur et al                             : ANISO software


 Your calculation uses the libint2 library for the computation of 2-el integrals
 For citations please refer to: http://libint.valeyev.net

 Your ORCA version has been built with support for libXC version: 5.1.0
 For citations please refer to: https://tddft.org/programs/libxc/

 This ORCA versions uses:
   CBLAS   interface :  Fast vector & matrix operations
   LAPACKE interface :  Fast linear algebra routines
   SCALAPACK package :  Parallel linear algebra routines
   Shared memory     :  Shared parallel matrices
   BLAS/LAPACK       :  OpenBLAS 0.3.15  USE64BITINT DYNAMIC_ARCH NO_AFFINITY SkylakeX SINGLE_THREADED
        Core in use  :  SkylakeX
   Copyright (c) 2011-2014, The OpenBLAS Project


Your calculation utilizes the atom-pairwise dispersion correction
with the Becke-Johnson damping scheme (D3BJ)
Cite in your paper:
S.Grimme, S.Ehrlich, L.Goerigk, J Comput Chem, (2011), 32, 1456–1465 
S.Grimme, J.Antony, S.Ehrlich and H.Krieg, J.Chem.Phys., 132, (2010), 154104 
   

================================================================================

----- Orbital basis set information -----
Your calculation utilizes the basis: def2-TZVP
   F. Weigend and R. Ahlrichs, Phys. Chem. Chem. Phys. 7, 3297 (2005).

----- AuxJ basis set information -----
Your calculation utilizes the auxiliary basis: def2/J
   F. Weigend, Phys. Chem. Chem. Phys. 8, 1057 (2006).

================================================================================
                                        WARNINGS
                       Please study these warnings very carefully!
================================================================================

INFO   : Checking CIS options ...

WARNING: CIS/ROCIS methods need fully converged wavefunctions
  ===> : Setting SCFConvForced true
         You can overwrite this default with %scf ConvForced false 


INFO   : the flag for use of the SHARK integral package has been found!

================================================================================
                                       INPUT FILE
================================================================================
NAME = ox_es1_A_orca0016.inp
|  1> ! engrad PBE0 D3BJ def2-TZVP  
|  2> %pal nprocs 8 end
|  3> %maxcore 3000
|  4> 
|  5> %tddft
|  6>   nroots 1
|  7>   tda true
|  8>   Iroot 1
|  9>   end 
| 10> *xyz 0 1 
| 11> O   -0.04127480983962558 0.7508550179173504 0.020646682713781218
| 12> C   -0.7570758176401987 -0.48813150977832154 0.012184360574595616
| 13> C   0.7411378685554361 -0.47236764876855647 -0.02355191528091614
| 14> H   -1.252220433132118 -0.7406750270748662 0.8496030312811722
| 15> H   -1.2997449810626218 -0.6789432675855924 -0.9044308417200998
| 16> H   1.3375906308474774 -0.625387878839899 -0.9279731464981714
| 17> H   1.2628720596048657 -0.7183972782318905 0.9190505132003804
| 18> *
| 19> 
| 20>                          ****END OF INPUT****
================================================================================

                     *******************************
                     * Energy+Gradient Calculation *
                     *******************************

---------------------------------
CARTESIAN COORDINATES (ANGSTROEM)
---------------------------------
  O     -0.041275    0.750855    0.020647
  C     -0.757076   -0.488132    0.012184
  C      0.741138   -0.472368   -0.023552
  H     -1.252220   -0.740675    0.849603
  H     -1.299745   -0.678943   -0.904431
  H      1.337591   -0.625388   -0.927973
  H      1.262872   -0.718397    0.919051

----------------------------
CARTESIAN COORDINATES (A.U.)
----------------------------
  NO LB      ZA    FRAG     MASS         X           Y           Z
   0 O     8.0000    0    15.999   -0.077998    1.418910    0.039017
   1 C     6.0000    0    12.011   -1.430666   -0.922435    0.023025
   2 C     6.0000    0    12.011    1.400548   -0.892645   -0.044507
   3 H     1.0000    0     1.008   -2.366354   -1.399673    1.605517
   4 H     1.0000    0     1.008   -2.456162   -1.283017   -1.709127
   5 H     1.0000    0     1.008    2.527680   -1.181812   -1.753615
   6 H     1.0000    0     1.008    2.386482   -1.357574    1.736754

--------------------------------
INTERNAL COORDINATES (ANGSTROEM)
--------------------------------
 O      0   0   0     0.000000000000     0.00000000     0.00000000
 C      1   0   0     1.430919393074     0.00000000     0.00000000
 C      1   2   0     1.452720485046    62.62329974     0.00000000
 H      2   1   3     1.005095243461   117.32699295   111.58345182
 H      2   1   3     1.082165595889   114.11283703   249.51104480
 H      3   1   2     1.094142976002   115.88135817   115.77729219
 H      3   1   2     1.105095689460   114.56874330   252.73879304

---------------------------
INTERNAL COORDINATES (A.U.)
---------------------------
 O      0   0   0     0.000000000000     0.00000000     0.00000000
 C      1   0   0     2.704045772627     0.00000000     0.00000000
 C      1   2   0     2.745243865874    62.62329974     0.00000000
 H      2   1   3     1.899354748647   117.32699295   111.58345182
 H      2   1   3     2.044996607781   114.11283703   249.51104480
 H      3   1   2     2.067630575996   115.88135817   115.77729219
 H      3   1   2     2.088328204856   114.56874330   252.73879304

---------------------
BASIS SET INFORMATION
---------------------
There are 3 groups of distinct atoms

 Group   1 Type O   : 11s6p2d1f contracted to 5s3p2d1f pattern {62111/411/11/1}
 Group   2 Type C   : 11s6p2d1f contracted to 5s3p2d1f pattern {62111/411/11/1}
 Group   3 Type H   : 5s1p contracted to 3s1p pattern {311/1}

Atom   0O    basis set group =>   1
Atom   1C    basis set group =>   2
Atom   2C    basis set group =>   2
Atom   3H    basis set group =>   3
Atom   4H    basis set group =>   3
Atom   5H    basis set group =>   3
Atom   6H    basis set group =>   3
---------------------------------
AUXILIARY/J BASIS SET INFORMATION
---------------------------------
There are 3 groups of distinct atoms

 Group   1 Type O   : 12s5p4d2f1g contracted to 6s4p3d1f1g pattern {711111/2111/211/2/1}
 Group   2 Type C   : 12s5p4d2f1g contracted to 6s4p3d1f1g pattern {711111/2111/211/2/1}
 Group   3 Type H   : 5s2p1d contracted to 3s1p1d pattern {311/2/1}

Atom   0O    basis set group =>   1
Atom   1C    basis set group =>   2
Atom   2C    basis set group =>   2
Atom   3H    basis set group =>   3
Atom   4H    basis set group =>   3
Atom   5H    basis set group =>   3
Atom   6H    basis set group =>   3

Checking for AutoStart:
The File: ox_es1_A_orca0016.gbw exists
Trying to determine its content:
     ... Fine, the file contains calculation information
     ... Fine, the calculation information was read
     ... Fine, the file contains a basis set
     ... Fine, the basis set was read
     ... Fine, the file contains a geometry
     ... Fine, the geometry was read
     ... Fine, the file contains a set of orbitals
     ... Fine, the orbitals can be read
     => possible old guess file was deleted
     => GBW file was renamed to GES file
     => GES file is set as startup file
     => Guess is set to MORead
     ... now leaving AutoStart



           ************************************************************
           *        Program running with 8 parallel MPI-processes     *
           *              working on a common directory               *
           ************************************************************
------------------------------------------------------------------------------
                           ORCA GTO INTEGRAL CALCULATION
                           -- RI-GTO INTEGRALS CHOSEN --
------------------------------------------------------------------------------
------------------------------------------------------------------------------
                   ___                                                        
                  /   \      - P O W E R E D   B Y -                         
                 /     \                                                     
                 |  |  |   _    _      __       _____    __    __             
                 |  |  |  | |  | |    /  \     |  _  \  |  |  /  |          
                  \  \/   | |  | |   /    \    | | | |  |  | /  /          
                 / \  \   | |__| |  /  /\  \   | |_| |  |  |/  /          
                |  |  |   |  __  | /  /__\  \  |    /   |      \           
                |  |  |   | |  | | |   __   |  |    \   |  |\   \          
                \     /   | |  | | |  |  |  |  | |\  \  |  | \   \       
                 \___/    |_|  |_| |__|  |__|  |_| \__\ |__|  \__/        
                                                                              
                      - O R C A' S   B I G   F R I E N D -                    
                                      &                                       
                       - I N T E G R A L  F E E D E R -                       
                                                                              
 v1 FN, 2020, v2 2021                                                         
------------------------------------------------------------------------------


Reading SHARK input file ox_es1_A_orca0016.SHARKINP.tmp ... ok
----------------------
SHARK INTEGRAL PACKAGE
----------------------

Number of atoms                             ...      7
Number of basis functions                   ...    117
Number of shells                            ...     49
Maximum angular momentum                    ...      3
Integral batch strategy                     ... SHARK/LIBINT Hybrid
RI-J (if used) integral strategy            ... SPLIT-RIJ (Revised 2003 algorithm where possible)
Printlevel                                  ...      1
Contraction scheme used                     ... SEGMENTED contraction
Coulomb Range Separation                    ... NOT USED
Exchange Range Separation                   ... NOT USED
Finite Nucleus Model                        ... NOT USED
Auxiliary Coulomb fitting basis             ... AVAILABLE
   # of basis functions in Aux-J            ...    191
   # of shells in Aux-J                     ...     65
   Maximum angular momentum in Aux-J        ...      4
Auxiliary J/K fitting basis                 ... NOT available
Auxiliary Correlation fitting basis         ... NOT available
Auxiliary 'external' fitting basis          ... NOT available
Integral threshold                          ...     2.500000e-11
Primitive cut-off                           ...     2.500000e-12
Primitive pair pre-selection threshold      ...     2.500000e-12

Calculating pre-screening integrals         ... done (  0.0 sec) Dimension = 49
Organizing shell pair data                  ... done (  0.0 sec)
Shell pair information
Total number of shell pairs                 ...      1225
Shell pairs after pre-screening             ...      1220
Total number of primitive shell pairs       ...      3648
Primitive shell pairs kept                  ...      3146
          la=0 lb=0:    373 shell pairs
          la=1 lb=0:    351 shell pairs
          la=1 lb=1:     91 shell pairs
          la=2 lb=0:    162 shell pairs
          la=2 lb=1:     78 shell pairs
          la=2 lb=2:     21 shell pairs
          la=3 lb=0:     81 shell pairs
          la=3 lb=1:     39 shell pairs
          la=3 lb=2:     18 shell pairs
          la=3 lb=3:      6 shell pairs

Calculating one electron integrals          ... done (  0.0 sec)
Calculating RI/J V-Matrix + Cholesky decomp.... done (  0.0 sec)
Calculating Nuclear repulsion               ... done (  0.0 sec) ENN=     74.762624973238 Eh

SHARK setup successfully completed in   0.1 seconds

Maximum memory used throughout the entire GTOINT-calculation: 14.9 MB


           ************************************************************
           *        Program running with 8 parallel MPI-processes     *
           *              working on a common directory               *
           ************************************************************
-------------------------------------------------------------------------------
                                 ORCA SCF
-------------------------------------------------------------------------------

------------
SCF SETTINGS
------------
Hamiltonian:
 Density Functional     Method          .... DFT(GTOs)
 Exchange Functional    Exchange        .... PBE
   PBE kappa parameter   XKappa         ....  0.804000
   PBE mue parameter    XMuePBE         ....  0.219520
 Correlation Functional Correlation     .... PBE
   PBE beta parameter  CBetaPBE         ....  0.066725
 LDA part of GGA corr.  LDAOpt          .... PW91-LDA
 Gradients option       PostSCFGGA      .... off
 Hybrid DFT is turned on
   Fraction HF Exchange ScalHFX         ....  0.250000
   Scaling of DF-GGA-X  ScalDFX         ....  0.750000
   Scaling of DF-GGA-C  ScalDFC         ....  1.000000
   Scaling of DF-LDA-C  ScalLDAC        ....  1.000000
   Perturbative correction              ....  0.000000
   Density functional embedding theory  .... OFF
   NL short-range parameter             ....  6.900000
 RI-approximation to the Coulomb term is turned on
   Number of AuxJ basis functions       .... 191
   RIJ-COSX (HFX calculated with COS-X)).... on


General Settings:
 Integral files         IntName         .... ox_es1_A_orca0016
 Hartree-Fock type      HFTyp           .... RHF
 Total Charge           Charge          ....    0
 Multiplicity           Mult            ....    1
 Number of Electrons    NEL             ....   24
 Basis Dimension        Dim             ....  117
 Nuclear Repulsion      ENuc            ....     74.7626249732 Eh

Convergence Acceleration:
 DIIS                   CNVDIIS         .... on
   Start iteration      DIISMaxIt       ....    12
   Startup error        DIISStart       ....  0.200000
   # of expansion vecs  DIISMaxEq       ....     5
   Bias factor          DIISBfac        ....   1.050
   Max. coefficient     DIISMaxC        ....  10.000
 Trust-Rad. Augm. Hess. CNVTRAH         .... auto
   Auto Start mean grad. ratio tolernc. ....  1.125000
   Auto Start start iteration           ....     1
   Auto Start num. interpolation iter.  ....    10
   Max. Number of Micro iterations      ....    16
   Max. Number of Macro iterations      .... Maxiter - #DIIS iter
   Number of Davidson start vectors     ....     2
   Converg. threshold I  (grad. norm)   ....   1.000e-05
   Converg. threshold II (energy diff.) ....   1.000e-08
   Grad. Scal. Fac. for Micro threshold ....   0.100
   Minimum threshold for Micro iter.    ....   0.010
   NR start threshold (gradient norm)   ....   0.001
   Initial trust radius                 ....   0.400
   Minimum AH scaling param. (alpha)    ....   1.000
   Maximum AH scaling param. (alpha)    .... 1000.000
   Orbital update algorithm             .... Taylor
   White noise on init. David. guess    .... on
   Maximum white noise                  ....   0.010
   Quad. conv. algorithm                .... NR
 SOSCF                  CNVSOSCF        .... on
   Start iteration      SOSCFMaxIt      ....   150
   Startup grad/error   SOSCFStart      ....  0.003300
 Level Shifting         CNVShift        .... on
   Level shift para.    LevelShift      ....    0.2500
   Turn off err/grad.   ShiftErr        ....    0.0010
 Zerner damping         CNVZerner       .... off
 Static damping         CNVDamp         .... on
   Fraction old density DampFac         ....    0.7000
   Max. Damping (<1)    DampMax         ....    0.9800
   Min. Damping (>=0)   DampMin         ....    0.0000
   Turn off err/grad.   DampErr         ....    0.1000
 Fernandez-Rico         CNVRico         .... off

SCF Procedure:
 Maximum # iterations   MaxIter         ....   125
 SCF integral mode      SCFMode         .... Direct
   Integral package                     .... SHARK and LIBINT hybrid scheme
 Reset frequency        DirectResetFreq ....    20
 Integral Threshold     Thresh          ....  2.500e-11 Eh
 Primitive CutOff       TCut            ....  2.500e-12 Eh

Convergence Tolerance:
 Convergence Check Mode ConvCheckMode   .... Total+1el-Energy
 Convergence forced     ConvForced      .... 1
 Energy Change          TolE            ....  1.000e-08 Eh
 1-El. energy change                    ....  1.000e-05 Eh
 Orbital Gradient       TolG            ....  1.000e-05
 Orbital Rotation angle TolX            ....  1.000e-05
 DIIS Error             TolErr          ....  5.000e-07


Diagonalization of the overlap matrix:
Smallest eigenvalue                        ... 4.790e-04
Time for diagonalization                   ...    0.001 sec
Threshold for overlap eigenvalues          ... 1.000e-08
Number of eigenvalues below threshold      ... 0
Time for construction of square roots      ...    0.001 sec
Total time needed                          ...    0.003 sec

---------------------
INITIAL GUESS: MOREAD
---------------------
Guess MOs are being read from file: ox_es1_A_orca0016.ges
Input Geometry matches current geometry (good)
Input basis set matches current basis set (good)
MOs were renormalized
MOs were reorthogonalized (Cholesky)
                      ------------------
                      INITIAL GUESS DONE (   0.0 sec)
                      ------------------
-------------------
DFT GRID GENERATION
-------------------

General Integration Accuracy     IntAcc      ... 4.388
Radial Grid Type                 RadialGrid  ... OptM3 with GC (2021)
Angular Grid (max. ang.)         AngularGrid ... 4 (Lebedev-302)
Angular grid pruning method      GridPruning ... 4 (adaptive)
Weight generation scheme         WeightScheme... Becke
Basis function cutoff            BFCut       ... 1.0000e-11
Integration weight cutoff        WCut        ... 1.0000e-14
Angular grids for H and He will be reduced by one unit
Partially contracted basis set               ... off
Rotationally invariant grid construction     ... off

Total number of grid points                  ...    31307
Total number of batches                      ...      492
Average number of points per batch           ...       63
Average number of grid points per atom       ...     4472
Time for grid setup =    0.120 sec

--------------------
COSX GRID GENERATION
--------------------

GRIDX 1
-------
General Integration Accuracy     IntAcc      ... 3.816
Radial Grid Type                 RadialGrid  ... OptM3 with GC (2021)
Angular Grid (max. ang.)         AngularGrid ... 1 (Lebedev-50)
Angular grid pruning method      GridPruning ... 4 (adaptive)
Weight generation scheme         WeightScheme... Becke
Basis function cutoff            BFCut       ... 1.0000e-11
Integration weight cutoff        WCut        ... 1.0000e-14
Angular grids for H and He will be reduced by one unit
Partially contracted basis set               ... on
Rotationally invariant grid construction     ... off

Total number of grid points                  ...     4035
Total number of batches                      ...       68
Average number of points per batch           ...       59
Average number of grid points per atom       ...      576
UseSFitting                                  ... on

GRIDX 2
-------
General Integration Accuracy     IntAcc      ... 4.020
Radial Grid Type                 RadialGrid  ... OptM3 with GC (2021)
Angular Grid (max. ang.)         AngularGrid ... 2 (Lebedev-110)
Angular grid pruning method      GridPruning ... 4 (adaptive)
Weight generation scheme         WeightScheme... Becke
Basis function cutoff            BFCut       ... 1.0000e-11
Integration weight cutoff        WCut        ... 1.0000e-14
Angular grids for H and He will be reduced by one unit
Partially contracted basis set               ... on
Rotationally invariant grid construction     ... off

Total number of grid points                  ...     8717
Total number of batches                      ...      140
Average number of points per batch           ...       62
Average number of grid points per atom       ...     1245
UseSFitting                                  ... on

GRIDX 3
-------
General Integration Accuracy     IntAcc      ... 4.338
Radial Grid Type                 RadialGrid  ... OptM3 with GC (2021)
Angular Grid (max. ang.)         AngularGrid ... 3 (Lebedev-194)
Angular grid pruning method      GridPruning ... 4 (adaptive)
Weight generation scheme         WeightScheme... Becke
Basis function cutoff            BFCut       ... 1.0000e-11
Integration weight cutoff        WCut        ... 1.0000e-14
Angular grids for H and He will be reduced by one unit
Partially contracted basis set               ... on
Rotationally invariant grid construction     ... off

Total number of grid points                  ...    19251
Total number of batches                      ...      305
Average number of points per batch           ...       63
Average number of grid points per atom       ...     2750
UseSFitting                                  ... on

Time for X-Grid setup             =    0.072 sec

--------------
SCF ITERATIONS
--------------
ITER       Energy         Delta-E        Max-DP      RMS-DP      [F,P]     Damp
               ***  Starting incremental Fock matrix formation  ***
                      *** Initiating the SOSCF procedure ***
                      *** Re-Reading the Fockian *** 
                      *** Removing any level shift *** 
ITER      Energy       Delta-E        Grad      Rot      Max-DP    RMS-DP
  0   -153.66678124 -153.6667812396  0.000001  0.000001  0.000001  0.000000
               *** Restarting incremental Fock matrix formation ***
                  ***Gradient check signals convergence***
              ***Rediagonalizing the Fockian in SOSCF/NRSCF***

               *****************************************************
               *                     SUCCESS                       *
               *           SCF CONVERGED AFTER   1 CYCLES          *
               *****************************************************

Old exchange energy                            =     -4.996584852 Eh
New exchange energy                            =     -4.996579090 Eh
Exchange energy change after final integration =      0.000005762 Eh
Total energy after final integration           =   -153.666775478 Eh
Final COS-X integration done in                =     0.248 sec

----------------
TOTAL SCF ENERGY
----------------

Total Energy       :         -153.66677548 Eh           -4181.48554 eV

Components:
Nuclear Repulsion  :           74.76262497 Eh            2034.39445 eV
Electronic Energy  :         -228.42940045 Eh           -6215.88000 eV
One Electron Energy:         -356.22955951 Eh           -9693.49912 eV
Two Electron Energy:          127.80015906 Eh            3477.61913 eV
Max COSX asymmetry :            0.00000301 Eh               0.00008 eV

Virial components:
Potential Energy   :         -306.62635257 Eh           -8343.72724 eV
Kinetic Energy     :          152.95957709 Eh            4162.24170 eV
Virial Ratio       :            2.00462343


DFT components:
N(Alpha)           :       12.000002550190 electrons
N(Beta)            :       12.000002550190 electrons
N(Total)           :       24.000005100381 electrons
E(X)               :      -14.960380574426 Eh       
E(C)               :       -0.789425922403 Eh       
E(XC)              :      -15.749806496829 Eh       
DFET-embed. en.    :        0.000000000000 Eh       

---------------
SCF CONVERGENCE
---------------

  Last Energy change         ...    6.5938e-12  Tolerance :   1.0000e-08
  Last MAX-Density change    ...    1.1102e-15  Tolerance :   1.0000e-07
  Last RMS-Density change    ...    1.8024e-17  Tolerance :   5.0000e-09
  Last Orbital Gradient      ...    3.4375e-07  Tolerance :   1.0000e-05
  Last Orbital Rotation      ...    6.6939e-07  Tolerance :   1.0000e-05

             **** THE GBW FILE WAS UPDATED (ox_es1_A_orca0016.gbw) ****
             **** DENSITY ox_es1_A_orca0016.scfp WAS UPDATED ****
             **** ENERGY FILE WAS UPDATED (ox_es1_A_orca0016.en.tmp) ****
             **** THE GBW FILE WAS UPDATED (ox_es1_A_orca0016.gbw) ****
             **** DENSITY ox_es1_A_orca0016.scfp WAS UPDATED ****
----------------
ORBITAL ENERGIES
----------------

  NO   OCC          E(Eh)            E(eV) 
   0   2.0000     -19.222541      -523.0719 
   1   2.0000     -10.281534      -279.7748 
   2   2.0000     -10.269763      -279.4545 
   3   2.0000      -1.094225       -29.7754 
   4   2.0000      -0.700698       -19.0670 
   5   2.0000      -0.661494       -18.0002 
   6   2.0000      -0.527423       -14.3519 
   7   2.0000      -0.500290       -13.6136 
   8   2.0000      -0.414779       -11.2867 
   9   2.0000      -0.402178       -10.9438 
  10   2.0000      -0.327598        -8.9144 
  11   2.0000      -0.289849        -7.8872 
  12   0.0000       0.066199         1.8014 
  13   0.0000       0.074389         2.0242 
  14   0.0000       0.079709         2.1690 
  15   0.0000       0.101739         2.7685 
  16   0.0000       0.105494         2.8706 
  17   0.0000       0.153942         4.1890 
  18   0.0000       0.193225         5.2579 
  19   0.0000       0.212524         5.7831 
  20   0.0000       0.267225         7.2716 
  21   0.0000       0.270750         7.3675 
  22   0.0000       0.287250         7.8165 
  23   0.0000       0.326492         8.8843 
  24   0.0000       0.394162        10.7257 
  25   0.0000       0.402583        10.9548 
  26   0.0000       0.404973        11.0199 
  27   0.0000       0.420494        11.4422 
  28   0.0000       0.453147        12.3308 
  29   0.0000       0.466141        12.6843 
  30   0.0000       0.502495        13.6736 
  31   0.0000       0.515790        14.0354 
  32   0.0000       0.538158        14.6440 
  33   0.0000       0.700607        19.0645 
  34   0.0000       0.711942        19.3729 
  35   0.0000       0.723187        19.6789 
  36   0.0000       0.823450        22.4072 
  37   0.0000       0.851152        23.1610 
  38   0.0000       0.894323        24.3358 
  39   0.0000       0.936980        25.4965 
  40   0.0000       1.011308        27.5191 
  41   0.0000       1.022181        27.8150 
  42   0.0000       1.074591        29.2411 
  43   0.0000       1.082822        29.4651 
  44   0.0000       1.161601        31.6088 
  45   0.0000       1.350822        36.7577 
  46   0.0000       1.467875        39.9429 
  47   0.0000       1.488183        40.4955 
  48   0.0000       1.506545        40.9952 
  49   0.0000       1.510020        41.0897 
  50   0.0000       1.583669        43.0938 
  51   0.0000       1.625729        44.2383 
  52   0.0000       1.669513        45.4298 
  53   0.0000       1.712412        46.5971 
  54   0.0000       1.768148        48.1137 
  55   0.0000       1.823117        49.6095 
  56   0.0000       1.848546        50.3015 
  57   0.0000       1.904040        51.8116 
  58   0.0000       1.911983        52.0277 
  59   0.0000       1.965146        53.4743 
  60   0.0000       2.155290        58.6484 
  61   0.0000       2.165329        58.9216 
  62   0.0000       2.182340        59.3845 
  63   0.0000       2.245334        61.0986 
  64   0.0000       2.256651        61.4066 
  65   0.0000       2.415921        65.7406 
  66   0.0000       2.432694        66.1970 
  67   0.0000       2.502866        68.1065 
  68   0.0000       2.565133        69.8008 
  69   0.0000       2.571375        69.9707 
  70   0.0000       2.629356        71.5484 
  71   0.0000       2.675333        72.7995 
  72   0.0000       2.686251        73.0966 
  73   0.0000       2.702274        73.5326 
  74   0.0000       2.745417        74.7066 
  75   0.0000       2.807973        76.4088 
  76   0.0000       2.836270        77.1788 
  77   0.0000       2.949362        80.2562 
  78   0.0000       2.996862        81.5488 
  79   0.0000       3.010939        81.9318 
  80   0.0000       3.046081        82.8881 
  81   0.0000       3.106963        84.5448 
  82   0.0000       3.138372        85.3995 
  83   0.0000       3.227694        87.8300 
  84   0.0000       3.307968        90.0144 
  85   0.0000       3.328147        90.5635 
  86   0.0000       3.338086        90.8339 
  87   0.0000       3.420269        93.0702 
  88   0.0000       3.548556        96.5611 
  89   0.0000       3.602531        98.0299 
  90   0.0000       3.650492        99.3349 
  91   0.0000       3.696698       100.5923 
  92   0.0000       3.876940       105.4969 
  93   0.0000       4.030159       109.6662 
  94   0.0000       4.102608       111.6377 
  95   0.0000       4.165964       113.3617 
  96   0.0000       4.263163       116.0066 
  97   0.0000       4.317319       117.4802 
  98   0.0000       4.336995       118.0156 
  99   0.0000       4.608921       125.4151 
 100   0.0000       4.747270       129.1798 
 101   0.0000       4.824984       131.2945 
 102   0.0000       5.295812       144.1064 
 103   0.0000       5.446193       148.1984 
 104   0.0000       5.685250       154.7035 
 105   0.0000       5.740914       156.2182 
 106   0.0000       5.767483       156.9412 
 107   0.0000       5.884988       160.1387 
 108   0.0000       6.031684       164.1305 
 109   0.0000       6.605524       179.7455 
 110   0.0000       6.620969       180.1657 
 111   0.0000       6.781166       184.5249 
 112   0.0000       6.961702       189.4375 
 113   0.0000       7.182094       195.4347 
 114   0.0000      22.263291       605.8149 
 115   0.0000      22.482059       611.7679 
 116   0.0000      43.850636      1193.2365 

                    ********************************
                    * MULLIKEN POPULATION ANALYSIS *
                    ********************************

-----------------------
MULLIKEN ATOMIC CHARGES
-----------------------
   0 O :   -0.316808
   1 C :   -0.067305
   2 C :   -0.084445
   3 H :    0.117712
   4 H :    0.110587
   5 H :    0.125641
   6 H :    0.114618
Sum of atomic charges:   -0.0000000

--------------------------------
MULLIKEN REDUCED ORBITAL CHARGES
--------------------------------
  0 O s       :     3.857691  s :     3.857691
      pz      :     1.848995  p :     4.415389
      px      :     1.308709
      py      :     1.257685
      dz2     :     0.005708  d :     0.041638
      dxz     :     0.002530
      dyz     :     0.006327
      dx2y2   :     0.011839
      dxy     :     0.015234
      f0      :     0.000243  f :     0.002090
      f+1     :     0.000199
      f-1     :     0.000458
      f+2     :     0.000075
      f-2     :     0.000194
      f+3     :     0.000364
      f-3     :     0.000557
  1 C s       :     3.217621  s :     3.217621
      pz      :     1.050728  p :     2.729436
      px      :     0.903258
      py      :     0.775450
      dz2     :     0.005453  d :     0.108855
      dxz     :     0.024136
      dyz     :     0.030460
      dx2y2   :     0.028652
      dxy     :     0.020153
      f0      :     0.001482  f :     0.011393
      f+1     :     0.001392
      f-1     :     0.000649
      f+2     :     0.001247
      f-2     :     0.001619
      f+3     :     0.002134
      f-3     :     0.002869
  2 C s       :     3.237910  s :     3.237910
      pz      :     1.043774  p :     2.730041
      px      :     0.895884
      py      :     0.790383
      dz2     :     0.005900  d :     0.105447
      dxz     :     0.025421
      dyz     :     0.027718
      dx2y2   :     0.027402
      dxy     :     0.019007
      f0      :     0.001397  f :     0.011047
      f+1     :     0.001418
      f-1     :     0.000562
      f+2     :     0.001167
      f-2     :     0.001617
      f+3     :     0.002173
      f-3     :     0.002714
  3 H s       :     0.858820  s :     0.858820
      pz      :     0.010890  p :     0.023468
      px      :     0.007446
      py      :     0.005133
  4 H s       :     0.868016  s :     0.868016
      pz      :     0.010848  p :     0.021396
      px      :     0.006620
      py      :     0.003927
  5 H s       :     0.853234  s :     0.853234
      pz      :     0.010487  p :     0.021125
      px      :     0.006966
      py      :     0.003672
  6 H s       :     0.864560  s :     0.864560
      pz      :     0.010788  p :     0.020822
      px      :     0.006036
      py      :     0.003998


                     *******************************
                     * LOEWDIN POPULATION ANALYSIS *
                     *******************************

----------------------
LOEWDIN ATOMIC CHARGES
----------------------
   0 O :    0.105454
   1 C :   -0.277139
   2 C :   -0.272774
   3 H :    0.092752
   4 H :    0.115407
   5 H :    0.116818
   6 H :    0.119482

-------------------------------
LOEWDIN REDUCED ORBITAL CHARGES
-------------------------------
  0 O s       :     3.397360  s :     3.397360
      pz      :     1.735262  p :     4.400782
      px      :     1.298407
      py      :     1.367113
      dz2     :     0.011480  d :     0.090122
      dxz     :     0.007678
      dyz     :     0.014097
      dx2y2   :     0.031310
      dxy     :     0.025557
      f0      :     0.000592  f :     0.006281
      f+1     :     0.000255
      f-1     :     0.000865
      f+2     :     0.000152
      f-2     :     0.000903
      f+3     :     0.001173
      f-3     :     0.002340
  1 C s       :     2.812916  s :     2.812916
      pz      :     1.067930  p :     2.925050
      px      :     1.021446
      py      :     0.835674
      dz2     :     0.053070  d :     0.468671
      dxz     :     0.124485
      dyz     :     0.087098
      dx2y2   :     0.107089
      dxy     :     0.096929
      f0      :     0.009213  f :     0.070502
      f+1     :     0.005950
      f-1     :     0.005930
      f+2     :     0.007995
      f-2     :     0.006938
      f+3     :     0.014755
      f-3     :     0.019722
  2 C s       :     2.840804  s :     2.840804
      pz      :     1.059062  p :     2.919476
      px      :     1.018371
      py      :     0.842043
      dz2     :     0.050958  d :     0.446587
      dxz     :     0.127857
      dyz     :     0.075782
      dx2y2   :     0.100076
      dxy     :     0.091913
      f0      :     0.008574  f :     0.065908
      f+1     :     0.005540
      f-1     :     0.005290
      f+2     :     0.007170
      f-2     :     0.006749
      f+3     :     0.014731
      f-3     :     0.017855
  3 H s       :     0.831396  s :     0.831396
      pz      :     0.036664  p :     0.075852
      px      :     0.022362
      py      :     0.016826
  4 H s       :     0.822425  s :     0.822425
      pz      :     0.032534  p :     0.062168
      px      :     0.017786
      py      :     0.011848
  5 H s       :     0.821517  s :     0.821517
      pz      :     0.031901  p :     0.061665
      px      :     0.018677
      py      :     0.011087
  6 H s       :     0.820927  s :     0.820927
      pz      :     0.031918  p :     0.059591
      px      :     0.016027
      py      :     0.011647


                      *****************************
                      * MAYER POPULATION ANALYSIS *
                      *****************************

  NA   - Mulliken gross atomic population
  ZA   - Total nuclear charge
  QA   - Mulliken gross atomic charge
  VA   - Mayer's total valence
  BVA  - Mayer's bonded valence
  FA   - Mayer's free valence

  ATOM       NA         ZA         QA         VA         BVA        FA
  0 O      8.3168     8.0000    -0.3168     1.9902     1.9902     0.0000
  1 C      6.0673     6.0000    -0.0673     3.9846     3.9846     0.0000
  2 C      6.0844     6.0000    -0.0844     3.9582     3.9582    -0.0000
  3 H      0.8823     1.0000     0.1177     0.9569     0.9569     0.0000
  4 H      0.8894     1.0000     0.1106     0.9621     0.9621     0.0000
  5 H      0.8744     1.0000     0.1256     0.9604     0.9604     0.0000
  6 H      0.8854     1.0000     0.1146     0.9609     0.9609     0.0000

  Mayer bond orders larger than 0.100000
B(  0-O ,  1-C ) :   0.9916 B(  0-O ,  2-C ) :   0.9826 B(  1-C ,  2-C ) :   1.0605 
B(  1-C ,  3-H ) :   0.9595 B(  1-C ,  4-H ) :   0.9589 B(  2-C ,  5-H ) :   0.9511 
B(  2-C ,  6-H ) :   0.9529 

-------
TIMINGS
-------

Total SCF time: 0 days 0 hours 0 min 0 sec 

Total time                  ....       0.992 sec
Sum of individual times     ....       0.893 sec  ( 90.0%)

Fock matrix formation       ....       0.682 sec  ( 68.8%)
  Split-RI-J                ....       0.112 sec  ( 16.4% of F)
  Chain of spheres X        ....       0.499 sec  ( 73.2% of F)
  XC integration            ....       0.063 sec  (  9.2% of F)
    Basis function eval.    ....       0.017 sec  ( 27.4% of XC)
    Density eval.           ....       0.013 sec  ( 21.0% of XC)
    XC-Functional eval.     ....       0.004 sec  (  5.7% of XC)
    XC-Potential eval.      ....       0.021 sec  ( 32.8% of XC)
Diagonalization             ....       0.002 sec  (  0.2%)
Density matrix formation    ....       0.000 sec  (  0.0%)
Population analysis         ....       0.003 sec  (  0.3%)
Initial guess               ....       0.009 sec  (  0.9%)
Orbital Transformation      ....       0.000 sec  (  0.0%)
Orbital Orthonormalization  ....       0.001 sec  (  0.1%)
DIIS solution               ....       0.001 sec  (  0.1%)
SOSCF solution              ....       0.002 sec  (  0.2%)
Grid generation             ....       0.193 sec  ( 19.4%)

Maximum memory used throughout the entire SCF-calculation: 61.1 MB


           ************************************************************
           *        Program running with 8 parallel MPI-processes     *
           *              working on a common directory               *
           ************************************************************
------------------------------------------------------------------------------
                        ORCA TD-DFT/TDA CALCULATION
------------------------------------------------------------------------------

Input orbitals are from        ... ox_es1_A_orca0016.gbw
CI-vector output               ... ox_es1_A_orca0016.cis
Tamm-Dancoff approximation     ... operative
CIS-Integral strategy          ... AO-integrals
Integral handling              ... AO integral Direct
Max. core memory used          ... 3000 MB
Reference state                ... RHF
Generation of triplets         ... off
Follow IRoot                   ... off
Number of operators            ... 1
Orbital ranges used for CIS calculation:
 Operator 0:  Orbitals   3... 11  to  12...116
XAS localization array:
 Operator 0:  Orbitals  -1... -1

-------------------
XC-INTEGRATION GRID
-------------------

General Integration Accuracy     IntAcc      ... 3.467
Radial Grid Type                 RadialGrid  ... OptM3 with GC (2021)
Angular Grid (max. ang.)         AngularGrid ... 1 (Lebedev-50)
Angular grid pruning method      GridPruning ... 4 (adaptive)
Weight generation scheme         WeightScheme... Becke
Basis function cutoff            BFCut       ... 1.0000e-11
Integration weight cutoff        WCut        ... 1.0000e-14
Angular grids for H and He will be reduced by one unit
Partially contracted basis set               ... off
Rotationally invariant grid construction     ... off

Total number of grid points                  ...     4538
Total number of batches                      ...       75
Average number of points per batch           ...       60
Average number of grid points per atom       ...      648

---------------------
COSX-INTEGRATION GRID
---------------------

General Integration Accuracy     IntAcc      ... 3.067
Radial Grid Type                 RadialGrid  ... OptM3 with GC (2021)
Angular Grid (max. ang.)         AngularGrid ... 1 (Lebedev-50)
Angular grid pruning method      GridPruning ... 4 (adaptive)
Weight generation scheme         WeightScheme... Becke
Basis function cutoff            BFCut       ... 1.0000e-11
Integration weight cutoff        WCut        ... 1.0000e-14
Angular grids for H and He will be reduced by one unit
Partially contracted basis set               ... on
Rotationally invariant grid construction     ... off

Total number of grid points                  ...     2084
Total number of batches                      ...       38
Average number of points per batch           ...       54
Average number of grid points per atom       ...      298

---------------
TD-DFT XC SETUP
---------------

DFT calculation                         ... on
Name of the grid file                   ... ox_es1_A_orca0016.grid_cis.tmp
Exchange functional (TD-DFT)            ... PBE
   PBE kappa parameter  XKappa (TD-DFT) ...  0.804000
   PBE mue parameter   XMuePBE (TD-DFT) ...  0.219520
Correlation functional (TD-DFT)         ... PBE
   PBE beta parameter CBetaPBE (TD-DFT) ...  0.066725
 LDA part of GGA corr.  LDAOpt (TD-DFT) ... PW91-LDA
Hybrid DFT                              ... on
   Exchange mixing (TD-DFT)             ...  0.250
   GGA exch. scaling (TD-DFT)           ...  0.750
   GGA corr. scaling (TD-DFT)           ...  1.000

Building densities             ... done
Calculating rho(r) on the grid ... done
Building xc-kernel on the grid ... done
                    *** TD-DFT CALCULATION INITIALIZED ***

------------------------
DAVIDSON-DIAGONALIZATION
------------------------

Dimension of the eigenvalue problem            ...    945
Number of roots to be determined               ...      1
Maximum size of the expansion space            ...     10
Maximum number of iterations                   ...    100
Convergence tolerance for the residual         ...    2.500e-07
Convergence tolerance for the energies         ...    2.500e-07
Orthogonality tolerance                        ...    1.000e-14
Level Shift                                    ...    0.000e+00
Constructing the preconditioner                ... o.k.
Building the initial guess                     ... o.k.
Number of trial vectors determined             ...     10


                       ****Iteration    0****

   Memory handling for direct AO based CIS:
   Memory per vector needed      ...     1 MB
   Memory needed                 ...     1 MB
   Memory available              ...  3000 MB
   Number of vectors per batch   ...  3000
   Number of batches             ...     1
   Time for densities:            0.000
   Time for RI-J (Direct):        0.016
   Time for K (COSX):             0.054
   Time for XC-Integration:       0.016
   Time for Sigma-Completion:     0.000
   Size of expansion space: 3
   Lowest Energy          :     0.298769547402
   Maximum Energy change  :     0.298769547402 (vector 0)
   Maximum residual norm  :     0.003226516731

                       ****Iteration    1****
   Time for densities:            0.000
   Time for RI-J (Direct):        0.012
   Time for K (COSX):             0.048
   Time for XC-Integration:       0.006
   Time for Sigma-Completion:     0.000
   Size of expansion space: 4
   Lowest Energy          :     0.294811745729
   Maximum Energy change  :     0.003957801673 (vector 0)
   Maximum residual norm  :     0.000601880342

                       ****Iteration    2****
   Time for densities:            0.000
   Time for RI-J (Direct):        0.012
   Time for K (COSX):             0.048
   Time for XC-Integration:       0.007
   Time for Sigma-Completion:     0.000
   Size of expansion space: 5
   Lowest Energy          :     0.293871722492
   Maximum Energy change  :     0.000940023237 (vector 0)
   Maximum residual norm  :     0.000345004461

                       ****Iteration    3****
   Time for densities:            0.000
   Time for RI-J (Direct):        0.012
   Time for K (COSX):             0.048
   Time for XC-Integration:       0.006
   Time for Sigma-Completion:     0.000
   Size of expansion space: 6
   Lowest Energy          :     0.293241582448
   Maximum Energy change  :     0.000630140045 (vector 0)
   Maximum residual norm  :     0.000113623519

                       ****Iteration    4****
   Time for densities:            0.000
   Time for RI-J (Direct):        0.012
   Time for K (COSX):             0.048
   Time for XC-Integration:       0.006
   Time for Sigma-Completion:     0.000
   Size of expansion space: 7
   Lowest Energy          :     0.292993878052
   Maximum Energy change  :     0.000247704396 (vector 0)
   Maximum residual norm  :     0.000017924855

                       ****Iteration    5****
   Time for densities:            0.000
   Time for RI-J (Direct):        0.012
   Time for K (COSX):             0.048
   Time for XC-Integration:       0.006
   Time for Sigma-Completion:     0.000
   Size of expansion space: 8
   Lowest Energy          :     0.292974366691
   Maximum Energy change  :     0.000019511360 (vector 0)
   Maximum residual norm  :     0.000004322427

                       ****Iteration    6****
   Time for densities:            0.000
   Time for RI-J (Direct):        0.012
   Time for K (COSX):             0.048
   Time for XC-Integration:       0.006
   Time for Sigma-Completion:     0.000
   Size of expansion space: 9
   Lowest Energy          :     0.292969418542
   Maximum Energy change  :     0.000004948149 (vector 0)
   Maximum residual norm  :     0.000000478010

                       ****Iteration    7****
   Time for densities:            0.000
   Time for RI-J (Direct):        0.012
   Time for K (COSX):             0.048
   Time for XC-Integration:       0.006
   Time for Sigma-Completion:     0.000
   Size of expansion space: 10
   Lowest Energy          :     0.292968781856
   Maximum Energy change  :     0.000000636687 (vector 0)
   Maximum residual norm  :     0.000000060048

      *** CONVERGENCE OF RESIDUAL NORM REACHED ***

Storing the converged CI vectors               ... ox_es1_A_orca0016.cis1

                 *** DAVIDSON DONE ***

Total time for solving the CIS problem:     0.558sec

------------------------------------
TD-DFT/TDA EXCITED STATES (SINGLETS)
------------------------------------

the weight of the individual excitations are printed if larger than 1.0e-02

STATE  1:  E=   0.292969 au      7.972 eV    64299.2 cm**-1 <S**2> =   0.000000
    11a ->  13a  :     0.872492 (c=  0.93407254)
    11a ->  14a  :     0.012060 (c= -0.10981634)
    11a ->  15a  :     0.039518 (c=  0.19879135)
    11a ->  16a  :     0.065581 (c= -0.25608748)


-----------------------------
TD-DFT/TDA-EXCITATION SPECTRA
-----------------------------

Center of mass = ( -0.0344, -0.0991,  0.0056)
Calculating the Dipole integrals                  ... done
Transforming integrals                            ... done
Calculating the Linear Momentum integrals         ... done
Transforming integrals                            ... done
Calculating angular momentum integrals            ... done
Transforming integrals                            ... done

-----------------------------------------------------------------------------
         ABSORPTION SPECTRUM VIA TRANSITION ELECTRIC DIPOLE MOMENTS
-----------------------------------------------------------------------------
State   Energy    Wavelength  fosc         T2        TX        TY        TZ  
        (cm-1)      (nm)                 (au**2)    (au)      (au)      (au) 
-----------------------------------------------------------------------------
   1   64299.2    155.5   0.001235422   0.00633   0.01502   0.00050  -0.07810

-----------------------------------------------------------------------------
         ABSORPTION SPECTRUM VIA TRANSITION VELOCITY DIPOLE MOMENTS
-----------------------------------------------------------------------------
State   Energy    Wavelength   fosc        P2         PX        PY        PZ  
        (cm-1)      (nm)                 (au**2)     (au)      (au)      (au) 
-----------------------------------------------------------------------------
   1   64299.2    155.5   0.006634571   0.00292   0.00100   0.00285   0.05391

-------------------------------------------------------------------
                             CD SPECTRUM
-------------------------------------------------------------------
State  Energy     Wavelength     R         MX        MY        MZ   
       (cm-1)       (nm)     (1e40*cgs)   (au)      (au)      (au)  
-------------------------------------------------------------------
   1   64299.2    155.5     -2.08761  -0.18492   0.18687   0.02234

-------------------------------------------------------------------
         CD SPECTRUM VIA TRANSITION VELOCITY DIPOLE MOMENTS        
-------------------------------------------------------------------
State  Energy     Wavelength     R         MX        MY        MZ   
       (cm-1)       (nm)     (1e40*cgs)   (au)      (au)      (au)  
-------------------------------------------------------------------
   1   64299.2    155.5      2.49731  -0.18492   0.18687   0.02234

Total run time:        0.823 sec

           *** ORCA-CIS/TD-DFT FINISHED WITHOUT ERROR ***

Maximum memory used throughout the entire CIS-calculation: 49.4 MB

-----------------------
CIS/TD-DFT TOTAL ENERGY
-----------------------

    E(SCF)  =   -153.666775478 Eh
    DE(CIS) =      0.292968782 Eh (Root  1)
    ----------------------------- ---------
    E(tot)  =   -153.373806696 Eh



-------------------------------------------------------------------------------
                          DFT DISPERSION CORRECTION                            
                                                                               
                              DFTD3 V3.1  Rev 1                                
                          USING Becke-Johnson damping                          
-------------------------------------------------------------------------------
The PBE0 functional is recognized
Active option DFTDOPT                   ...         4   

molecular C6(AA) [au] = 350.834092 


            DFT-D V3
 parameters
 s6 scaling factor         :     1.0000 
 a1 scaling factor         :     0.4145 
 s8 scaling factor         :     1.2177 
 a2 scaling factor         :     4.8593 
 ad hoc parameters k1-k3   :    16.0000     1.3333    -4.0000 

 Edisp/kcal,au: -1.506776389348  -0.002401200764 
 E6   /kcal   :  -0.987707872 
 E8   /kcal   :  -0.519068517 
 % E8         :  34.448941532 

-------------------------   ----------------
Dispersion correction           -0.002401201
-------------------------   ----------------


-------------------------   --------------------
FINAL SINGLE POINT ENERGY      -153.376207896797
-------------------------   --------------------



           ************************************************************
           *        Program running with 8 parallel MPI-processes     *
           *              working on a common directory               *
           ************************************************************
------------------------------------------------------------------------------
                         ORCA SCF GRADIENT CALCULATION
------------------------------------------------------------------------------


------------------------
TD-DFT GRADIENT XC SETUP
------------------------

Building densities                     ... done
Calculating rho(r) on the grid         ... done
Building xc-kernel on the grid         ... done
Building xc 3rd derivative on the grid      ... done
                *** TD-DFT GRADIENT CALCULATION INITIALIZED ***

-------------------
TD-DFT/TDA GRADIENT
-------------------

Reference wavefunction             ... RHF
State of interest                  ... 1
Basis dimension                    ... 117
DFT-XC contribution needed         ... YES
RI-approximation                   ... ON
CIS-vectors being read from        ... ox_es1_A_orca0016.cis

 => Number of Vectors found: 1
 => Orbital Window: 3...11 -> 12...116

Reading the CIS file                     ... done
Norm of the CI vector                    ... 1.000000000
Making the CIS (pseudo)densities         ... done
Making operators G(D) and Q(T)           ... done
Transforming the Fock operators          ... done
Making the frozen-core relaxed density   ... done
Constructing the G(H) operator           ... done
Transforming the G(H) operator           ... done
Calculating the CIS Lagrangian           ... done
Solving the Z-vector equations           ... done
Finalizing the relaxed density           ... done
Storing the relaxed density              ... done
Constructing the G(Z) operator           ... done
Transforming the G(Z) operator           ... done
Making the W-matrix                      ... done
Finalizing the W-matrix                  ... done
Transforming the W-matrix                ... done
Nuclear repulsion gradient               ... done
One-Electron gradient                    ... done
Dispersion correction                    ... done
Prescreening matrices                    ... done
COSX-gradient                            ... done
Coulomb gradient (RI)                    ... done
Exchange-Correlation gradient            ... done

                 ---------------------------
                 EXCITED STATE GRADIENT DONE
                 ---------------------------

------------------
CARTESIAN GRADIENT
------------------

   1   O   :    0.060577176   -0.078155111   -0.000906608
   2   C   :   -0.017629404   -0.009324591    0.059910343
   3   C   :   -0.088459785    0.111712316   -0.008614199
   4   H   :    0.035149569    0.007912515   -0.059783434
   5   H   :    0.005703604   -0.008373652    0.003133182
   6   H   :    0.002957078   -0.012541401   -0.005204827
   7   H   :    0.001655799   -0.011220252    0.011473785

Difference to translation invariance:
           :   -0.0000459625    0.0000098245    0.0000082414

Difference to rotation invariance:
           :    0.0000862856   -0.0000235860    0.0003399084

Norm of the cartesian gradient     ...    0.1989538640
RMS gradient                       ...    0.0434152925
MAX gradient                       ...    0.1117123156

------------------------------------------------------------------------------
                  RELAXED CIS/TDA DENSITY POPULATION ANALYSIS
                                   IROOT 1
------------------------------------------------------------------------------
------------------------------------------------------------------------------
                           ORCA POPULATION ANALYSIS
------------------------------------------------------------------------------
Input electron density              ... ox_es1_A_orca0016.cisp
BaseName (.gbw .S,...)              ... ox_es1_A_orca0016

                    ********************************
                    * MULLIKEN POPULATION ANALYSIS *
                    ********************************

-----------------------
MULLIKEN ATOMIC CHARGES
-----------------------
   0 O :    0.126377
   1 C :   -0.133246
   2 C :   -0.626688
   3 H :    0.140513
   4 H :    0.141997
   5 H :    0.171539
   6 H :    0.179509
Sum of atomic charges:    0.0000000

--------------------------------
MULLIKEN REDUCED ORBITAL CHARGES
--------------------------------
  0 O s       :     3.794523  s :     3.794523
      pz      :     1.109830  p :     4.037572
      px      :     1.526784
      py      :     1.400958
      dz2     :     0.004518  d :     0.039992
      dxz     :     0.002990
      dyz     :     0.006960
      dx2y2   :     0.011958
      dxy     :     0.013566
      f0      :     0.000102  f :     0.001536
      f+1     :    -0.000032
      f-1     :     0.000206
      f+2     :     0.000093
      f-2     :     0.000220
      f+3     :     0.000367
      f-3     :     0.000580
  1 C s       :     3.182653  s :     3.182653
      pz      :     1.054999  p :     2.861534
      px      :     1.102985
      py      :     0.703550
      dz2     :     0.003194  d :     0.078905
      dxz     :     0.019412
      dyz     :     0.008574
      dx2y2   :     0.029091
      dxy     :     0.018634
      f0      :     0.000921  f :     0.010155
      f+1     :     0.001520
      f-1     :     0.000556
      f+2     :     0.000775
      f-2     :     0.001173
      f+3     :     0.002622
      f-3     :     0.002588
  2 C s       :     3.231527  s :     3.231527
      pz      :     1.073413  p :     3.301750
      px      :     0.886010
      py      :     1.342327
      dz2     :     0.009932  d :     0.083469
      dxz     :     0.013347
      dyz     :     0.005188
      dx2y2   :     0.029501
      dxy     :     0.025502
      f0      :     0.000948  f :     0.009941
      f+1     :     0.001370
      f-1     :     0.000701
      f+2     :     0.000909
      f-2     :     0.001124
      f+3     :     0.002536
      f-3     :     0.002354
  3 H s       :     0.833263  s :     0.833263
      pz      :     0.010750  p :     0.026224
      px      :     0.010182
      py      :     0.005292
  4 H s       :     0.834472  s :     0.834472
      pz      :     0.010780  p :     0.023532
      px      :     0.008768
      py      :     0.003983
  5 H s       :     0.801335  s :     0.801335
      pz      :     0.009918  p :     0.027126
      px      :     0.007907
      py      :     0.009301
  6 H s       :     0.794354  s :     0.794354
      pz      :     0.010423  p :     0.026138
      px      :     0.006615
      py      :     0.009100


                     *******************************
                     * LOEWDIN POPULATION ANALYSIS *
                     *******************************

----------------------
LOEWDIN ATOMIC CHARGES
----------------------
   0 O :    0.410803
   1 C :   -0.303004
   2 C :   -0.627669
   3 H :    0.106764
   4 H :    0.135970
   5 H :    0.132308
   6 H :    0.144828

-------------------------------
LOEWDIN REDUCED ORBITAL CHARGES
-------------------------------
  0 O s       :     3.431663  s :     3.431663
      pz      :     1.054720  p :     4.049352
      px      :     1.520174
      py      :     1.474458
      dz2     :     0.011035  d :     0.102173
      dxz     :     0.008967
      dyz     :     0.014373
      dx2y2   :     0.034418
      dxy     :     0.033380
      f0      :     0.000617  f :     0.006009
      f+1     :     0.000131
      f-1     :     0.000631
      f+2     :     0.000148
      f-2     :     0.000993
      f+3     :     0.001079
      f-3     :     0.002410
  1 C s       :     2.817842  s :     2.817842
      pz      :     1.051385  p :     2.978000
      px      :     1.105752
      py      :     0.820863
      dz2     :     0.060123  d :     0.440049
      dxz     :     0.112448
      dyz     :     0.037735
      dx2y2   :     0.131617
      dxy     :     0.098125
      f0      :     0.006919  f :     0.067114
      f+1     :     0.006770
      f-1     :     0.006316
      f+2     :     0.005357
      f-2     :     0.005080
      f+3     :     0.016733
      f-3     :     0.019938
  2 C s       :     2.833964  s :     2.833964
      pz      :     1.045408  p :     3.183654
      px      :     1.005175
      py      :     1.133071
      dz2     :     0.062358  d :     0.537992
      dxz     :     0.100868
      dyz     :     0.028250
      dx2y2   :     0.181237
      dxy     :     0.165279
      f0      :     0.006409  f :     0.072059
      f+1     :     0.005540
      f-1     :     0.007888
      f+2     :     0.004816
      f-2     :     0.004789
      f+3     :     0.024547
      f-3     :     0.018071
  3 H s       :     0.810081  s :     0.810081
      pz      :     0.036187  p :     0.083155
      px      :     0.028815
      py      :     0.018153
  4 H s       :     0.796274  s :     0.796274
      pz      :     0.032151  p :     0.067756
      px      :     0.023014
      py      :     0.012592
  5 H s       :     0.791250  s :     0.791250
      pz      :     0.030940  p :     0.076442
      px      :     0.020778
      py      :     0.024724
  6 H s       :     0.782385  s :     0.782385
      pz      :     0.031365  p :     0.072787
      px      :     0.016937
      py      :     0.024485


                      *****************************
                      * MAYER POPULATION ANALYSIS *
                      *****************************

  NA   - Mulliken gross atomic population
  ZA   - Total nuclear charge
  QA   - Mulliken gross atomic charge
  VA   - Mayer's total valence
  BVA  - Mayer's bonded valence
  FA   - Mayer's free valence

  ATOM       NA         ZA         QA         VA         BVA        FA
  0 O      7.8736     8.0000     0.1264     1.9636     1.2528     0.7107
  1 C      6.1332     6.0000    -0.1332     3.4868     3.3185     0.1683
  2 C      6.6267     6.0000    -0.6267     3.8388     3.0026     0.8362
  3 H      0.8595     1.0000     0.1405     1.0009     0.9621     0.0388
  4 H      0.8580     1.0000     0.1420     0.9928     0.9538     0.0390
  5 H      0.8285     1.0000     0.1715     1.0020     0.9539     0.0481
  6 H      0.8205     1.0000     0.1795     0.9874     0.9430     0.0443

  Mayer bond orders larger than 0.100000
B(  0-O ,  1-C ) :   0.8052 B(  0-O ,  2-C ) :   0.4456 B(  1-C ,  2-C ) :   0.6445 
B(  1-C ,  3-H ) :   0.9349 B(  1-C ,  4-H ) :   0.9249 B(  2-C ,  5-H ) :   0.9410 
B(  2-C ,  6-H ) :   0.9362 


-------
TIMINGS
-------

Total TD-DFT gradient time         ...        5.034 sec

Fock matrix formation       ....       0.828 sec  ( 16.4%)
  Coulomb formation         ....       0.670 sec  ( 80.9% of F)
  RI-J                      ....       0.290 sec  ( 35.0% of F)
  Chain of spheres X        ....       0.380 sec  ( 45.9% of F)
  XC integration            ....       0.158 sec  ( 19.1% of F)
Z-vector equation           ....       1.432 sec  ( 28.5%)
One electron gradient       ....       0.032 sec  (  0.6%)
Prescreening matrices       ....       0.157 sec  (  3.1%)
RI-J Coulomb gradient       ....       0.244 sec  (  4.9%)
COSX gradient               ....       0.334 sec  (  6.6%)
XC gradient                 ....       1.692 sec  ( 33.6%)

Maximum memory used throughout the entire SCFGRAD-calculation: 130.3 MB

                            ***************************************
                            *     ORCA property calculations      *
                            ***************************************

                                    ---------------------
                                    Active property flags
                                    ---------------------
   (+) Dipole Moment


------------------------------------------------------------------------------
                       ORCA ELECTRIC PROPERTIES CALCULATION
------------------------------------------------------------------------------

Dipole Moment Calculation                       ... on
Quadrupole Moment Calculation                   ... off
Polarizability Calculation                      ... off
GBWName                                         ... ox_es1_A_orca0016.gbw
Electron density                                ... ox_es1_A_orca0016.scfp
The origin for moment calculation is the CENTER OF MASS  = (-0.034442, -0.099054  0.005556)

-------------
DIPOLE MOMENT
-------------
                                X             Y             Z
Electronic contribution:     -0.10516       1.63480       0.06482
Nuclear contribution   :      0.11355      -2.38397      -0.07058
                        -----------------------------------------
Total Dipole Moment    :      0.00839      -0.74918      -0.00576
                        -----------------------------------------
Magnitude (a.u.)       :      0.74925
Magnitude (Debye)      :      1.90444



--------------------
Rotational spectrum 
--------------------
 
Rotational constants in cm-1:     0.858381     0.717746     0.460960 
Rotational constants in MHz : 25733.621784 21517.473057 13819.223133 

 Dipole components along the rotational axes: 
x,y,z [a.u.] :    -0.055550    -0.747154     0.006794 
x,y,z [Debye]:    -0.141196    -1.899115     0.017268 

 

                        *** CIS RELAXED DENSITY ***

------------------------------------------------------------------------------
                       ORCA ELECTRIC PROPERTIES CALCULATION
------------------------------------------------------------------------------

Dipole Moment Calculation                       ... on
Quadrupole Moment Calculation                   ... off
Polarizability Calculation                      ... off
GBWName                                         ... ox_es1_A_orca0016.gbw
Electron density                                ... ox_es1_A_orca0016.cisp
The origin for moment calculation is the CENTER OF MASS  = (-0.034442, -0.099054  0.005556)

-------------
DIPOLE MOMENT
-------------
                                X             Y             Z
Electronic contribution:     -0.73488       2.24692       0.09814
Nuclear contribution   :      0.11355      -2.38397      -0.07058
                        -----------------------------------------
Total Dipole Moment    :     -0.62132      -0.13705       0.02756
                        -----------------------------------------
Magnitude (a.u.)       :      0.63685
Magnitude (Debye)      :      1.61876



--------------------
Rotational spectrum 
--------------------
 
Rotational constants in cm-1:     0.858381     0.717746     0.460960 
Rotational constants in MHz : 25733.621784 21517.473057 13819.223133 

 Dipole components along the rotational axes: 
x,y,z [a.u.] :     0.611889    -0.175550     0.018930 
x,y,z [Debye]:     1.555297    -0.446212     0.048115 

 

Timings for individual modules:

Sum of individual times         ...        7.899 sec (=   0.132 min)
GTO integral calculation        ...        0.361 sec (=   0.006 min)   4.6 %
SCF iterations                  ...        1.189 sec (=   0.020 min)  15.0 %
CIS module                      ...        1.060 sec (=   0.018 min)  13.4 %
SCF Gradient evaluation         ...        5.290 sec (=   0.088 min)  67.0 %
                             ****ORCA TERMINATED NORMALLY****
TOTAL RUN TIME: 0 days 0 hours 0 minutes 8 seconds 308 msec
