
                                 *****************
                                 * O   R   C   A *
                                 *****************

                                            #,                                       
                                            ###                                      
                                            ####                                     
                                            #####                                    
                                            ######                                   
                                           ########,                                 
                                     ,,################,,,,,                         
                               ,,#################################,,                 
                          ,,##########################################,,             
                       ,#########################################, ''#####,          
                    ,#############################################,,   '####,        
                  ,##################################################,,,,####,       
                ,###########''''           ''''###############################       
              ,#####''   ,,,,##########,,,,          '''####'''          '####       
            ,##' ,,,,###########################,,,                        '##       
           ' ,,###''''                  '''############,,,                           
         ,,##''                                '''############,,,,        ,,,,,,###''
      ,#''                                            '''#######################'''  
     '                                                          ''''####''''         
             ,#######,   #######,   ,#######,      ##                                
            ,#'     '#,  ##    ##  ,#'     '#,    #''#        ######   ,####,        
            ##       ##  ##   ,#'  ##            #'  '#       #        #'  '#        
            ##       ##  #######   ##           ,######,      #####,   #    #        
            '#,     ,#'  ##    ##  '#,     ,#' ,#      #,         ##   #,  ,#        
             '#######'   ##     ##  '#######'  #'      '#     #####' # '####'        



                  #######################################################
                  #                        -***-                        #
                  #          Department of theory and spectroscopy      #
                  #    Directorship and core code : Frank Neese         #
                  #        Max Planck Institute fuer Kohlenforschung    #
                  #                Kaiser Wilhelm Platz 1               #
                  #                 D-45470 Muelheim/Ruhr               #
                  #                      Germany                        #
                  #                                                     #
                  #                  All rights reserved                #
                  #                        -***-                        #
                  #######################################################


                         Program Version 5.0.2 -  RELEASE  -


 With contributions from (in alphabetic order):
   Daniel Aravena         : Magnetic Suceptibility
   Michael Atanasov       : Ab Initio Ligand Field Theory (pilot matlab implementation)
   Alexander A. Auer      : GIAO ZORA, VPT2 properties, NMR spectrum
   Ute Becker             : Parallelization
   Giovanni Bistoni       : ED, misc. LED, open-shell LED, HFLD
   Martin Brehm           : Molecular dynamics
   Dmytro Bykov           : SCF Hessian
   Vijay G. Chilkuri      : MRCI spin determinant printing, contributions to CSF-ICE
   Dipayan Datta          : RHF DLPNO-CCSD density
   Achintya Kumar Dutta   : EOM-CC, STEOM-CC
   Dmitry Ganyushin       : Spin-Orbit,Spin-Spin,Magnetic field MRCI
   Miquel Garcia          : C-PCM and meta-GGA Hessian, CC/C-PCM, Gaussian charge scheme
   Yang Guo               : DLPNO-NEVPT2, F12-NEVPT2, CIM, IAO-localization
   Andreas Hansen         : Spin unrestricted coupled pair/coupled cluster methods
   Benjamin Helmich-Paris : MC-RPA, TRAH-SCF, COSX integrals
   Lee Huntington         : MR-EOM, pCC
   Robert Izsak           : Overlap fitted RIJCOSX, COSX-SCS-MP3, EOM
   Marcus Kettner         : VPT2
   Christian Kollmar      : KDIIS, OOCD, Brueckner-CCSD(T), CCSD density, CASPT2, CASPT2-K
   Simone Kossmann        : Meta GGA functionals, TD-DFT gradient, OOMP2, MP2 Hessian
   Martin Krupicka        : Initial AUTO-CI
   Lucas Lang             : DCDCAS
   Marvin Lechner         : AUTO-CI (C++ implementation), FIC-MRCC
   Dagmar Lenk            : GEPOL surface, SMD
   Dimitrios Liakos       : Extrapolation schemes; Compound Job, initial MDCI parallelization
   Dimitrios Manganas     : Further ROCIS development; embedding schemes
   Dimitrios Pantazis     : SARC Basis sets
   Anastasios Papadopoulos: AUTO-CI, single reference methods and gradients
   Taras Petrenko         : DFT Hessian,TD-DFT gradient, ASA, ECA, R-Raman, ABS, FL, XAS/XES, NRVS
   Peter Pinski           : DLPNO-MP2, DLPNO-MP2 Gradient
   Christoph Reimann      : Effective Core Potentials
   Marius Retegan         : Local ZFS, SOC
   Christoph Riplinger    : Optimizer, TS searches, QM/MM, DLPNO-CCSD(T), (RO)-DLPNO pert. Triples
   Tobias Risthaus        : Range-separated hybrids, TD-DFT gradient, RPA, STAB
   Michael Roemelt        : Original ROCIS implementation
   Masaaki Saitow         : Open-shell DLPNO-CCSD energy and density
   Barbara Sandhoefer     : DKH picture change effects
   Avijit Sen             : IP-ROCIS
   Kantharuban Sivalingam : CASSCF convergence, NEVPT2, FIC-MRCI
   Bernardo de Souza      : ESD, SOC TD-DFT
   Georgi Stoychev        : AutoAux, RI-MP2 NMR, DLPNO-MP2 response
   Willem Van den Heuvel  : Paramagnetic NMR
   Boris Wezisla          : Elementary symmetry handling
   Frank Wennmohs         : Technical directorship


 We gratefully acknowledge several colleagues who have allowed us to
 interface, adapt or use parts of their codes:
   Stefan Grimme, W. Hujo, H. Kruse, P. Pracht,  : VdW corrections, initial TS optimization,
                  C. Bannwarth, S. Ehlert          DFT functionals, gCP, sTDA/sTD-DF
   Ed Valeev, F. Pavosevic, A. Kumar             : LibInt (2-el integral package), F12 methods
   Garnet Chan, S. Sharma, J. Yang, R. Olivares  : DMRG
   Ulf Ekstrom                                   : XCFun DFT Library
   Mihaly Kallay                                 : mrcc  (arbitrary order and MRCC methods)
   Jiri Pittner, Ondrej Demel                    : Mk-CCSD
   Frank Weinhold                                : gennbo (NPA and NBO analysis)
   Christopher J. Cramer and Donald G. Truhlar   : smd solvation model
   Lars Goerigk                                  : TD-DFT with DH, B97 family of functionals
   V. Asgeirsson, H. Jonsson                     : NEB implementation
   FAccTs GmbH                                   : IRC, NEB, NEB-TS, DLPNO-Multilevel, CI-OPT
                                                   MM, QMMM, 2- and 3-layer-ONIOM, Crystal-QMMM,
                                                   LR-CPCM, SF, NACMEs, symmetry and pop. for TD-DFT,
                                                   nearIR, NL-DFT gradient (VV10), updates on ESD,
                                                   ML-optimized integration grids
   S Lehtola, MJT Oliveira, MAL Marques          : LibXC Library
   Liviu Ungur et al                             : ANISO software


 Your calculation uses the libint2 library for the computation of 2-el integrals
 For citations please refer to: http://libint.valeyev.net

 Your ORCA version has been built with support for libXC version: 5.1.0
 For citations please refer to: https://tddft.org/programs/libxc/

 This ORCA versions uses:
   CBLAS   interface :  Fast vector & matrix operations
   LAPACKE interface :  Fast linear algebra routines
   SCALAPACK package :  Parallel linear algebra routines
   Shared memory     :  Shared parallel matrices
   BLAS/LAPACK       :  OpenBLAS 0.3.15  USE64BITINT DYNAMIC_ARCH NO_AFFINITY SkylakeX SINGLE_THREADED
        Core in use  :  SkylakeX
   Copyright (c) 2011-2014, The OpenBLAS Project


Your calculation utilizes the atom-pairwise dispersion correction
with the Becke-Johnson damping scheme (D3BJ)
Cite in your paper:
S.Grimme, S.Ehrlich, L.Goerigk, J Comput Chem, (2011), 32, 1456–1465 
S.Grimme, J.Antony, S.Ehrlich and H.Krieg, J.Chem.Phys., 132, (2010), 154104 
   

================================================================================

----- Orbital basis set information -----
Your calculation utilizes the basis: def2-TZVP
   F. Weigend and R. Ahlrichs, Phys. Chem. Chem. Phys. 7, 3297 (2005).

----- AuxJ basis set information -----
Your calculation utilizes the auxiliary basis: def2/J
   F. Weigend, Phys. Chem. Chem. Phys. 8, 1057 (2006).

================================================================================
                                        WARNINGS
                       Please study these warnings very carefully!
================================================================================

INFO   : Checking CIS options ...

WARNING: CIS/ROCIS methods need fully converged wavefunctions
  ===> : Setting SCFConvForced true
         You can overwrite this default with %scf ConvForced false 


INFO   : the flag for use of the SHARK integral package has been found!

================================================================================
                                       INPUT FILE
================================================================================
NAME = ox_es1_D_orca0004.inp
|  1> ! engrad PBE0 D3BJ def2-TZVP  
|  2> %pal nprocs 8 end
|  3> %maxcore 3000
|  4> 
|  5> %tddft
|  6>   nroots 1
|  7>   tda true
|  8>   Iroot 1
|  9>   end 
| 10> *xyz 0 1 
| 11> O   -0.796431494067364 0.9879343962934217 0.024525176640351587
| 12> C   -0.781219927094061 -0.49973588307276445 -0.12448263876500687
| 13> C   0.7495524788033538 -0.41795619318519484 0.014267372332663118
| 14> H   -1.2324656918697652 -0.8158262009490426 0.897197482725506
| 15> H   -1.2101643270072657 -0.696508110518153 -0.9101952406411243
| 16> H   1.235925062873802 -0.6350523830752484 -0.9446411159227279
| 17> H   1.1513375570647664 -0.6328016517842031 0.891515834786684
| 18> *
| 19> 
| 20>                          ****END OF INPUT****
================================================================================

                     *******************************
                     * Energy+Gradient Calculation *
                     *******************************

---------------------------------
CARTESIAN COORDINATES (ANGSTROEM)
---------------------------------
  O     -0.796431    0.987934    0.024525
  C     -0.781220   -0.499736   -0.124483
  C      0.749552   -0.417956    0.014267
  H     -1.232466   -0.815826    0.897197
  H     -1.210164   -0.696508   -0.910195
  H      1.235925   -0.635052   -0.944641
  H      1.151338   -0.632802    0.891516

----------------------------
CARTESIAN COORDINATES (A.U.)
----------------------------
  NO LB      ZA    FRAG     MASS         X           Y           Z
   0 O     8.0000    0    15.999   -1.505037    1.866925    0.046346
   1 C     6.0000    0    12.011   -1.476292   -0.944364   -0.235238
   2 C     6.0000    0    12.011    1.416449   -0.789823    0.026961
   3 H     1.0000    0     1.008   -2.329023   -1.541688    1.695458
   4 H     1.0000    0     1.008   -2.286879   -1.316210   -1.720020
   5 H     1.0000    0     1.008    2.335560   -1.200075   -1.785113
   6 H     1.0000    0     1.008    2.175713   -1.195822    1.684721

--------------------------------
INTERNAL COORDINATES (ANGSTROEM)
--------------------------------
 O      0   0   0     0.000000000000     0.00000000     0.00000000
 C      1   0   0     1.495191486376     0.00000000     0.00000000
 C      2   1   0     1.539221765021    87.03482658     0.00000000
 H      2   1   3     1.160761000349   100.32730463   108.54441360
 H      2   1   3     0.916546180210   107.11435666   235.62444187
 H      3   2   1     1.096902244983   110.58847835   250.84577494
 H      3   2   1     0.988511347973   118.20793570   100.23634215

---------------------------
INTERNAL COORDINATES (A.U.)
---------------------------
 O      0   0   0     0.000000000000     0.00000000     0.00000000
 C      1   0   0     2.825502427021     0.00000000     0.00000000
 C      2   1   0     2.908707595261    87.03482658     0.00000000
 H      2   1   3     2.193520397597   100.32730463   108.54441360
 H      2   1   3     1.732021269689   107.11435666   235.62444187
 H      3   2   1     2.072844838701   110.58847835   250.84577494
 H      3   2   1     1.868015727943   118.20793570   100.23634215

---------------------
BASIS SET INFORMATION
---------------------
There are 3 groups of distinct atoms

 Group   1 Type O   : 11s6p2d1f contracted to 5s3p2d1f pattern {62111/411/11/1}
 Group   2 Type C   : 11s6p2d1f contracted to 5s3p2d1f pattern {62111/411/11/1}
 Group   3 Type H   : 5s1p contracted to 3s1p pattern {311/1}

Atom   0O    basis set group =>   1
Atom   1C    basis set group =>   2
Atom   2C    basis set group =>   2
Atom   3H    basis set group =>   3
Atom   4H    basis set group =>   3
Atom   5H    basis set group =>   3
Atom   6H    basis set group =>   3
---------------------------------
AUXILIARY/J BASIS SET INFORMATION
---------------------------------
There are 3 groups of distinct atoms

 Group   1 Type O   : 12s5p4d2f1g contracted to 6s4p3d1f1g pattern {711111/2111/211/2/1}
 Group   2 Type C   : 12s5p4d2f1g contracted to 6s4p3d1f1g pattern {711111/2111/211/2/1}
 Group   3 Type H   : 5s2p1d contracted to 3s1p1d pattern {311/2/1}

Atom   0O    basis set group =>   1
Atom   1C    basis set group =>   2
Atom   2C    basis set group =>   2
Atom   3H    basis set group =>   3
Atom   4H    basis set group =>   3
Atom   5H    basis set group =>   3
Atom   6H    basis set group =>   3

Checking for AutoStart:
The File: ox_es1_D_orca0004.gbw exists
Trying to determine its content:
     ... Fine, the file contains calculation information
     ... Fine, the calculation information was read
     ... Fine, the file contains a basis set
     ... Fine, the basis set was read
     ... Fine, the file contains a geometry
     ... Fine, the geometry was read
     ... Fine, the file contains a set of orbitals
     ... Fine, the orbitals can be read
     => possible old guess file was deleted
     => GBW file was renamed to GES file
     => GES file is set as startup file
     => Guess is set to MORead
     ... now leaving AutoStart



           ************************************************************
           *        Program running with 8 parallel MPI-processes     *
           *              working on a common directory               *
           ************************************************************
------------------------------------------------------------------------------
                           ORCA GTO INTEGRAL CALCULATION
                           -- RI-GTO INTEGRALS CHOSEN --
------------------------------------------------------------------------------
------------------------------------------------------------------------------
                   ___                                                        
                  /   \      - P O W E R E D   B Y -                         
                 /     \                                                     
                 |  |  |   _    _      __       _____    __    __             
                 |  |  |  | |  | |    /  \     |  _  \  |  |  /  |          
                  \  \/   | |  | |   /    \    | | | |  |  | /  /          
                 / \  \   | |__| |  /  /\  \   | |_| |  |  |/  /          
                |  |  |   |  __  | /  /__\  \  |    /   |      \           
                |  |  |   | |  | | |   __   |  |    \   |  |\   \          
                \     /   | |  | | |  |  |  |  | |\  \  |  | \   \       
                 \___/    |_|  |_| |__|  |__|  |_| \__\ |__|  \__/        
                                                                              
                      - O R C A' S   B I G   F R I E N D -                    
                                      &                                       
                       - I N T E G R A L  F E E D E R -                       
                                                                              
 v1 FN, 2020, v2 2021                                                         
------------------------------------------------------------------------------


Reading SHARK input file ox_es1_D_orca0004.SHARKINP.tmp ... ok
----------------------
SHARK INTEGRAL PACKAGE
----------------------

Number of atoms                             ...      7
Number of basis functions                   ...    117
Number of shells                            ...     49
Maximum angular momentum                    ...      3
Integral batch strategy                     ... SHARK/LIBINT Hybrid
RI-J (if used) integral strategy            ... SPLIT-RIJ (Revised 2003 algorithm where possible)
Printlevel                                  ...      1
Contraction scheme used                     ... SEGMENTED contraction
Coulomb Range Separation                    ... NOT USED
Exchange Range Separation                   ... NOT USED
Finite Nucleus Model                        ... NOT USED
Auxiliary Coulomb fitting basis             ... AVAILABLE
   # of basis functions in Aux-J            ...    191
   # of shells in Aux-J                     ...     65
   Maximum angular momentum in Aux-J        ...      4
Auxiliary J/K fitting basis                 ... NOT available
Auxiliary Correlation fitting basis         ... NOT available
Auxiliary 'external' fitting basis          ... NOT available
Integral threshold                          ...     2.500000e-11
Primitive cut-off                           ...     2.500000e-12
Primitive pair pre-selection threshold      ...     2.500000e-12

Calculating pre-screening integrals         ... done (  0.0 sec) Dimension = 49
Organizing shell pair data                  ... done (  0.0 sec)
Shell pair information
Total number of shell pairs                 ...      1225
Shell pairs after pre-screening             ...      1214
Total number of primitive shell pairs       ...      3648
Primitive shell pairs kept                  ...      3090
          la=0 lb=0:    368 shell pairs
          la=1 lb=0:    351 shell pairs
          la=1 lb=1:     91 shell pairs
          la=2 lb=0:    161 shell pairs
          la=2 lb=1:     78 shell pairs
          la=2 lb=2:     21 shell pairs
          la=3 lb=0:     81 shell pairs
          la=3 lb=1:     39 shell pairs
          la=3 lb=2:     18 shell pairs
          la=3 lb=3:      6 shell pairs

Calculating one electron integrals          ... done (  0.0 sec)
Calculating RI/J V-Matrix + Cholesky decomp.... done (  0.0 sec)
Calculating Nuclear repulsion               ... done (  0.0 sec) ENN=     68.311793483158 Eh

SHARK setup successfully completed in   0.1 seconds

Maximum memory used throughout the entire GTOINT-calculation: 14.9 MB


           ************************************************************
           *        Program running with 8 parallel MPI-processes     *
           *              working on a common directory               *
           ************************************************************
-------------------------------------------------------------------------------
                                 ORCA SCF
-------------------------------------------------------------------------------

------------
SCF SETTINGS
------------
Hamiltonian:
 Density Functional     Method          .... DFT(GTOs)
 Exchange Functional    Exchange        .... PBE
   PBE kappa parameter   XKappa         ....  0.804000
   PBE mue parameter    XMuePBE         ....  0.219520
 Correlation Functional Correlation     .... PBE
   PBE beta parameter  CBetaPBE         ....  0.066725
 LDA part of GGA corr.  LDAOpt          .... PW91-LDA
 Gradients option       PostSCFGGA      .... off
 Hybrid DFT is turned on
   Fraction HF Exchange ScalHFX         ....  0.250000
   Scaling of DF-GGA-X  ScalDFX         ....  0.750000
   Scaling of DF-GGA-C  ScalDFC         ....  1.000000
   Scaling of DF-LDA-C  ScalLDAC        ....  1.000000
   Perturbative correction              ....  0.000000
   Density functional embedding theory  .... OFF
   NL short-range parameter             ....  6.900000
 RI-approximation to the Coulomb term is turned on
   Number of AuxJ basis functions       .... 191
   RIJ-COSX (HFX calculated with COS-X)).... on


General Settings:
 Integral files         IntName         .... ox_es1_D_orca0004
 Hartree-Fock type      HFTyp           .... RHF
 Total Charge           Charge          ....    0
 Multiplicity           Mult            ....    1
 Number of Electrons    NEL             ....   24
 Basis Dimension        Dim             ....  117
 Nuclear Repulsion      ENuc            ....     68.3117934832 Eh

Convergence Acceleration:
 DIIS                   CNVDIIS         .... on
   Start iteration      DIISMaxIt       ....    12
   Startup error        DIISStart       ....  0.200000
   # of expansion vecs  DIISMaxEq       ....     5
   Bias factor          DIISBfac        ....   1.050
   Max. coefficient     DIISMaxC        ....  10.000
 Trust-Rad. Augm. Hess. CNVTRAH         .... auto
   Auto Start mean grad. ratio tolernc. ....  1.125000
   Auto Start start iteration           ....     1
   Auto Start num. interpolation iter.  ....    10
   Max. Number of Micro iterations      ....    16
   Max. Number of Macro iterations      .... Maxiter - #DIIS iter
   Number of Davidson start vectors     ....     2
   Converg. threshold I  (grad. norm)   ....   1.000e-05
   Converg. threshold II (energy diff.) ....   1.000e-08
   Grad. Scal. Fac. for Micro threshold ....   0.100
   Minimum threshold for Micro iter.    ....   0.010
   NR start threshold (gradient norm)   ....   0.001
   Initial trust radius                 ....   0.400
   Minimum AH scaling param. (alpha)    ....   1.000
   Maximum AH scaling param. (alpha)    .... 1000.000
   Orbital update algorithm             .... Taylor
   White noise on init. David. guess    .... on
   Maximum white noise                  ....   0.010
   Quad. conv. algorithm                .... NR
 SOSCF                  CNVSOSCF        .... on
   Start iteration      SOSCFMaxIt      ....   150
   Startup grad/error   SOSCFStart      ....  0.003300
 Level Shifting         CNVShift        .... on
   Level shift para.    LevelShift      ....    0.2500
   Turn off err/grad.   ShiftErr        ....    0.0010
 Zerner damping         CNVZerner       .... off
 Static damping         CNVDamp         .... on
   Fraction old density DampFac         ....    0.7000
   Max. Damping (<1)    DampMax         ....    0.9800
   Min. Damping (>=0)   DampMin         ....    0.0000
   Turn off err/grad.   DampErr         ....    0.1000
 Fernandez-Rico         CNVRico         .... off

SCF Procedure:
 Maximum # iterations   MaxIter         ....   125
 SCF integral mode      SCFMode         .... Direct
   Integral package                     .... SHARK and LIBINT hybrid scheme
 Reset frequency        DirectResetFreq ....    20
 Integral Threshold     Thresh          ....  2.500e-11 Eh
 Primitive CutOff       TCut            ....  2.500e-12 Eh

Convergence Tolerance:
 Convergence Check Mode ConvCheckMode   .... Total+1el-Energy
 Convergence forced     ConvForced      .... 1
 Energy Change          TolE            ....  1.000e-08 Eh
 1-El. energy change                    ....  1.000e-05 Eh
 Orbital Gradient       TolG            ....  1.000e-05
 Orbital Rotation angle TolX            ....  1.000e-05
 DIIS Error             TolErr          ....  5.000e-07


Diagonalization of the overlap matrix:
Smallest eigenvalue                        ... 7.148e-04
Time for diagonalization                   ...    0.001 sec
Threshold for overlap eigenvalues          ... 1.000e-08
Number of eigenvalues below threshold      ... 0
Time for construction of square roots      ...    0.002 sec
Total time needed                          ...    0.003 sec

---------------------
INITIAL GUESS: MOREAD
---------------------
Guess MOs are being read from file: ox_es1_D_orca0004.ges
Input Geometry matches current geometry (good)
Input basis set matches current basis set (good)
MOs were renormalized
MOs were reorthogonalized (Cholesky)
                      ------------------
                      INITIAL GUESS DONE (   0.0 sec)
                      ------------------
-------------------
DFT GRID GENERATION
-------------------

General Integration Accuracy     IntAcc      ... 4.388
Radial Grid Type                 RadialGrid  ... OptM3 with GC (2021)
Angular Grid (max. ang.)         AngularGrid ... 4 (Lebedev-302)
Angular grid pruning method      GridPruning ... 4 (adaptive)
Weight generation scheme         WeightScheme... Becke
Basis function cutoff            BFCut       ... 1.0000e-11
Integration weight cutoff        WCut        ... 1.0000e-14
Angular grids for H and He will be reduced by one unit
Partially contracted basis set               ... off
Rotationally invariant grid construction     ... off

Total number of grid points                  ...    31323
Total number of batches                      ...      494
Average number of points per batch           ...       63
Average number of grid points per atom       ...     4475
Time for grid setup =    0.119 sec

--------------------
COSX GRID GENERATION
--------------------

GRIDX 1
-------
General Integration Accuracy     IntAcc      ... 3.816
Radial Grid Type                 RadialGrid  ... OptM3 with GC (2021)
Angular Grid (max. ang.)         AngularGrid ... 1 (Lebedev-50)
Angular grid pruning method      GridPruning ... 4 (adaptive)
Weight generation scheme         WeightScheme... Becke
Basis function cutoff            BFCut       ... 1.0000e-11
Integration weight cutoff        WCut        ... 1.0000e-14
Angular grids for H and He will be reduced by one unit
Partially contracted basis set               ... on
Rotationally invariant grid construction     ... off

Total number of grid points                  ...     4033
Total number of batches                      ...       67
Average number of points per batch           ...       60
Average number of grid points per atom       ...      576
UseSFitting                                  ... on

GRIDX 2
-------
General Integration Accuracy     IntAcc      ... 4.020
Radial Grid Type                 RadialGrid  ... OptM3 with GC (2021)
Angular Grid (max. ang.)         AngularGrid ... 2 (Lebedev-110)
Angular grid pruning method      GridPruning ... 4 (adaptive)
Weight generation scheme         WeightScheme... Becke
Basis function cutoff            BFCut       ... 1.0000e-11
Integration weight cutoff        WCut        ... 1.0000e-14
Angular grids for H and He will be reduced by one unit
Partially contracted basis set               ... on
Rotationally invariant grid construction     ... off

Total number of grid points                  ...     8710
Total number of batches                      ...      140
Average number of points per batch           ...       62
Average number of grid points per atom       ...     1244
UseSFitting                                  ... on

GRIDX 3
-------
General Integration Accuracy     IntAcc      ... 4.338
Radial Grid Type                 RadialGrid  ... OptM3 with GC (2021)
Angular Grid (max. ang.)         AngularGrid ... 3 (Lebedev-194)
Angular grid pruning method      GridPruning ... 4 (adaptive)
Weight generation scheme         WeightScheme... Becke
Basis function cutoff            BFCut       ... 1.0000e-11
Integration weight cutoff        WCut        ... 1.0000e-14
Angular grids for H and He will be reduced by one unit
Partially contracted basis set               ... on
Rotationally invariant grid construction     ... off

Total number of grid points                  ...    19263
Total number of batches                      ...      304
Average number of points per batch           ...       63
Average number of grid points per atom       ...     2752
UseSFitting                                  ... on

Time for X-Grid setup             =    0.073 sec

--------------
SCF ITERATIONS
--------------
ITER       Energy         Delta-E        Max-DP      RMS-DP      [F,P]     Damp
               ***  Starting incremental Fock matrix formation  ***
                      *** Initiating the SOSCF procedure ***
                      *** Re-Reading the Fockian *** 
                      *** Removing any level shift *** 
ITER      Energy       Delta-E        Grad      Rot      Max-DP    RMS-DP
  0   -153.53480998 -153.5348099772  0.000002  0.000002  0.000004  0.000000
               *** Restarting incremental Fock matrix formation ***
                  ***Gradient check signals convergence***
              ***Rediagonalizing the Fockian in SOSCF/NRSCF***

               *****************************************************
               *                     SUCCESS                       *
               *           SCF CONVERGED AFTER   1 CYCLES          *
               *****************************************************

Old exchange energy                            =     -4.961884860 Eh
New exchange energy                            =     -4.961888205 Eh
Exchange energy change after final integration =     -0.000003345 Eh
Total energy after final integration           =   -153.534813323 Eh
Final COS-X integration done in                =     0.266 sec

----------------
TOTAL SCF ENERGY
----------------

Total Energy       :         -153.53481332 Eh           -4177.89467 eV

Components:
Nuclear Repulsion  :           68.31179348 Eh            1858.85840 eV
Electronic Energy  :         -221.84660681 Eh           -6036.75307 eV
One Electron Energy:         -343.36839671 Eh           -9343.52909 eV
Two Electron Energy:          121.52178991 Eh            3306.77602 eV
Max COSX asymmetry :            0.00000143 Eh               0.00004 eV

Virial components:
Potential Energy   :         -306.38112653 Eh           -8337.05430 eV
Kinetic Energy     :          152.84631321 Eh            4159.15963 eV
Virial Ratio       :            2.00450453


DFT components:
N(Alpha)           :       12.000006853647 electrons
N(Beta)            :       12.000006853647 electrons
N(Total)           :       24.000013707295 electrons
E(X)               :      -14.896583584902 Eh       
E(C)               :       -0.770914266785 Eh       
E(XC)              :      -15.667497851687 Eh       
DFET-embed. en.    :        0.000000000000 Eh       

---------------
SCF CONVERGENCE
---------------

  Last Energy change         ...   -1.2372e-10  Tolerance :   1.0000e-08
  Last MAX-Density change    ...    1.3323e-15  Tolerance :   1.0000e-07
  Last RMS-Density change    ...    2.5243e-17  Tolerance :   5.0000e-09
  Last Orbital Gradient      ...    1.0948e-06  Tolerance :   1.0000e-05
  Last Orbital Rotation      ...    3.1608e-06  Tolerance :   1.0000e-05

             **** THE GBW FILE WAS UPDATED (ox_es1_D_orca0004.gbw) ****
             **** DENSITY ox_es1_D_orca0004.scfp WAS UPDATED ****
             **** ENERGY FILE WAS UPDATED (ox_es1_D_orca0004.en.tmp) ****
             **** THE GBW FILE WAS UPDATED (ox_es1_D_orca0004.gbw) ****
             **** DENSITY ox_es1_D_orca0004.scfp WAS UPDATED ****
----------------
ORBITAL ENERGIES
----------------

  NO   OCC          E(Eh)            E(eV) 
   0   2.0000     -19.212091      -522.7876 
   1   2.0000     -10.308455      -280.5073 
   2   2.0000     -10.271624      -279.5051 
   3   2.0000      -0.979133       -26.6436 
   4   2.0000      -0.763517       -20.7764 
   5   2.0000      -0.656512       -17.8646 
   6   2.0000      -0.526815       -14.3354 
   7   2.0000      -0.482101       -13.1186 
   8   2.0000      -0.424807       -11.5596 
   9   2.0000      -0.383204       -10.4275 
  10   2.0000      -0.290209        -7.8970 
  11   2.0000      -0.268545        -7.3075 
  12   0.0000      -0.112422        -3.0592 
  13   0.0000       0.056512         1.5378 
  14   0.0000       0.080958         2.2030 
  15   0.0000       0.094156         2.5621 
  16   0.0000       0.107104         2.9144 
  17   0.0000       0.151616         4.1257 
  18   0.0000       0.182303         4.9607 
  19   0.0000       0.185034         5.0350 
  20   0.0000       0.237836         6.4719 
  21   0.0000       0.262914         7.1542 
  22   0.0000       0.272538         7.4161 
  23   0.0000       0.307733         8.3738 
  24   0.0000       0.349975         9.5233 
  25   0.0000       0.381686        10.3862 
  26   0.0000       0.406331        11.0568 
  27   0.0000       0.425292        11.5728 
  28   0.0000       0.441600        12.0165 
  29   0.0000       0.492148        13.3920 
  30   0.0000       0.514592        14.0028 
  31   0.0000       0.530512        14.4360 
  32   0.0000       0.595853        16.2140 
  33   0.0000       0.625123        17.0105 
  34   0.0000       0.659157        17.9366 
  35   0.0000       0.732967        19.9450 
  36   0.0000       0.807982        21.9863 
  37   0.0000       0.863937        23.5089 
  38   0.0000       0.886673        24.1276 
  39   0.0000       0.903336        24.5810 
  40   0.0000       0.942478        25.6461 
  41   0.0000       1.023352        27.8468 
  42   0.0000       1.031644        28.0725 
  43   0.0000       1.059539        28.8315 
  44   0.0000       1.146810        31.2063 
  45   0.0000       1.318934        35.8900 
  46   0.0000       1.379701        37.5436 
  47   0.0000       1.447088        39.3773 
  48   0.0000       1.489799        40.5395 
  49   0.0000       1.528138        41.5828 
  50   0.0000       1.590113        43.2692 
  51   0.0000       1.603513        43.6338 
  52   0.0000       1.621047        44.1109 
  53   0.0000       1.698371        46.2150 
  54   0.0000       1.708204        46.4826 
  55   0.0000       1.789194        48.6865 
  56   0.0000       1.812828        49.3295 
  57   0.0000       1.858429        50.5704 
  58   0.0000       1.897641        51.6374 
  59   0.0000       1.907890        51.9163 
  60   0.0000       2.005972        54.5853 
  61   0.0000       2.076368        56.5008 
  62   0.0000       2.128149        57.9099 
  63   0.0000       2.190032        59.5938 
  64   0.0000       2.349992        63.9465 
  65   0.0000       2.358318        64.1731 
  66   0.0000       2.396473        65.2113 
  67   0.0000       2.469625        67.2019 
  68   0.0000       2.503074        68.1121 
  69   0.0000       2.532685        68.9179 
  70   0.0000       2.551257        69.4232 
  71   0.0000       2.647700        72.0476 
  72   0.0000       2.671128        72.6851 
  73   0.0000       2.748313        74.7854 
  74   0.0000       2.793404        76.0124 
  75   0.0000       2.802993        76.2733 
  76   0.0000       2.885079        78.5070 
  77   0.0000       2.898431        78.8703 
  78   0.0000       2.960256        80.5527 
  79   0.0000       2.986826        81.2757 
  80   0.0000       3.041035        82.7508 
  81   0.0000       3.077115        83.7326 
  82   0.0000       3.112970        84.7082 
  83   0.0000       3.147949        85.6600 
  84   0.0000       3.197589        87.0108 
  85   0.0000       3.212633        87.4202 
  86   0.0000       3.379511        91.9612 
  87   0.0000       3.404187        92.6326 
  88   0.0000       3.432438        93.4014 
  89   0.0000       3.499620        95.2295 
  90   0.0000       3.547946        96.5445 
  91   0.0000       3.701421       100.7208 
  92   0.0000       3.721618       101.2704 
  93   0.0000       3.782948       102.9392 
  94   0.0000       3.918734       106.6342 
  95   0.0000       3.990652       108.5912 
  96   0.0000       4.084290       111.1392 
  97   0.0000       4.364770       118.7714 
  98   0.0000       4.460734       121.3827 
  99   0.0000       4.575291       124.5000 
 100   0.0000       4.593053       124.9833 
 101   0.0000       4.838592       131.6648 
 102   0.0000       5.209801       141.7659 
 103   0.0000       5.250410       142.8709 
 104   0.0000       5.325166       144.9051 
 105   0.0000       5.331364       145.0738 
 106   0.0000       5.640099       153.4749 
 107   0.0000       5.681797       154.6096 
 108   0.0000       5.852508       159.2548 
 109   0.0000       6.358741       173.0301 
 110   0.0000       6.433065       175.0526 
 111   0.0000       6.732555       183.2021 
 112   0.0000       6.776093       184.3869 
 113   0.0000       6.990289       190.2154 
 114   0.0000      22.165390       603.1509 
 115   0.0000      22.402802       609.6112 
 116   0.0000      43.650455      1187.7893 

                    ********************************
                    * MULLIKEN POPULATION ANALYSIS *
                    ********************************

-----------------------
MULLIKEN ATOMIC CHARGES
-----------------------
   0 O :   -0.377560
   1 C :   -0.032842
   2 C :   -0.146249
   3 H :    0.104692
   4 H :    0.134181
   5 H :    0.155830
   6 H :    0.161949
Sum of atomic charges:    0.0000000

--------------------------------
MULLIKEN REDUCED ORBITAL CHARGES
--------------------------------
  0 O s       :     3.921751  s :     3.921751
      pz      :     1.916981  p :     4.434410
      px      :     1.275298
      py      :     1.242131
      dz2     :     0.002929  d :     0.020386
      dxz     :     0.000237
      dyz     :     0.004143
      dx2y2   :     0.007451
      dxy     :     0.005626
      f0      :     0.000119  f :     0.001014
      f+1     :     0.000053
      f-1     :     0.000256
      f+2     :     0.000124
      f-2     :     0.000020
      f+3     :     0.000190
      f-3     :     0.000251
  1 C s       :     3.189712  s :     3.189712
      pz      :     1.061295  p :     2.701448
      px      :     0.910034
      py      :     0.730119
      dz2     :     0.011960  d :     0.132708
      dxz     :     0.015555
      dyz     :     0.040561
      dx2y2   :     0.022142
      dxy     :     0.042490
      f0      :     0.001582  f :     0.008975
      f+1     :     0.001115
      f-1     :     0.000871
      f+2     :     0.002202
      f-2     :     0.000166
      f+3     :     0.001972
      f-3     :     0.001067
  2 C s       :     3.294503  s :     3.294503
      pz      :     1.046102  p :     2.796519
      px      :     0.980795
      py      :     0.769622
      dz2     :     0.007836  d :     0.050554
      dxz     :     0.018206
      dyz     :     0.005504
      dx2y2   :     0.006238
      dxy     :     0.012770
      f0      :     0.000700  f :     0.004674
      f+1     :     0.001116
      f-1     :     0.000122
      f+2     :     0.000547
      f-2     :     0.000280
      f+3     :     0.000890
      f-3     :     0.001019
  3 H s       :     0.876800  s :     0.876800
      pz      :     0.010342  p :     0.018507
      px      :     0.004532
      py      :     0.003634
  4 H s       :     0.840974  s :     0.840974
      pz      :     0.010723  p :     0.024845
      px      :     0.007775
      py      :     0.006347
  5 H s       :     0.821566  s :     0.821566
      pz      :     0.011730  p :     0.022605
      px      :     0.006461
      py      :     0.004414
  6 H s       :     0.812578  s :     0.812578
      pz      :     0.012348  p :     0.025473
      px      :     0.007320
      py      :     0.005806


                     *******************************
                     * LOEWDIN POPULATION ANALYSIS *
                     *******************************

----------------------
LOEWDIN ATOMIC CHARGES
----------------------
   0 O :   -0.098760
   1 C :   -0.310997
   2 C :   -0.011203
   3 H :    0.135099
   4 H :    0.057111
   5 H :    0.135630
   6 H :    0.093122

-------------------------------
LOEWDIN REDUCED ORBITAL CHARGES
-------------------------------
  0 O s       :     3.613852  s :     3.613852
      pz      :     1.856953  p :     4.438588
      px      :     1.236251
      py      :     1.345385
      dz2     :     0.006244  d :     0.043697
      dxz     :     0.000316
      dyz     :     0.009927
      dx2y2   :     0.015663
      dxy     :     0.011547
      f0      :     0.000242  f :     0.002623
      f+1     :     0.000072
      f-1     :     0.000482
      f+2     :     0.000482
      f-2     :     0.000027
      f+3     :     0.000711
      f-3     :     0.000607
  1 C s       :     2.828916  s :     2.828916
      pz      :     1.075439  p :     2.921841
      px      :     1.024744
      py      :     0.821658
      dz2     :     0.065680  d :     0.501976
      dxz     :     0.079489
      dyz     :     0.109565
      dx2y2   :     0.120247
      dxy     :     0.126994
      f0      :     0.008385  f :     0.058265
      f+1     :     0.005078
      f-1     :     0.007096
      f+2     :     0.011607
      f-2     :     0.001795
      f+3     :     0.011793
      f-3     :     0.012511
  2 C s       :     2.901892  s :     2.901892
      pz      :     1.087650  p :     2.879664
      px      :     1.076577
      py      :     0.715437
      dz2     :     0.036240  d :     0.207812
      dxz     :     0.083719
      dyz     :     0.013425
      dx2y2   :     0.036779
      dxy     :     0.037649
      f0      :     0.003654  f :     0.021836
      f+1     :     0.003508
      f-1     :     0.001326
      f+2     :     0.003031
      f-2     :     0.001614
      f+3     :     0.004053
      f-3     :     0.004649
  3 H s       :     0.814824  s :     0.814824
      pz      :     0.028293  p :     0.050078
      px      :     0.012161
      py      :     0.009624
  4 H s       :     0.848581  s :     0.848581
      pz      :     0.043160  p :     0.094309
      px      :     0.028825
      py      :     0.022323
  5 H s       :     0.799336  s :     0.799336
      pz      :     0.034504  p :     0.065034
      px      :     0.018142
      py      :     0.012388
  6 H s       :     0.822687  s :     0.822687
      pz      :     0.042289  p :     0.084191
      px      :     0.023591
      py      :     0.018311


                      *****************************
                      * MAYER POPULATION ANALYSIS *
                      *****************************

  NA   - Mulliken gross atomic population
  ZA   - Total nuclear charge
  QA   - Mulliken gross atomic charge
  VA   - Mayer's total valence
  BVA  - Mayer's bonded valence
  FA   - Mayer's free valence

  ATOM       NA         ZA         QA         VA         BVA        FA
  0 O      8.3776     8.0000    -0.3776     1.8595     1.8595    -0.0000
  1 C      6.0328     6.0000    -0.0328     3.9944     3.9944    -0.0000
  2 C      6.1462     6.0000    -0.1462     3.8319     3.8319    -0.0000
  3 H      0.8953     1.0000     0.1047     0.9672     0.9672    -0.0000
  4 H      0.8658     1.0000     0.1342     0.9575     0.9575     0.0000
  5 H      0.8442     1.0000     0.1558     0.9624     0.9624    -0.0000
  6 H      0.8381     1.0000     0.1619     0.9586     0.9586    -0.0000

  Mayer bond orders larger than 0.100000
B(  0-O ,  1-C ) :   0.9915 B(  0-O ,  2-C ) :   0.8674 B(  1-C ,  2-C ) :   1.0616 
B(  1-C ,  3-H ) :   0.9660 B(  1-C ,  4-H ) :   0.9717 B(  2-C ,  5-H ) :   0.9521 
B(  2-C ,  6-H ) :   0.9499 

-------
TIMINGS
-------

Total SCF time: 0 days 0 hours 0 min 1 sec 

Total time                  ....       1.025 sec
Sum of individual times     ....       0.925 sec  ( 90.2%)

Fock matrix formation       ....       0.715 sec  ( 69.7%)
  Split-RI-J                ....       0.126 sec  ( 17.7% of F)
  Chain of spheres X        ....       0.524 sec  ( 73.3% of F)
  XC integration            ....       0.063 sec  (  8.8% of F)
    Basis function eval.    ....       0.018 sec  ( 28.3% of XC)
    Density eval.           ....       0.014 sec  ( 21.6% of XC)
    XC-Functional eval.     ....       0.004 sec  (  5.9% of XC)
    XC-Potential eval.      ....       0.021 sec  ( 33.1% of XC)
Diagonalization             ....       0.002 sec  (  0.2%)
Density matrix formation    ....       0.000 sec  (  0.0%)
Population analysis         ....       0.003 sec  (  0.3%)
Initial guess               ....       0.010 sec  (  1.0%)
Orbital Transformation      ....       0.000 sec  (  0.0%)
Orbital Orthonormalization  ....       0.001 sec  (  0.1%)
DIIS solution               ....       0.001 sec  (  0.1%)
SOSCF solution              ....       0.002 sec  (  0.2%)
Grid generation             ....       0.191 sec  ( 18.7%)

Maximum memory used throughout the entire SCF-calculation: 61.1 MB


           ************************************************************
           *        Program running with 8 parallel MPI-processes     *
           *              working on a common directory               *
           ************************************************************
------------------------------------------------------------------------------
                        ORCA TD-DFT/TDA CALCULATION
------------------------------------------------------------------------------

Input orbitals are from        ... ox_es1_D_orca0004.gbw
CI-vector output               ... ox_es1_D_orca0004.cis
Tamm-Dancoff approximation     ... operative
CIS-Integral strategy          ... AO-integrals
Integral handling              ... AO integral Direct
Max. core memory used          ... 3000 MB
Reference state                ... RHF
Generation of triplets         ... off
Follow IRoot                   ... off
Number of operators            ... 1
Orbital ranges used for CIS calculation:
 Operator 0:  Orbitals   3... 11  to  12...116
XAS localization array:
 Operator 0:  Orbitals  -1... -1

-------------------
XC-INTEGRATION GRID
-------------------

General Integration Accuracy     IntAcc      ... 3.467
Radial Grid Type                 RadialGrid  ... OptM3 with GC (2021)
Angular Grid (max. ang.)         AngularGrid ... 1 (Lebedev-50)
Angular grid pruning method      GridPruning ... 4 (adaptive)
Weight generation scheme         WeightScheme... Becke
Basis function cutoff            BFCut       ... 1.0000e-11
Integration weight cutoff        WCut        ... 1.0000e-14
Angular grids for H and He will be reduced by one unit
Partially contracted basis set               ... off
Rotationally invariant grid construction     ... off

Total number of grid points                  ...     4535
Total number of batches                      ...       75
Average number of points per batch           ...       60
Average number of grid points per atom       ...      648

---------------------
COSX-INTEGRATION GRID
---------------------

General Integration Accuracy     IntAcc      ... 3.067
Radial Grid Type                 RadialGrid  ... OptM3 with GC (2021)
Angular Grid (max. ang.)         AngularGrid ... 1 (Lebedev-50)
Angular grid pruning method      GridPruning ... 4 (adaptive)
Weight generation scheme         WeightScheme... Becke
Basis function cutoff            BFCut       ... 1.0000e-11
Integration weight cutoff        WCut        ... 1.0000e-14
Angular grids for H and He will be reduced by one unit
Partially contracted basis set               ... on
Rotationally invariant grid construction     ... off

Total number of grid points                  ...     2085
Total number of batches                      ...       37
Average number of points per batch           ...       56
Average number of grid points per atom       ...      298

---------------
TD-DFT XC SETUP
---------------

DFT calculation                         ... on
Name of the grid file                   ... ox_es1_D_orca0004.grid_cis.tmp
Exchange functional (TD-DFT)            ... PBE
   PBE kappa parameter  XKappa (TD-DFT) ...  0.804000
   PBE mue parameter   XMuePBE (TD-DFT) ...  0.219520
Correlation functional (TD-DFT)         ... PBE
   PBE beta parameter CBetaPBE (TD-DFT) ...  0.066725
 LDA part of GGA corr.  LDAOpt (TD-DFT) ... PW91-LDA
Hybrid DFT                              ... on
   Exchange mixing (TD-DFT)             ...  0.250
   GGA exch. scaling (TD-DFT)           ...  0.750
   GGA corr. scaling (TD-DFT)           ...  1.000

Building densities             ... done
Calculating rho(r) on the grid ... done
Building xc-kernel on the grid ... done
                    *** TD-DFT CALCULATION INITIALIZED ***

------------------------
DAVIDSON-DIAGONALIZATION
------------------------

Dimension of the eigenvalue problem            ...    945
Number of roots to be determined               ...      1
Maximum size of the expansion space            ...     10
Maximum number of iterations                   ...    100
Convergence tolerance for the residual         ...    2.500e-07
Convergence tolerance for the energies         ...    2.500e-07
Orthogonality tolerance                        ...    1.000e-14
Level Shift                                    ...    0.000e+00
Constructing the preconditioner                ... o.k.
Building the initial guess                     ... o.k.
Number of trial vectors determined             ...     10


                       ****Iteration    0****

   Memory handling for direct AO based CIS:
   Memory per vector needed      ...     1 MB
   Memory needed                 ...     1 MB
   Memory available              ...  3000 MB
   Number of vectors per batch   ...  3000
   Number of batches             ...     1
   Time for densities:            0.001
   Time for RI-J (Direct):        0.016
   Time for K (COSX):             0.061
   Time for XC-Integration:       0.017
   Time for Sigma-Completion:     0.000
   Size of expansion space: 3
   Lowest Energy          :     0.073417864730
   Maximum Energy change  :     0.073417864730 (vector 0)
   Maximum residual norm  :     0.002979435765

                       ****Iteration    1****
   Time for densities:            0.000
   Time for RI-J (Direct):        0.014
   Time for K (COSX):             0.056
   Time for XC-Integration:       0.007
   Time for Sigma-Completion:     0.000
   Size of expansion space: 4
   Lowest Energy          :     0.071356230164
   Maximum Energy change  :     0.002061634566 (vector 0)
   Maximum residual norm  :     0.000056129776

                       ****Iteration    2****
   Time for densities:            0.000
   Time for RI-J (Direct):        0.014
   Time for K (COSX):             0.057
   Time for XC-Integration:       0.007
   Time for Sigma-Completion:     0.000
   Size of expansion space: 5
   Lowest Energy          :     0.071317287221
   Maximum Energy change  :     0.000038942942 (vector 0)
   Maximum residual norm  :     0.000003256107

                       ****Iteration    3****
   Time for densities:            0.000
   Time for RI-J (Direct):        0.014
   Time for K (COSX):             0.057
   Time for XC-Integration:       0.007
   Time for Sigma-Completion:     0.000
   Size of expansion space: 6
   Lowest Energy          :     0.071314693130
   Maximum Energy change  :     0.000002594092 (vector 0)
   Maximum residual norm  :     0.000000193876

      *** CONVERGENCE OF RESIDUAL NORM REACHED ***

Storing the converged CI vectors               ... ox_es1_D_orca0004.cis1

                 *** DAVIDSON DONE ***

Total time for solving the CIS problem:     0.332sec

------------------------------------
TD-DFT/TDA EXCITED STATES (SINGLETS)
------------------------------------

the weight of the individual excitations are printed if larger than 1.0e-02

STATE  1:  E=   0.071315 au      1.941 eV    15651.8 cm**-1 <S**2> =   0.000000
    10a ->  12a  :     0.050986 (c= -0.22579985)
    11a ->  12a  :     0.944812 (c=  0.97201433)


-----------------------------
TD-DFT/TDA-EXCITATION SPECTRA
-----------------------------

Center of mass = ( -0.5653,  0.0850, -0.0428)
Calculating the Dipole integrals                  ... done
Transforming integrals                            ... done
Calculating the Linear Momentum integrals         ... done
Transforming integrals                            ... done
Calculating angular momentum integrals            ... done
Transforming integrals                            ... done

-----------------------------------------------------------------------------
         ABSORPTION SPECTRUM VIA TRANSITION ELECTRIC DIPOLE MOMENTS
-----------------------------------------------------------------------------
State   Energy    Wavelength  fosc         T2        TX        TY        TZ  
        (cm-1)      (nm)                 (au**2)    (au)      (au)      (au) 
-----------------------------------------------------------------------------
   1   15651.8    638.9   0.000396934   0.00835   0.03788  -0.01065  -0.08246

-----------------------------------------------------------------------------
         ABSORPTION SPECTRUM VIA TRANSITION VELOCITY DIPOLE MOMENTS
-----------------------------------------------------------------------------
State   Energy    Wavelength   fosc        P2         PX        PY        PZ  
        (cm-1)      (nm)                 (au**2)     (au)      (au)      (au) 
-----------------------------------------------------------------------------
   1   15651.8    638.9   0.009730295   0.00104   0.00570  -0.01259   0.02915

-------------------------------------------------------------------
                             CD SPECTRUM
-------------------------------------------------------------------
State  Energy     Wavelength     R         MX        MY        MZ   
       (cm-1)       (nm)     (1e40*cgs)   (au)      (au)      (au)  
-------------------------------------------------------------------
   1   15651.8    638.9     -2.10438   0.04314   0.28759   0.03681

-------------------------------------------------------------------
         CD SPECTRUM VIA TRANSITION VELOCITY DIPOLE MOMENTS        
-------------------------------------------------------------------
State  Energy     Wavelength     R         MX        MY        MZ   
       (cm-1)       (nm)     (1e40*cgs)   (au)      (au)      (au)  
-------------------------------------------------------------------
   1   15651.8    638.9    -15.21008   0.04314   0.28759   0.03681

Total run time:        0.619 sec

           *** ORCA-CIS/TD-DFT FINISHED WITHOUT ERROR ***

Maximum memory used throughout the entire CIS-calculation: 49.4 MB

-----------------------
CIS/TD-DFT TOTAL ENERGY
-----------------------

    E(SCF)  =   -153.534813323 Eh
    DE(CIS) =      0.071314693 Eh (Root  1)
    ----------------------------- ---------
    E(tot)  =   -153.463498630 Eh



-------------------------------------------------------------------------------
                          DFT DISPERSION CORRECTION                            
                                                                               
                              DFTD3 V3.1  Rev 1                                
                          USING Becke-Johnson damping                          
-------------------------------------------------------------------------------
The PBE0 functional is recognized
Active option DFTDOPT                   ...         4   

molecular C6(AA) [au] = 393.774260 


            DFT-D V3
 parameters
 s6 scaling factor         :     1.0000 
 a1 scaling factor         :     0.4145 
 s8 scaling factor         :     1.2177 
 a2 scaling factor         :     4.8593 
 ad hoc parameters k1-k3   :    16.0000     1.3333    -4.0000 

 Edisp/kcal,au: -1.663332123088  -0.002650688180 
 E6   /kcal   :  -1.086131033 
 E8   /kcal   :  -0.577201090 
 % E8         :  34.701493569 

-------------------------   ----------------
Dispersion correction           -0.002650688
-------------------------   ----------------


-------------------------   --------------------
FINAL SINGLE POINT ENERGY      -153.466149317831
-------------------------   --------------------



           ************************************************************
           *        Program running with 8 parallel MPI-processes     *
           *              working on a common directory               *
           ************************************************************
------------------------------------------------------------------------------
                         ORCA SCF GRADIENT CALCULATION
------------------------------------------------------------------------------


------------------------
TD-DFT GRADIENT XC SETUP
------------------------

Building densities                     ... done
Calculating rho(r) on the grid         ... done
Building xc-kernel on the grid         ... done
Building xc 3rd derivative on the grid      ... done
                *** TD-DFT GRADIENT CALCULATION INITIALIZED ***

-------------------
TD-DFT/TDA GRADIENT
-------------------

Reference wavefunction             ... RHF
State of interest                  ... 1
Basis dimension                    ... 117
DFT-XC contribution needed         ... YES
RI-approximation                   ... ON
CIS-vectors being read from        ... ox_es1_D_orca0004.cis

 => Number of Vectors found: 1
 => Orbital Window: 3...11 -> 12...116

Reading the CIS file                     ... done
Norm of the CI vector                    ... 1.000000000
Making the CIS (pseudo)densities         ... done
Making operators G(D) and Q(T)           ... done
Transforming the Fock operators          ... done
Making the frozen-core relaxed density   ... done
Constructing the G(H) operator           ... done
Transforming the G(H) operator           ... done
Calculating the CIS Lagrangian           ... done
Solving the Z-vector equations           ... done
Finalizing the relaxed density           ... done
Storing the relaxed density              ... done
Constructing the G(Z) operator           ... done
Transforming the G(Z) operator           ... done
Making the W-matrix                      ... done
Finalizing the W-matrix                  ... done
Transforming the W-matrix                ... done
Nuclear repulsion gradient               ... done
One-Electron gradient                    ... done
Dispersion correction                    ... done
Prescreening matrices                    ... done
COSX-gradient                            ... done
Coulomb gradient (RI)                    ... done
Exchange-Correlation gradient            ... done

                 ---------------------------
                 EXCITED STATE GRADIENT DONE
                 ---------------------------

------------------
CARTESIAN GRADIENT
------------------

   1   O   :    0.027841763    0.024233291    0.005655044
   2   C   :   -0.148661616   -0.115623595   -0.219973581
   3   C   :    0.076117524    0.039497855    0.105705535
   4   H   :   -0.001079536   -0.001374684    0.034969488
   5   H   :    0.092487360    0.053672358    0.159678605
   6   H   :   -0.009077986   -0.011390932   -0.011888441
   7   H   :   -0.037623841    0.010919633   -0.074151691

Difference to translation invariance:
           :    0.0000036678   -0.0000660720   -0.0000050420

Difference to rotation invariance:
           :    0.0001912052   -0.0000286345   -0.0002849566

Norm of the cartesian gradient     ...    0.3864247094
RMS gradient                       ...    0.0843247848
MAX gradient                       ...    0.2199735813

------------------------------------------------------------------------------
                  RELAXED CIS/TDA DENSITY POPULATION ANALYSIS
                                   IROOT 1
------------------------------------------------------------------------------
------------------------------------------------------------------------------
                           ORCA POPULATION ANALYSIS
------------------------------------------------------------------------------
Input electron density              ... ox_es1_D_orca0004.cisp
BaseName (.gbw .S,...)              ... ox_es1_D_orca0004

                    ********************************
                    * MULLIKEN POPULATION ANALYSIS *
                    ********************************

-----------------------
MULLIKEN ATOMIC CHARGES
-----------------------
   0 O :   -0.217218
   1 C :   -0.078211
   2 C :   -0.279029
   3 H :    0.150702
   4 H :    0.150362
   5 H :    0.130229
   6 H :    0.143165
Sum of atomic charges:   -0.0000000

--------------------------------
MULLIKEN REDUCED ORBITAL CHARGES
--------------------------------
  0 O s       :     3.907712  s :     3.907712
      pz      :     1.068355  p :     4.289429
      px      :     1.911811
      py      :     1.309263
      dz2     :     0.002466  d :     0.019399
      dxz     :     0.000232
      dyz     :     0.004511
      dx2y2   :     0.007452
      dxy     :     0.004738
      f0      :    -0.000012  f :     0.000677
      f+1     :    -0.000044
      f-1     :     0.000056
      f+2     :     0.000148
      f-2     :     0.000001
      f+3     :     0.000208
      f-3     :     0.000320
  1 C s       :     3.199477  s :     3.199477
      pz      :     1.047252  p :     2.753642
      px      :     0.984252
      py      :     0.722138
      dz2     :     0.010819  d :     0.116277
      dxz     :     0.018862
      dyz     :     0.018139
      dx2y2   :     0.023595
      dxy     :     0.044862
      f0      :     0.000879  f :     0.008815
      f+1     :     0.001170
      f-1     :     0.000639
      f+2     :     0.001310
      f-2     :     0.000157
      f+3     :     0.002731
      f-3     :     0.001929
  2 C s       :     3.306226  s :     3.306226
      pz      :     1.026938  p :     2.923830
      px      :     0.922697
      py      :     0.974194
      dz2     :     0.007082  d :     0.044432
      dxz     :     0.012539
      dyz     :     0.002636
      dx2y2   :     0.007489
      dxy     :     0.014686
      f0      :     0.000663  f :     0.004541
      f+1     :     0.000993
      f-1     :     0.000272
      f+2     :     0.000523
      f-2     :     0.000155
      f+3     :     0.001031
      f-3     :     0.000905
  3 H s       :     0.830370  s :     0.830370
      pz      :     0.010457  p :     0.018928
      px      :     0.004869
      py      :     0.003602
  4 H s       :     0.824519  s :     0.824519
      pz      :     0.011001  p :     0.025119
      px      :     0.008115
      py      :     0.006003
  5 H s       :     0.846521  s :     0.846521
      pz      :     0.010804  p :     0.023249
      px      :     0.006100
      py      :     0.006346
  6 H s       :     0.830194  s :     0.830194
      pz      :     0.011489  p :     0.026641
      px      :     0.006969
      py      :     0.008184


                     *******************************
                     * LOEWDIN POPULATION ANALYSIS *
                     *******************************

----------------------
LOEWDIN ATOMIC CHARGES
----------------------
   0 O :    0.034625
   1 C :   -0.286543
   2 C :   -0.185675
   3 H :    0.171492
   4 H :    0.068223
   5 H :    0.118197
   6 H :    0.079681

-------------------------------
LOEWDIN REDUCED ORBITAL CHARGES
-------------------------------
  0 O s       :     3.625901  s :     3.625901
      pz      :     1.044899  p :     4.291277
      px      :     1.846182
      py      :     1.400197
      dz2     :     0.006576  d :     0.045816
      dxz     :     0.000354
      dyz     :     0.009688
      dx2y2   :     0.014955
      dxy     :     0.014243
      f0      :     0.000228  f :     0.002381
      f+1     :     0.000019
      f-1     :     0.000299
      f+2     :     0.000401
      f-2     :     0.000021
      f+3     :     0.000742
      f-3     :     0.000670
  1 C s       :     2.832099  s :     2.832099
      pz      :     1.045692  p :     2.938443
      px      :     1.074944
      py      :     0.817807
      dz2     :     0.064346  d :     0.453870
      dxz     :     0.082178
      dyz     :     0.054718
      dx2y2   :     0.133070
      dxy     :     0.119557
      f0      :     0.005424  f :     0.062132
      f+1     :     0.005008
      f-1     :     0.006500
      f+2     :     0.007827
      f-2     :     0.001646
      f+3     :     0.017047
      f-3     :     0.018680
  2 C s       :     2.914880  s :     2.914880
      pz      :     1.079892  p :     3.029625
      px      :     1.048458
      py      :     0.901275
      dz2     :     0.038258  d :     0.218104
      dxz     :     0.078049
      dyz     :     0.008949
      dx2y2   :     0.037731
      dxy     :     0.055117
      f0      :     0.003592  f :     0.023065
      f+1     :     0.004000
      f-1     :     0.001719
      f+2     :     0.002829
      f-2     :     0.001350
      f+3     :     0.004767
      f-3     :     0.004810
  3 H s       :     0.777571  s :     0.777571
      pz      :     0.028321  p :     0.050938
      px      :     0.013175
      py      :     0.009442
  4 H s       :     0.836621  s :     0.836621
      pz      :     0.043496  p :     0.095155
      px      :     0.029911
      py      :     0.021749
  5 H s       :     0.814518  s :     0.814518
      pz      :     0.031746  p :     0.067285
      px      :     0.017375
      py      :     0.018164
  6 H s       :     0.832001  s :     0.832001
      pz      :     0.039403  p :     0.088318
      px      :     0.022802
      py      :     0.026113


                      *****************************
                      * MAYER POPULATION ANALYSIS *
                      *****************************

  NA   - Mulliken gross atomic population
  ZA   - Total nuclear charge
  QA   - Mulliken gross atomic charge
  VA   - Mayer's total valence
  BVA  - Mayer's bonded valence
  FA   - Mayer's free valence

  ATOM       NA         ZA         QA         VA         BVA        FA
  0 O      8.2172     8.0000    -0.2172     1.8968     1.1085     0.7884
  1 C      6.0782     6.0000    -0.0782     3.9993     3.9402     0.0591
  2 C      6.2790     6.0000    -0.2790     3.8821     3.1130     0.7692
  3 H      0.8493     1.0000     0.1507     0.9612     0.9051     0.0561
  4 H      0.8496     1.0000     0.1504     0.9609     0.9465     0.0144
  5 H      0.8698     1.0000     0.1302     0.9769     0.9660     0.0109
  6 H      0.8568     1.0000     0.1432     0.9750     0.9650     0.0100

  Mayer bond orders larger than 0.100000
B(  0-O ,  1-C ) :   0.9982 B(  0-O ,  2-C ) :   0.1019 B(  1-C ,  2-C ) :   1.0943 
B(  1-C ,  3-H ) :   0.8964 B(  1-C ,  4-H ) :   0.9524 B(  2-C ,  5-H ) :   0.9607 
B(  2-C ,  6-H ) :   0.9592 


-------
TIMINGS
-------

Total TD-DFT gradient time         ...        5.721 sec

Fock matrix formation       ....       0.920 sec  ( 16.1%)
  Coulomb formation         ....       0.746 sec  ( 81.0% of F)
  RI-J                      ....       0.325 sec  ( 35.3% of F)
  Chain of spheres X        ....       0.420 sec  ( 45.7% of F)
  XC integration            ....       0.175 sec  ( 19.0% of F)
Z-vector equation           ....       1.824 sec  ( 31.9%)
One electron gradient       ....       0.036 sec  (  0.6%)
Prescreening matrices       ....       0.170 sec  (  3.0%)
RI-J Coulomb gradient       ....       0.278 sec  (  4.9%)
COSX gradient               ....       0.391 sec  (  6.8%)
XC gradient                 ....       1.759 sec  ( 30.8%)

Maximum memory used throughout the entire SCFGRAD-calculation: 130.2 MB

                            ***************************************
                            *     ORCA property calculations      *
                            ***************************************

                                    ---------------------
                                    Active property flags
                                    ---------------------
   (+) Dipole Moment


------------------------------------------------------------------------------
                       ORCA ELECTRIC PROPERTIES CALCULATION
------------------------------------------------------------------------------

Dipole Moment Calculation                       ... on
Quadrupole Moment Calculation                   ... off
Polarizability Calculation                      ... off
GBWName                                         ... ox_es1_D_orca0004.gbw
Electron density                                ... ox_es1_D_orca0004.scfp
The origin for moment calculation is the CENTER OF MASS  = (-0.565304,  0.084984 -0.042814)

-------------
DIPOLE MOMENT
-------------
                                X             Y             Z
Electronic contribution:     -0.53059       1.53266      -0.12124
Nuclear contribution   :      1.06331      -2.76313       0.02368
                        -----------------------------------------
Total Dipole Moment    :      0.53271      -1.23047      -0.09755
                        -----------------------------------------
Magnitude (a.u.)       :      1.34438
Magnitude (Debye)      :      3.41714



--------------------
Rotational spectrum 
--------------------
 
Rotational constants in cm-1:     0.990355     0.436125     0.344781 
Rotational constants in MHz : 29690.098622 13074.704146 10336.273828 

 Dipole components along the rotational axes: 
x,y,z [a.u.] :     1.202897    -0.599991    -0.020072 
x,y,z [Debye]:     3.057520    -1.525056    -0.051020 

 

                        *** CIS RELAXED DENSITY ***

------------------------------------------------------------------------------
                       ORCA ELECTRIC PROPERTIES CALCULATION
------------------------------------------------------------------------------

Dipole Moment Calculation                       ... on
Quadrupole Moment Calculation                   ... off
Polarizability Calculation                      ... off
GBWName                                         ... ox_es1_D_orca0004.gbw
Electron density                                ... ox_es1_D_orca0004.cisp
The origin for moment calculation is the CENTER OF MASS  = (-0.565304,  0.084984 -0.042814)

-------------
DIPOLE MOMENT
-------------
                                X             Y             Z
Electronic contribution:     -1.13584       1.86402      -0.07553
Nuclear contribution   :      1.06331      -2.76313       0.02368
                        -----------------------------------------
Total Dipole Moment    :     -0.07253      -0.89910      -0.05185
                        -----------------------------------------
Magnitude (a.u.)       :      0.90351
Magnitude (Debye)      :      2.29655



--------------------
Rotational spectrum 
--------------------
 
Rotational constants in cm-1:     0.990355     0.436125     0.344781 
Rotational constants in MHz : 29690.098622 13074.704146 10336.273828 

 Dipole components along the rotational axes: 
x,y,z [a.u.] :     0.526613    -0.733326     0.035355 
x,y,z [Debye]:     1.338544    -1.863966     0.089866 

 

Timings for individual modules:

Sum of individual times         ...        8.138 sec (=   0.136 min)
GTO integral calculation        ...        0.242 sec (=   0.004 min)   3.0 %
SCF iterations                  ...        1.181 sec (=   0.020 min)  14.5 %
CIS module                      ...        0.832 sec (=   0.014 min)  10.2 %
SCF Gradient evaluation         ...        5.883 sec (=   0.098 min)  72.3 %
                             ****ORCA TERMINATED NORMALLY****
TOTAL RUN TIME: 0 days 0 hours 0 minutes 8 seconds 479 msec
