
                                 *****************
                                 * O   R   C   A *
                                 *****************

                                            #,                                       
                                            ###                                      
                                            ####                                     
                                            #####                                    
                                            ######                                   
                                           ########,                                 
                                     ,,################,,,,,                         
                               ,,#################################,,                 
                          ,,##########################################,,             
                       ,#########################################, ''#####,          
                    ,#############################################,,   '####,        
                  ,##################################################,,,,####,       
                ,###########''''           ''''###############################       
              ,#####''   ,,,,##########,,,,          '''####'''          '####       
            ,##' ,,,,###########################,,,                        '##       
           ' ,,###''''                  '''############,,,                           
         ,,##''                                '''############,,,,        ,,,,,,###''
      ,#''                                            '''#######################'''  
     '                                                          ''''####''''         
             ,#######,   #######,   ,#######,      ##                                
            ,#'     '#,  ##    ##  ,#'     '#,    #''#        ######   ,####,        
            ##       ##  ##   ,#'  ##            #'  '#       #        #'  '#        
            ##       ##  #######   ##           ,######,      #####,   #    #        
            '#,     ,#'  ##    ##  '#,     ,#' ,#      #,         ##   #,  ,#        
             '#######'   ##     ##  '#######'  #'      '#     #####' # '####'        



                  #######################################################
                  #                        -***-                        #
                  #          Department of theory and spectroscopy      #
                  #    Directorship and core code : Frank Neese         #
                  #        Max Planck Institute fuer Kohlenforschung    #
                  #                Kaiser Wilhelm Platz 1               #
                  #                 D-45470 Muelheim/Ruhr               #
                  #                      Germany                        #
                  #                                                     #
                  #                  All rights reserved                #
                  #                        -***-                        #
                  #######################################################


                         Program Version 5.0.2 -  RELEASE  -


 With contributions from (in alphabetic order):
   Daniel Aravena         : Magnetic Suceptibility
   Michael Atanasov       : Ab Initio Ligand Field Theory (pilot matlab implementation)
   Alexander A. Auer      : GIAO ZORA, VPT2 properties, NMR spectrum
   Ute Becker             : Parallelization
   Giovanni Bistoni       : ED, misc. LED, open-shell LED, HFLD
   Martin Brehm           : Molecular dynamics
   Dmytro Bykov           : SCF Hessian
   Vijay G. Chilkuri      : MRCI spin determinant printing, contributions to CSF-ICE
   Dipayan Datta          : RHF DLPNO-CCSD density
   Achintya Kumar Dutta   : EOM-CC, STEOM-CC
   Dmitry Ganyushin       : Spin-Orbit,Spin-Spin,Magnetic field MRCI
   Miquel Garcia          : C-PCM and meta-GGA Hessian, CC/C-PCM, Gaussian charge scheme
   Yang Guo               : DLPNO-NEVPT2, F12-NEVPT2, CIM, IAO-localization
   Andreas Hansen         : Spin unrestricted coupled pair/coupled cluster methods
   Benjamin Helmich-Paris : MC-RPA, TRAH-SCF, COSX integrals
   Lee Huntington         : MR-EOM, pCC
   Robert Izsak           : Overlap fitted RIJCOSX, COSX-SCS-MP3, EOM
   Marcus Kettner         : VPT2
   Christian Kollmar      : KDIIS, OOCD, Brueckner-CCSD(T), CCSD density, CASPT2, CASPT2-K
   Simone Kossmann        : Meta GGA functionals, TD-DFT gradient, OOMP2, MP2 Hessian
   Martin Krupicka        : Initial AUTO-CI
   Lucas Lang             : DCDCAS
   Marvin Lechner         : AUTO-CI (C++ implementation), FIC-MRCC
   Dagmar Lenk            : GEPOL surface, SMD
   Dimitrios Liakos       : Extrapolation schemes; Compound Job, initial MDCI parallelization
   Dimitrios Manganas     : Further ROCIS development; embedding schemes
   Dimitrios Pantazis     : SARC Basis sets
   Anastasios Papadopoulos: AUTO-CI, single reference methods and gradients
   Taras Petrenko         : DFT Hessian,TD-DFT gradient, ASA, ECA, R-Raman, ABS, FL, XAS/XES, NRVS
   Peter Pinski           : DLPNO-MP2, DLPNO-MP2 Gradient
   Christoph Reimann      : Effective Core Potentials
   Marius Retegan         : Local ZFS, SOC
   Christoph Riplinger    : Optimizer, TS searches, QM/MM, DLPNO-CCSD(T), (RO)-DLPNO pert. Triples
   Tobias Risthaus        : Range-separated hybrids, TD-DFT gradient, RPA, STAB
   Michael Roemelt        : Original ROCIS implementation
   Masaaki Saitow         : Open-shell DLPNO-CCSD energy and density
   Barbara Sandhoefer     : DKH picture change effects
   Avijit Sen             : IP-ROCIS
   Kantharuban Sivalingam : CASSCF convergence, NEVPT2, FIC-MRCI
   Bernardo de Souza      : ESD, SOC TD-DFT
   Georgi Stoychev        : AutoAux, RI-MP2 NMR, DLPNO-MP2 response
   Willem Van den Heuvel  : Paramagnetic NMR
   Boris Wezisla          : Elementary symmetry handling
   Frank Wennmohs         : Technical directorship


 We gratefully acknowledge several colleagues who have allowed us to
 interface, adapt or use parts of their codes:
   Stefan Grimme, W. Hujo, H. Kruse, P. Pracht,  : VdW corrections, initial TS optimization,
                  C. Bannwarth, S. Ehlert          DFT functionals, gCP, sTDA/sTD-DF
   Ed Valeev, F. Pavosevic, A. Kumar             : LibInt (2-el integral package), F12 methods
   Garnet Chan, S. Sharma, J. Yang, R. Olivares  : DMRG
   Ulf Ekstrom                                   : XCFun DFT Library
   Mihaly Kallay                                 : mrcc  (arbitrary order and MRCC methods)
   Jiri Pittner, Ondrej Demel                    : Mk-CCSD
   Frank Weinhold                                : gennbo (NPA and NBO analysis)
   Christopher J. Cramer and Donald G. Truhlar   : smd solvation model
   Lars Goerigk                                  : TD-DFT with DH, B97 family of functionals
   V. Asgeirsson, H. Jonsson                     : NEB implementation
   FAccTs GmbH                                   : IRC, NEB, NEB-TS, DLPNO-Multilevel, CI-OPT
                                                   MM, QMMM, 2- and 3-layer-ONIOM, Crystal-QMMM,
                                                   LR-CPCM, SF, NACMEs, symmetry and pop. for TD-DFT,
                                                   nearIR, NL-DFT gradient (VV10), updates on ESD,
                                                   ML-optimized integration grids
   S Lehtola, MJT Oliveira, MAL Marques          : LibXC Library
   Liviu Ungur et al                             : ANISO software


 Your calculation uses the libint2 library for the computation of 2-el integrals
 For citations please refer to: http://libint.valeyev.net

 Your ORCA version has been built with support for libXC version: 5.1.0
 For citations please refer to: https://tddft.org/programs/libxc/

 This ORCA versions uses:
   CBLAS   interface :  Fast vector & matrix operations
   LAPACKE interface :  Fast linear algebra routines
   SCALAPACK package :  Parallel linear algebra routines
   Shared memory     :  Shared parallel matrices
   BLAS/LAPACK       :  OpenBLAS 0.3.15  USE64BITINT DYNAMIC_ARCH NO_AFFINITY SkylakeX SINGLE_THREADED
        Core in use  :  SkylakeX
   Copyright (c) 2011-2014, The OpenBLAS Project


Your calculation utilizes the atom-pairwise dispersion correction
with the Becke-Johnson damping scheme (D3BJ)
Cite in your paper:
S.Grimme, S.Ehrlich, L.Goerigk, J Comput Chem, (2011), 32, 1456–1465 
S.Grimme, J.Antony, S.Ehrlich and H.Krieg, J.Chem.Phys., 132, (2010), 154104 
   

================================================================================

----- Orbital basis set information -----
Your calculation utilizes the basis: def2-TZVP
   F. Weigend and R. Ahlrichs, Phys. Chem. Chem. Phys. 7, 3297 (2005).

----- AuxJ basis set information -----
Your calculation utilizes the auxiliary basis: def2/J
   F. Weigend, Phys. Chem. Chem. Phys. 8, 1057 (2006).

================================================================================
                                        WARNINGS
                       Please study these warnings very carefully!
================================================================================

INFO   : Checking CIS options ...

WARNING: CIS/ROCIS methods need fully converged wavefunctions
  ===> : Setting SCFConvForced true
         You can overwrite this default with %scf ConvForced false 


INFO   : the flag for use of the SHARK integral package has been found!

================================================================================
                                       INPUT FILE
================================================================================
NAME = ox_es1_A_orca0012.inp
|  1> ! engrad PBE0 D3BJ def2-TZVP  
|  2> %pal nprocs 8 end
|  3> %maxcore 3000
|  4> 
|  5> %tddft
|  6>   nroots 1
|  7>   tda true
|  8>   Iroot 1
|  9>   end 
| 10> *xyz 0 1 
| 11> O   0.10610785985063168 0.8185475730275574 -0.07596838829770068
| 12> C   -0.7531012936433126 -0.38367493254066887 -0.03538347328093904
| 13> C   0.7510805114073114 -0.40828878732853313 -0.04634652357890415
| 14> H   -1.26679919780309 -0.8303341770034536 0.8687568379332855
| 15> H   -1.276451177569658 -0.7306600690982425 -0.8383556548034182
| 16> H   1.1923157511019682 -0.6902730843348492 -0.9134391911356955
| 17> H   1.3358865344533057 -0.7400639175589719 0.9781343576077479
| 18> *
| 19> 
| 20>                          ****END OF INPUT****
================================================================================

                     *******************************
                     * Energy+Gradient Calculation *
                     *******************************

---------------------------------
CARTESIAN COORDINATES (ANGSTROEM)
---------------------------------
  O      0.106108    0.818548   -0.075968
  C     -0.753101   -0.383675   -0.035383
  C      0.751081   -0.408289   -0.046347
  H     -1.266799   -0.830334    0.868757
  H     -1.276451   -0.730660   -0.838356
  H      1.192316   -0.690273   -0.913439
  H      1.335887   -0.740064    0.978134

----------------------------
CARTESIAN COORDINATES (A.U.)
----------------------------
  NO LB      ZA    FRAG     MASS         X           Y           Z
   0 O     8.0000    0    15.999    0.200515    1.546831   -0.143559
   1 C     6.0000    0    12.011   -1.423155   -0.725041   -0.066865
   2 C     6.0000    0    12.011    1.419336   -0.771554   -0.087582
   3 H     1.0000    0     1.008   -2.393904   -1.569104    1.641713
   4 H     1.0000    0     1.008   -2.412143   -1.380747   -1.584263
   5 H     1.0000    0     1.008    2.253150   -1.304427   -1.726150
   6 H     1.0000    0     1.008    2.524460   -1.398518    1.848406

--------------------------------
INTERNAL COORDINATES (ANGSTROEM)
--------------------------------
 O      0   0   0     0.000000000000     0.00000000     0.00000000
 C      1   0   0     1.478251148374     0.00000000     0.00000000
 C      1   2   0     1.386360209764    63.26441721     0.00000000
 H      2   1   3     1.131750732169   127.35281976    99.55084877
 H      2   1   3     1.019341998692   123.61631472   254.11876506
 H      3   1   2     1.012942927631   115.51265738   107.62523775
 H      3   1   2     1.225411725726   118.65122796   251.40279713

---------------------------
INTERNAL COORDINATES (A.U.)
---------------------------
 O      0   0   0     0.000000000000     0.00000000     0.00000000
 C      1   0   0     2.793489827582     0.00000000     0.00000000
 C      1   2   0     2.619841119420    63.26441721     0.00000000
 H      2   1   3     2.138698935664   127.35281976    99.55084877
 H      2   1   3     1.926277214331   123.61631472   254.11876506
 H      3   1   2     1.914184722515   115.51265738   107.62523775
 H      3   1   2     2.315692562918   118.65122796   251.40279713

---------------------
BASIS SET INFORMATION
---------------------
There are 3 groups of distinct atoms

 Group   1 Type O   : 11s6p2d1f contracted to 5s3p2d1f pattern {62111/411/11/1}
 Group   2 Type C   : 11s6p2d1f contracted to 5s3p2d1f pattern {62111/411/11/1}
 Group   3 Type H   : 5s1p contracted to 3s1p pattern {311/1}

Atom   0O    basis set group =>   1
Atom   1C    basis set group =>   2
Atom   2C    basis set group =>   2
Atom   3H    basis set group =>   3
Atom   4H    basis set group =>   3
Atom   5H    basis set group =>   3
Atom   6H    basis set group =>   3
---------------------------------
AUXILIARY/J BASIS SET INFORMATION
---------------------------------
There are 3 groups of distinct atoms

 Group   1 Type O   : 12s5p4d2f1g contracted to 6s4p3d1f1g pattern {711111/2111/211/2/1}
 Group   2 Type C   : 12s5p4d2f1g contracted to 6s4p3d1f1g pattern {711111/2111/211/2/1}
 Group   3 Type H   : 5s2p1d contracted to 3s1p1d pattern {311/2/1}

Atom   0O    basis set group =>   1
Atom   1C    basis set group =>   2
Atom   2C    basis set group =>   2
Atom   3H    basis set group =>   3
Atom   4H    basis set group =>   3
Atom   5H    basis set group =>   3
Atom   6H    basis set group =>   3

Checking for AutoStart:
The File: ox_es1_A_orca0012.gbw exists
Trying to determine its content:
     ... Fine, the file contains calculation information
     ... Fine, the calculation information was read
     ... Fine, the file contains a basis set
     ... Fine, the basis set was read
     ... Fine, the file contains a geometry
     ... Fine, the geometry was read
     ... Fine, the file contains a set of orbitals
     ... Fine, the orbitals can be read
     => possible old guess file was deleted
     => GBW file was renamed to GES file
     => GES file is set as startup file
     => Guess is set to MORead
     ... now leaving AutoStart



           ************************************************************
           *        Program running with 8 parallel MPI-processes     *
           *              working on a common directory               *
           ************************************************************
------------------------------------------------------------------------------
                           ORCA GTO INTEGRAL CALCULATION
                           -- RI-GTO INTEGRALS CHOSEN --
------------------------------------------------------------------------------
------------------------------------------------------------------------------
                   ___                                                        
                  /   \      - P O W E R E D   B Y -                         
                 /     \                                                     
                 |  |  |   _    _      __       _____    __    __             
                 |  |  |  | |  | |    /  \     |  _  \  |  |  /  |          
                  \  \/   | |  | |   /    \    | | | |  |  | /  /          
                 / \  \   | |__| |  /  /\  \   | |_| |  |  |/  /          
                |  |  |   |  __  | /  /__\  \  |    /   |      \           
                |  |  |   | |  | | |   __   |  |    \   |  |\   \          
                \     /   | |  | | |  |  |  |  | |\  \  |  | \   \       
                 \___/    |_|  |_| |__|  |__|  |_| \__\ |__|  \__/        
                                                                              
                      - O R C A' S   B I G   F R I E N D -                    
                                      &                                       
                       - I N T E G R A L  F E E D E R -                       
                                                                              
 v1 FN, 2020, v2 2021                                                         
------------------------------------------------------------------------------


Reading SHARK input file ox_es1_A_orca0012.SHARKINP.tmp ... ok
----------------------
SHARK INTEGRAL PACKAGE
----------------------

Number of atoms                             ...      7
Number of basis functions                   ...    117
Number of shells                            ...     49
Maximum angular momentum                    ...      3
Integral batch strategy                     ... SHARK/LIBINT Hybrid
RI-J (if used) integral strategy            ... SPLIT-RIJ (Revised 2003 algorithm where possible)
Printlevel                                  ...      1
Contraction scheme used                     ... SEGMENTED contraction
Coulomb Range Separation                    ... NOT USED
Exchange Range Separation                   ... NOT USED
Finite Nucleus Model                        ... NOT USED
Auxiliary Coulomb fitting basis             ... AVAILABLE
   # of basis functions in Aux-J            ...    191
   # of shells in Aux-J                     ...     65
   Maximum angular momentum in Aux-J        ...      4
Auxiliary J/K fitting basis                 ... NOT available
Auxiliary Correlation fitting basis         ... NOT available
Auxiliary 'external' fitting basis          ... NOT available
Integral threshold                          ...     2.500000e-11
Primitive cut-off                           ...     2.500000e-12
Primitive pair pre-selection threshold      ...     2.500000e-12

Calculating pre-screening integrals         ... done (  0.0 sec) Dimension = 49
Organizing shell pair data                  ... done (  0.0 sec)
Shell pair information
Total number of shell pairs                 ...      1225
Shell pairs after pre-screening             ...      1220
Total number of primitive shell pairs       ...      3648
Primitive shell pairs kept                  ...      3146
          la=0 lb=0:    373 shell pairs
          la=1 lb=0:    351 shell pairs
          la=1 lb=1:     91 shell pairs
          la=2 lb=0:    162 shell pairs
          la=2 lb=1:     78 shell pairs
          la=2 lb=2:     21 shell pairs
          la=3 lb=0:     81 shell pairs
          la=3 lb=1:     39 shell pairs
          la=3 lb=2:     18 shell pairs
          la=3 lb=3:      6 shell pairs

Calculating one electron integrals          ... done (  0.0 sec)
Calculating RI/J V-Matrix + Cholesky decomp.... done (  0.0 sec)
Calculating Nuclear repulsion               ... done (  0.0 sec) ENN=     74.512944439275 Eh

SHARK setup successfully completed in   0.1 seconds

Maximum memory used throughout the entire GTOINT-calculation: 14.9 MB


           ************************************************************
           *        Program running with 8 parallel MPI-processes     *
           *              working on a common directory               *
           ************************************************************
-------------------------------------------------------------------------------
                                 ORCA SCF
-------------------------------------------------------------------------------

------------
SCF SETTINGS
------------
Hamiltonian:
 Density Functional     Method          .... DFT(GTOs)
 Exchange Functional    Exchange        .... PBE
   PBE kappa parameter   XKappa         ....  0.804000
   PBE mue parameter    XMuePBE         ....  0.219520
 Correlation Functional Correlation     .... PBE
   PBE beta parameter  CBetaPBE         ....  0.066725
 LDA part of GGA corr.  LDAOpt          .... PW91-LDA
 Gradients option       PostSCFGGA      .... off
 Hybrid DFT is turned on
   Fraction HF Exchange ScalHFX         ....  0.250000
   Scaling of DF-GGA-X  ScalDFX         ....  0.750000
   Scaling of DF-GGA-C  ScalDFC         ....  1.000000
   Scaling of DF-LDA-C  ScalLDAC        ....  1.000000
   Perturbative correction              ....  0.000000
   Density functional embedding theory  .... OFF
   NL short-range parameter             ....  6.900000
 RI-approximation to the Coulomb term is turned on
   Number of AuxJ basis functions       .... 191
   RIJ-COSX (HFX calculated with COS-X)).... on


General Settings:
 Integral files         IntName         .... ox_es1_A_orca0012
 Hartree-Fock type      HFTyp           .... RHF
 Total Charge           Charge          ....    0
 Multiplicity           Mult            ....    1
 Number of Electrons    NEL             ....   24
 Basis Dimension        Dim             ....  117
 Nuclear Repulsion      ENuc            ....     74.5129444393 Eh

Convergence Acceleration:
 DIIS                   CNVDIIS         .... on
   Start iteration      DIISMaxIt       ....    12
   Startup error        DIISStart       ....  0.200000
   # of expansion vecs  DIISMaxEq       ....     5
   Bias factor          DIISBfac        ....   1.050
   Max. coefficient     DIISMaxC        ....  10.000
 Trust-Rad. Augm. Hess. CNVTRAH         .... auto
   Auto Start mean grad. ratio tolernc. ....  1.125000
   Auto Start start iteration           ....     1
   Auto Start num. interpolation iter.  ....    10
   Max. Number of Micro iterations      ....    16
   Max. Number of Macro iterations      .... Maxiter - #DIIS iter
   Number of Davidson start vectors     ....     2
   Converg. threshold I  (grad. norm)   ....   1.000e-05
   Converg. threshold II (energy diff.) ....   1.000e-08
   Grad. Scal. Fac. for Micro threshold ....   0.100
   Minimum threshold for Micro iter.    ....   0.010
   NR start threshold (gradient norm)   ....   0.001
   Initial trust radius                 ....   0.400
   Minimum AH scaling param. (alpha)    ....   1.000
   Maximum AH scaling param. (alpha)    .... 1000.000
   Orbital update algorithm             .... Taylor
   White noise on init. David. guess    .... on
   Maximum white noise                  ....   0.010
   Quad. conv. algorithm                .... NR
 SOSCF                  CNVSOSCF        .... on
   Start iteration      SOSCFMaxIt      ....   150
   Startup grad/error   SOSCFStart      ....  0.003300
 Level Shifting         CNVShift        .... on
   Level shift para.    LevelShift      ....    0.2500
   Turn off err/grad.   ShiftErr        ....    0.0010
 Zerner damping         CNVZerner       .... off
 Static damping         CNVDamp         .... on
   Fraction old density DampFac         ....    0.7000
   Max. Damping (<1)    DampMax         ....    0.9800
   Min. Damping (>=0)   DampMin         ....    0.0000
   Turn off err/grad.   DampErr         ....    0.1000
 Fernandez-Rico         CNVRico         .... off

SCF Procedure:
 Maximum # iterations   MaxIter         ....   125
 SCF integral mode      SCFMode         .... Direct
   Integral package                     .... SHARK and LIBINT hybrid scheme
 Reset frequency        DirectResetFreq ....    20
 Integral Threshold     Thresh          ....  2.500e-11 Eh
 Primitive CutOff       TCut            ....  2.500e-12 Eh

Convergence Tolerance:
 Convergence Check Mode ConvCheckMode   .... Total+1el-Energy
 Convergence forced     ConvForced      .... 1
 Energy Change          TolE            ....  1.000e-08 Eh
 1-El. energy change                    ....  1.000e-05 Eh
 Orbital Gradient       TolG            ....  1.000e-05
 Orbital Rotation angle TolX            ....  1.000e-05
 DIIS Error             TolErr          ....  5.000e-07


Diagonalization of the overlap matrix:
Smallest eigenvalue                        ... 4.903e-04
Time for diagonalization                   ...    0.001 sec
Threshold for overlap eigenvalues          ... 1.000e-08
Number of eigenvalues below threshold      ... 0
Time for construction of square roots      ...    0.001 sec
Total time needed                          ...    0.003 sec

---------------------
INITIAL GUESS: MOREAD
---------------------
Guess MOs are being read from file: ox_es1_A_orca0012.ges
Input Geometry matches current geometry (good)
Input basis set matches current basis set (good)
MOs were renormalized
MOs were reorthogonalized (Cholesky)
                      ------------------
                      INITIAL GUESS DONE (   0.0 sec)
                      ------------------
-------------------
DFT GRID GENERATION
-------------------

General Integration Accuracy     IntAcc      ... 4.388
Radial Grid Type                 RadialGrid  ... OptM3 with GC (2021)
Angular Grid (max. ang.)         AngularGrid ... 4 (Lebedev-302)
Angular grid pruning method      GridPruning ... 4 (adaptive)
Weight generation scheme         WeightScheme... Becke
Basis function cutoff            BFCut       ... 1.0000e-11
Integration weight cutoff        WCut        ... 1.0000e-14
Angular grids for H and He will be reduced by one unit
Partially contracted basis set               ... off
Rotationally invariant grid construction     ... off

Total number of grid points                  ...    31329
Total number of batches                      ...      494
Average number of points per batch           ...       63
Average number of grid points per atom       ...     4476
Time for grid setup =    0.118 sec

--------------------
COSX GRID GENERATION
--------------------

GRIDX 1
-------
General Integration Accuracy     IntAcc      ... 3.816
Radial Grid Type                 RadialGrid  ... OptM3 with GC (2021)
Angular Grid (max. ang.)         AngularGrid ... 1 (Lebedev-50)
Angular grid pruning method      GridPruning ... 4 (adaptive)
Weight generation scheme         WeightScheme... Becke
Basis function cutoff            BFCut       ... 1.0000e-11
Integration weight cutoff        WCut        ... 1.0000e-14
Angular grids for H and He will be reduced by one unit
Partially contracted basis set               ... on
Rotationally invariant grid construction     ... off

Total number of grid points                  ...     4037
Total number of batches                      ...       68
Average number of points per batch           ...       59
Average number of grid points per atom       ...      577
UseSFitting                                  ... on

GRIDX 2
-------
General Integration Accuracy     IntAcc      ... 4.020
Radial Grid Type                 RadialGrid  ... OptM3 with GC (2021)
Angular Grid (max. ang.)         AngularGrid ... 2 (Lebedev-110)
Angular grid pruning method      GridPruning ... 4 (adaptive)
Weight generation scheme         WeightScheme... Becke
Basis function cutoff            BFCut       ... 1.0000e-11
Integration weight cutoff        WCut        ... 1.0000e-14
Angular grids for H and He will be reduced by one unit
Partially contracted basis set               ... on
Rotationally invariant grid construction     ... off

Total number of grid points                  ...     8708
Total number of batches                      ...      140
Average number of points per batch           ...       62
Average number of grid points per atom       ...     1244
UseSFitting                                  ... on

GRIDX 3
-------
General Integration Accuracy     IntAcc      ... 4.338
Radial Grid Type                 RadialGrid  ... OptM3 with GC (2021)
Angular Grid (max. ang.)         AngularGrid ... 3 (Lebedev-194)
Angular grid pruning method      GridPruning ... 4 (adaptive)
Weight generation scheme         WeightScheme... Becke
Basis function cutoff            BFCut       ... 1.0000e-11
Integration weight cutoff        WCut        ... 1.0000e-14
Angular grids for H and He will be reduced by one unit
Partially contracted basis set               ... on
Rotationally invariant grid construction     ... off

Total number of grid points                  ...    19236
Total number of batches                      ...      306
Average number of points per batch           ...       62
Average number of grid points per atom       ...     2748
UseSFitting                                  ... on

Time for X-Grid setup             =    0.073 sec

--------------
SCF ITERATIONS
--------------
ITER       Energy         Delta-E        Max-DP      RMS-DP      [F,P]     Damp
               ***  Starting incremental Fock matrix formation  ***
                      *** Initiating the SOSCF procedure ***
                      *** Re-Reading the Fockian *** 
                      *** Removing any level shift *** 
ITER      Energy       Delta-E        Grad      Rot      Max-DP    RMS-DP
  0   -153.64241483 -153.6424148308  0.000001  0.000001  0.000001  0.000000
               *** Restarting incremental Fock matrix formation ***
                  ***Gradient check signals convergence***
              ***Rediagonalizing the Fockian in SOSCF/NRSCF***

               *****************************************************
               *                     SUCCESS                       *
               *           SCF CONVERGED AFTER   1 CYCLES          *
               *****************************************************

Old exchange energy                            =     -4.987100094 Eh
New exchange energy                            =     -4.987101424 Eh
Exchange energy change after final integration =     -0.000001330 Eh
Total energy after final integration           =   -153.642416161 Eh
Final COS-X integration done in                =     0.247 sec

----------------
TOTAL SCF ENERGY
----------------

Total Energy       :         -153.64241616 Eh           -4180.82269 eV

Components:
Nuclear Repulsion  :           74.51294444 Eh            2027.60030 eV
Electronic Energy  :         -228.15536060 Eh           -6208.42299 eV
One Electron Energy:         -355.61294254 Eh           -9676.72012 eV
Two Electron Energy:          127.45758194 Eh            3468.29713 eV
Max COSX asymmetry :            0.00000172 Eh               0.00005 eV

Virial components:
Potential Energy   :         -306.50587328 Eh           -8340.44883 eV
Kinetic Energy     :          152.86345712 Eh            4159.62614 eV
Virial Ratio       :            2.00509578


DFT components:
N(Alpha)           :       12.000005157620 electrons
N(Beta)            :       12.000005157620 electrons
N(Total)           :       24.000010315240 electrons
E(X)               :      -14.937718894095 Eh       
E(C)               :       -0.788298119729 Eh       
E(XC)              :      -15.726017013824 Eh       
DFET-embed. en.    :        0.000000000000 Eh       

---------------
SCF CONVERGENCE
---------------

  Last Energy change         ...   -2.0179e-11  Tolerance :   1.0000e-08
  Last MAX-Density change    ...    1.8874e-15  Tolerance :   1.0000e-07
  Last RMS-Density change    ...    3.4055e-17  Tolerance :   5.0000e-09
  Last Orbital Gradient      ...    4.3368e-07  Tolerance :   1.0000e-05
  Last Orbital Rotation      ...    8.9031e-07  Tolerance :   1.0000e-05

             **** THE GBW FILE WAS UPDATED (ox_es1_A_orca0012.gbw) ****
             **** DENSITY ox_es1_A_orca0012.scfp WAS UPDATED ****
             **** ENERGY FILE WAS UPDATED (ox_es1_A_orca0012.en.tmp) ****
             **** THE GBW FILE WAS UPDATED (ox_es1_A_orca0012.gbw) ****
             **** DENSITY ox_es1_A_orca0012.scfp WAS UPDATED ****
----------------
ORBITAL ENERGIES
----------------

  NO   OCC          E(Eh)            E(eV) 
   0   2.0000     -19.239200      -523.5252 
   1   2.0000     -10.280618      -279.7498 
   2   2.0000     -10.278145      -279.6826 
   3   2.0000      -1.108617       -30.1670 
   4   2.0000      -0.708885       -19.2898 
   5   2.0000      -0.654134       -17.7999 
   6   2.0000      -0.526044       -14.3144 
   7   2.0000      -0.499528       -13.5928 
   8   2.0000      -0.434835       -11.8325 
   9   2.0000      -0.387562       -10.5461 
  10   2.0000      -0.318970        -8.6796 
  11   2.0000      -0.298441        -8.1210 
  12   0.0000       0.043844         1.1930 
  13   0.0000       0.071682         1.9506 
  14   0.0000       0.078588         2.1385 
  15   0.0000       0.100010         2.7214 
  16   0.0000       0.106376         2.8946 
  17   0.0000       0.155418         4.2291 
  18   0.0000       0.191057         5.1989 
  19   0.0000       0.216991         5.9046 
  20   0.0000       0.261563         7.1175 
  21   0.0000       0.278167         7.5693 
  22   0.0000       0.287791         7.8312 
  23   0.0000       0.324795         8.8381 
  24   0.0000       0.351608         9.5677 
  25   0.0000       0.376615        10.2482 
  26   0.0000       0.399332        10.8664 
  27   0.0000       0.421855        11.4793 
  28   0.0000       0.451044        12.2735 
  29   0.0000       0.453731        12.3467 
  30   0.0000       0.481112        13.0917 
  31   0.0000       0.537731        14.6324 
  32   0.0000       0.545875        14.8540 
  33   0.0000       0.686601        18.6834 
  34   0.0000       0.697061        18.9680 
  35   0.0000       0.731279        19.8991 
  36   0.0000       0.816412        22.2157 
  37   0.0000       0.894365        24.3369 
  38   0.0000       0.915384        24.9089 
  39   0.0000       0.938316        25.5329 
  40   0.0000       0.994470        27.0609 
  41   0.0000       1.028692        27.9921 
  42   0.0000       1.066070        29.0093 
  43   0.0000       1.083974        29.4964 
  44   0.0000       1.124372        30.5957 
  45   0.0000       1.365697        37.1625 
  46   0.0000       1.450975        39.4830 
  47   0.0000       1.490534        40.5595 
  48   0.0000       1.512212        41.1494 
  49   0.0000       1.520300        41.3695 
  50   0.0000       1.573945        42.8292 
  51   0.0000       1.600789        43.5597 
  52   0.0000       1.655385        45.0453 
  53   0.0000       1.733887        47.1815 
  54   0.0000       1.786943        48.6252 
  55   0.0000       1.801364        49.0176 
  56   0.0000       1.871379        50.9228 
  57   0.0000       1.901894        51.7532 
  58   0.0000       1.909976        51.9731 
  59   0.0000       1.995195        54.2920 
  60   0.0000       2.036920        55.4274 
  61   0.0000       2.120496        57.7016 
  62   0.0000       2.178260        59.2735 
  63   0.0000       2.220400        60.4202 
  64   0.0000       2.266285        61.6688 
  65   0.0000       2.408608        65.5415 
  66   0.0000       2.453603        66.7659 
  67   0.0000       2.464359        67.0586 
  68   0.0000       2.527142        68.7670 
  69   0.0000       2.549045        69.3630 
  70   0.0000       2.612516        71.0902 
  71   0.0000       2.660665        72.4004 
  72   0.0000       2.675222        72.7965 
  73   0.0000       2.698096        73.4189 
  74   0.0000       2.761994        75.1577 
  75   0.0000       2.820942        76.7617 
  76   0.0000       2.905179        79.0539 
  77   0.0000       2.910732        79.2050 
  78   0.0000       2.971172        80.8497 
  79   0.0000       2.980909        81.1147 
  80   0.0000       3.036386        82.6243 
  81   0.0000       3.105914        84.5162 
  82   0.0000       3.180168        86.5368 
  83   0.0000       3.188660        86.7679 
  84   0.0000       3.280175        89.2581 
  85   0.0000       3.315239        90.2123 
  86   0.0000       3.356360        91.3312 
  87   0.0000       3.442060        93.6632 
  88   0.0000       3.549440        96.5852 
  89   0.0000       3.594529        97.8121 
  90   0.0000       3.680894       100.1622 
  91   0.0000       3.703398       100.7746 
  92   0.0000       3.837371       104.4202 
  93   0.0000       3.987501       108.5054 
  94   0.0000       4.033865       109.7670 
  95   0.0000       4.108719       111.8039 
  96   0.0000       4.245849       115.5354 
  97   0.0000       4.285396       116.6116 
  98   0.0000       4.329206       117.8037 
  99   0.0000       4.560780       124.1051 
 100   0.0000       4.676770       127.2614 
 101   0.0000       4.850861       131.9986 
 102   0.0000       5.289720       143.9406 
 103   0.0000       5.439596       148.0189 
 104   0.0000       5.682957       154.6411 
 105   0.0000       5.768514       156.9692 
 106   0.0000       5.814336       158.2161 
 107   0.0000       5.863184       159.5453 
 108   0.0000       6.051516       164.6701 
 109   0.0000       6.591399       179.3611 
 110   0.0000       6.613011       179.9492 
 111   0.0000       6.779482       184.4791 
 112   0.0000       6.948790       189.0862 
 113   0.0000       7.173690       195.2060 
 114   0.0000      22.293596       606.6396 
 115   0.0000      22.373348       608.8098 
 116   0.0000      43.843633      1193.0459 

                    ********************************
                    * MULLIKEN POPULATION ANALYSIS *
                    ********************************

-----------------------
MULLIKEN ATOMIC CHARGES
-----------------------
   0 O :   -0.292339
   1 C :   -0.115016
   2 C :   -0.049799
   3 H :    0.115535
   4 H :    0.123837
   5 H :    0.113079
   6 H :    0.104703
Sum of atomic charges:    0.0000000

--------------------------------
MULLIKEN REDUCED ORBITAL CHARGES
--------------------------------
  0 O s       :     3.856752  s :     3.856752
      pz      :     1.826049  p :     4.389969
      px      :     1.287698
      py      :     1.276222
      dz2     :     0.005752  d :     0.043468
      dxz     :     0.002358
      dyz     :     0.006795
      dx2y2   :     0.012462
      dxy     :     0.016102
      f0      :     0.000259  f :     0.002150
      f+1     :     0.000206
      f-1     :     0.000456
      f+2     :     0.000087
      f-2     :     0.000186
      f+3     :     0.000374
      f-3     :     0.000583
  1 C s       :     3.218184  s :     3.218184
      pz      :     1.052742  p :     2.785171
      px      :     0.924762
      py      :     0.807667
      dz2     :     0.005345  d :     0.101001
      dxz     :     0.023932
      dyz     :     0.027727
      dx2y2   :     0.022912
      dxy     :     0.021086
      f0      :     0.001195  f :     0.010660
      f+1     :     0.001212
      f-1     :     0.000743
      f+2     :     0.000802
      f-2     :     0.001885
      f+3     :     0.002375
      f-3     :     0.002450
  2 C s       :     3.221050  s :     3.221050
      pz      :     1.035301  p :     2.697375
      px      :     0.906803
      py      :     0.755271
      dz2     :     0.006076  d :     0.119378
      dxz     :     0.026022
      dyz     :     0.036530
      dx2y2   :     0.029090
      dxy     :     0.021661
      f0      :     0.001661  f :     0.011997
      f+1     :     0.001292
      f-1     :     0.000843
      f+2     :     0.001298
      f-2     :     0.001714
      f+3     :     0.002104
      f-3     :     0.003086
  3 H s       :     0.864077  s :     0.864077
      pz      :     0.009289  p :     0.020388
      px      :     0.006203
      py      :     0.004896
  4 H s       :     0.852272  s :     0.852272
      pz      :     0.010076  p :     0.023891
      px      :     0.008125
      py      :     0.005690
  5 H s       :     0.863195  s :     0.863195
      pz      :     0.011299  p :     0.023726
      px      :     0.007110
      py      :     0.005317
  6 H s       :     0.879214  s :     0.879214
      pz      :     0.008629  p :     0.016083
      px      :     0.004786
      py      :     0.002668


                     *******************************
                     * LOEWDIN POPULATION ANALYSIS *
                     *******************************

----------------------
LOEWDIN ATOMIC CHARGES
----------------------
   0 O :    0.140840
   1 C :   -0.261525
   2 C :   -0.327409
   3 H :    0.127261
   4 H :    0.095621
   5 H :    0.091785
   6 H :    0.133426

-------------------------------
LOEWDIN REDUCED ORBITAL CHARGES
-------------------------------
  0 O s       :     3.386770  s :     3.386770
      pz      :     1.710792  p :     4.370835
      px      :     1.274775
      py      :     1.385268
      dz2     :     0.011555  d :     0.094862
      dxz     :     0.007613
      dyz     :     0.014664
      dx2y2   :     0.033727
      dxy     :     0.027303
      f0      :     0.000601  f :     0.006691
      f+1     :     0.000280
      f-1     :     0.000884
      f+2     :     0.000199
      f-2     :     0.000872
      f+3     :     0.001293
      f-3     :     0.002561
  1 C s       :     2.819448  s :     2.819448
      pz      :     1.077241  p :     2.957120
      px      :     1.037276
      py      :     0.842603
      dz2     :     0.043371  d :     0.425570
      dxz     :     0.116733
      dyz     :     0.085777
      dx2y2   :     0.089421
      dxy     :     0.090268
      f0      :     0.006609  f :     0.059387
      f+1     :     0.005099
      f-1     :     0.005014
      f+2     :     0.004904
      f-2     :     0.007800
      f+3     :     0.014127
      f-3     :     0.015833
  2 C s       :     2.831100  s :     2.831100
      pz      :     1.046860  p :     2.914436
      px      :     1.024268
      py      :     0.843308
      dz2     :     0.055383  d :     0.504656
      dxz     :     0.122108
      dyz     :     0.108886
      dx2y2   :     0.115870
      dxy     :     0.102409
      f0      :     0.011168  f :     0.077217
      f+1     :     0.005378
      f-1     :     0.006577
      f+2     :     0.008846
      f-2     :     0.007513
      f+3     :     0.015509
      f-3     :     0.022225
  3 H s       :     0.815901  s :     0.815901
      pz      :     0.027583  p :     0.056837
      px      :     0.015548
      py      :     0.013706
  4 H s       :     0.828178  s :     0.828178
      pz      :     0.034337  p :     0.076200
      px      :     0.023444
      py      :     0.018419
  5 H s       :     0.833108  s :     0.833108
      pz      :     0.037490  p :     0.075108
      px      :     0.020950
      py      :     0.016669
  6 H s       :     0.823868  s :     0.823868
      pz      :     0.024043  p :     0.042706
      px      :     0.011589
      py      :     0.007074


                      *****************************
                      * MAYER POPULATION ANALYSIS *
                      *****************************

  NA   - Mulliken gross atomic population
  ZA   - Total nuclear charge
  QA   - Mulliken gross atomic charge
  VA   - Mayer's total valence
  BVA  - Mayer's bonded valence
  FA   - Mayer's free valence

  ATOM       NA         ZA         QA         VA         BVA        FA
  0 O      8.2923     8.0000    -0.2923     2.0379     2.0379     0.0000
  1 C      6.1150     6.0000    -0.1150     3.9527     3.9527     0.0000
  2 C      6.0498     6.0000    -0.0498     3.9554     3.9554     0.0000
  3 H      0.8845     1.0000     0.1155     0.9614     0.9614     0.0000
  4 H      0.8762     1.0000     0.1238     0.9573     0.9573     0.0000
  5 H      0.8869     1.0000     0.1131     0.9558     0.9558     0.0000
  6 H      0.8953     1.0000     0.1047     0.9631     0.9631     0.0000

  Mayer bond orders larger than 0.100000
B(  0-O ,  1-C ) :   0.9924 B(  0-O ,  2-C ) :   1.0012 B(  1-C ,  2-C ) :   1.0450 
B(  1-C ,  3-H ) :   0.9480 B(  1-C ,  4-H ) :   0.9601 B(  2-C ,  5-H ) :   0.9616 
B(  2-C ,  6-H ) :   0.9393 

-------
TIMINGS
-------

Total SCF time: 0 days 0 hours 0 min 0 sec 

Total time                  ....       1.000 sec
Sum of individual times     ....       0.888 sec  ( 88.8%)

Fock matrix formation       ....       0.682 sec  ( 68.3%)
  Split-RI-J                ....       0.111 sec  ( 16.2% of F)
  Chain of spheres X        ....       0.500 sec  ( 73.3% of F)
  XC integration            ....       0.063 sec  (  9.2% of F)
    Basis function eval.    ....       0.017 sec  ( 27.5% of XC)
    Density eval.           ....       0.014 sec  ( 21.7% of XC)
    XC-Functional eval.     ....       0.004 sec  (  5.9% of XC)
    XC-Potential eval.      ....       0.020 sec  ( 32.5% of XC)
Diagonalization             ....       0.002 sec  (  0.2%)
Density matrix formation    ....       0.000 sec  (  0.0%)
Population analysis         ....       0.002 sec  (  0.2%)
Initial guess               ....       0.007 sec  (  0.7%)
Orbital Transformation      ....       0.000 sec  (  0.0%)
Orbital Orthonormalization  ....       0.001 sec  (  0.1%)
DIIS solution               ....       0.001 sec  (  0.1%)
SOSCF solution              ....       0.002 sec  (  0.2%)
Grid generation             ....       0.191 sec  ( 19.1%)

Maximum memory used throughout the entire SCF-calculation: 61.1 MB


           ************************************************************
           *        Program running with 8 parallel MPI-processes     *
           *              working on a common directory               *
           ************************************************************
------------------------------------------------------------------------------
                        ORCA TD-DFT/TDA CALCULATION
------------------------------------------------------------------------------

Input orbitals are from        ... ox_es1_A_orca0012.gbw
CI-vector output               ... ox_es1_A_orca0012.cis
Tamm-Dancoff approximation     ... operative
CIS-Integral strategy          ... AO-integrals
Integral handling              ... AO integral Direct
Max. core memory used          ... 3000 MB
Reference state                ... RHF
Generation of triplets         ... off
Follow IRoot                   ... off
Number of operators            ... 1
Orbital ranges used for CIS calculation:
 Operator 0:  Orbitals   3... 11  to  12...116
XAS localization array:
 Operator 0:  Orbitals  -1... -1

-------------------
XC-INTEGRATION GRID
-------------------

General Integration Accuracy     IntAcc      ... 3.467
Radial Grid Type                 RadialGrid  ... OptM3 with GC (2021)
Angular Grid (max. ang.)         AngularGrid ... 1 (Lebedev-50)
Angular grid pruning method      GridPruning ... 4 (adaptive)
Weight generation scheme         WeightScheme... Becke
Basis function cutoff            BFCut       ... 1.0000e-11
Integration weight cutoff        WCut        ... 1.0000e-14
Angular grids for H and He will be reduced by one unit
Partially contracted basis set               ... off
Rotationally invariant grid construction     ... off

Total number of grid points                  ...     4538
Total number of batches                      ...       75
Average number of points per batch           ...       60
Average number of grid points per atom       ...      648

---------------------
COSX-INTEGRATION GRID
---------------------

General Integration Accuracy     IntAcc      ... 3.067
Radial Grid Type                 RadialGrid  ... OptM3 with GC (2021)
Angular Grid (max. ang.)         AngularGrid ... 1 (Lebedev-50)
Angular grid pruning method      GridPruning ... 4 (adaptive)
Weight generation scheme         WeightScheme... Becke
Basis function cutoff            BFCut       ... 1.0000e-11
Integration weight cutoff        WCut        ... 1.0000e-14
Angular grids for H and He will be reduced by one unit
Partially contracted basis set               ... on
Rotationally invariant grid construction     ... off

Total number of grid points                  ...     2086
Total number of batches                      ...       38
Average number of points per batch           ...       54
Average number of grid points per atom       ...      298

---------------
TD-DFT XC SETUP
---------------

DFT calculation                         ... on
Name of the grid file                   ... ox_es1_A_orca0012.grid_cis.tmp
Exchange functional (TD-DFT)            ... PBE
   PBE kappa parameter  XKappa (TD-DFT) ...  0.804000
   PBE mue parameter   XMuePBE (TD-DFT) ...  0.219520
Correlation functional (TD-DFT)         ... PBE
   PBE beta parameter CBetaPBE (TD-DFT) ...  0.066725
 LDA part of GGA corr.  LDAOpt (TD-DFT) ... PW91-LDA
Hybrid DFT                              ... on
   Exchange mixing (TD-DFT)             ...  0.250
   GGA exch. scaling (TD-DFT)           ...  0.750
   GGA corr. scaling (TD-DFT)           ...  1.000

Building densities             ... done
Calculating rho(r) on the grid ... done
Building xc-kernel on the grid ... done
                    *** TD-DFT CALCULATION INITIALIZED ***

------------------------
DAVIDSON-DIAGONALIZATION
------------------------

Dimension of the eigenvalue problem            ...    945
Number of roots to be determined               ...      1
Maximum size of the expansion space            ...     10
Maximum number of iterations                   ...    100
Convergence tolerance for the residual         ...    2.500e-07
Convergence tolerance for the energies         ...    2.500e-07
Orthogonality tolerance                        ...    1.000e-14
Level Shift                                    ...    0.000e+00
Constructing the preconditioner                ... o.k.
Building the initial guess                     ... o.k.
Number of trial vectors determined             ...     10


                       ****Iteration    0****

   Memory handling for direct AO based CIS:
   Memory per vector needed      ...     1 MB
   Memory needed                 ...     1 MB
   Memory available              ...  3000 MB
   Number of vectors per batch   ...  3000
   Number of batches             ...     1
   Time for densities:            0.000
   Time for RI-J (Direct):        0.015
   Time for K (COSX):             0.054
   Time for XC-Integration:       0.016
   Time for Sigma-Completion:     0.000
   Size of expansion space: 3
   Lowest Energy          :     0.281570951817
   Maximum Energy change  :     0.281570951817 (vector 0)
   Maximum residual norm  :     0.004267065246

                       ****Iteration    1****
   Time for densities:            0.000
   Time for RI-J (Direct):        0.012
   Time for K (COSX):             0.048
   Time for XC-Integration:       0.007
   Time for Sigma-Completion:     0.000
   Size of expansion space: 4
   Lowest Energy          :     0.277701673044
   Maximum Energy change  :     0.003869278773 (vector 0)
   Maximum residual norm  :     0.000599479579

                       ****Iteration    2****
   Time for densities:            0.000
   Time for RI-J (Direct):        0.012
   Time for K (COSX):             0.048
   Time for XC-Integration:       0.007
   Time for Sigma-Completion:     0.000
   Size of expansion space: 5
   Lowest Energy          :     0.276873504157
   Maximum Energy change  :     0.000828168887 (vector 0)
   Maximum residual norm  :     0.000122577801

                       ****Iteration    3****
   Time for densities:            0.000
   Time for RI-J (Direct):        0.012
   Time for K (COSX):             0.048
   Time for XC-Integration:       0.007
   Time for Sigma-Completion:     0.000
   Size of expansion space: 6
   Lowest Energy          :     0.276735490978
   Maximum Energy change  :     0.000138013179 (vector 0)
   Maximum residual norm  :     0.000017547504

                       ****Iteration    4****
   Time for densities:            0.000
   Time for RI-J (Direct):        0.012
   Time for K (COSX):             0.048
   Time for XC-Integration:       0.007
   Time for Sigma-Completion:     0.000
   Size of expansion space: 7
   Lowest Energy          :     0.276696435575
   Maximum Energy change  :     0.000039055403 (vector 0)
   Maximum residual norm  :     0.000007970097

                       ****Iteration    5****
   Time for densities:            0.000
   Time for RI-J (Direct):        0.012
   Time for K (COSX):             0.048
   Time for XC-Integration:       0.007
   Time for Sigma-Completion:     0.000
   Size of expansion space: 8
   Lowest Energy          :     0.276684674301
   Maximum Energy change  :     0.000011761274 (vector 0)
   Maximum residual norm  :     0.000000492429

                       ****Iteration    6****
   Time for densities:            0.000
   Time for RI-J (Direct):        0.012
   Time for K (COSX):             0.048
   Time for XC-Integration:       0.007
   Time for Sigma-Completion:     0.000
   Size of expansion space: 9
   Lowest Energy          :     0.276684035701
   Maximum Energy change  :     0.000000638599 (vector 0)
   Maximum residual norm  :     0.000000040699

      *** CONVERGENCE OF RESIDUAL NORM REACHED ***

Storing the converged CI vectors               ... ox_es1_A_orca0012.cis1

                 *** DAVIDSON DONE ***

Total time for solving the CIS problem:     0.489sec

------------------------------------
TD-DFT/TDA EXCITED STATES (SINGLETS)
------------------------------------

the weight of the individual excitations are printed if larger than 1.0e-02

STATE  1:  E=   0.276684 au      7.529 eV    60725.1 cm**-1 <S**2> =   0.000000
    11a ->  12a  :     0.766314 (c= -0.87539354)
    11a ->  13a  :     0.200727 (c=  0.44802533)


-----------------------------
TD-DFT/TDA-EXCITATION SPECTRA
-----------------------------

Center of mass = (  0.0711,  0.0244, -0.0901)
Calculating the Dipole integrals                  ... done
Transforming integrals                            ... done
Calculating the Linear Momentum integrals         ... done
Transforming integrals                            ... done
Calculating angular momentum integrals            ... done
Transforming integrals                            ... done

-----------------------------------------------------------------------------
         ABSORPTION SPECTRUM VIA TRANSITION ELECTRIC DIPOLE MOMENTS
-----------------------------------------------------------------------------
State   Energy    Wavelength  fosc         T2        TX        TY        TZ  
        (cm-1)      (nm)                 (au**2)    (au)      (au)      (au) 
-----------------------------------------------------------------------------
   1   60725.1    164.7   0.024614818   0.13345   0.06836  -0.08173   0.34942

-----------------------------------------------------------------------------
         ABSORPTION SPECTRUM VIA TRANSITION VELOCITY DIPOLE MOMENTS
-----------------------------------------------------------------------------
State   Energy    Wavelength   fosc        P2         PX        PY        PZ  
        (cm-1)      (nm)                 (au**2)     (au)      (au)      (au) 
-----------------------------------------------------------------------------
   1   60725.1    164.7   0.031204918   0.01295  -0.00892   0.00158  -0.11344

-------------------------------------------------------------------
                             CD SPECTRUM
-------------------------------------------------------------------
State  Energy     Wavelength     R         MX        MY        MZ   
       (cm-1)       (nm)     (1e40*cgs)   (au)      (au)      (au)  
-------------------------------------------------------------------
   1   60725.1    164.7     -2.79552   0.11994   0.17238  -0.00011

-------------------------------------------------------------------
         CD SPECTRUM VIA TRANSITION VELOCITY DIPOLE MOMENTS        
-------------------------------------------------------------------
State  Energy     Wavelength     R         MX        MY        MZ   
       (cm-1)       (nm)     (1e40*cgs)   (au)      (au)      (au)  
-------------------------------------------------------------------
   1   60725.1    164.7     -1.33628   0.11994   0.17238  -0.00011

Total run time:        0.848 sec

           *** ORCA-CIS/TD-DFT FINISHED WITHOUT ERROR ***

Maximum memory used throughout the entire CIS-calculation: 49.4 MB

-----------------------
CIS/TD-DFT TOTAL ENERGY
-----------------------

    E(SCF)  =   -153.642416161 Eh
    DE(CIS) =      0.276684036 Eh (Root  1)
    ----------------------------- ---------
    E(tot)  =   -153.365732125 Eh



-------------------------------------------------------------------------------
                          DFT DISPERSION CORRECTION                            
                                                                               
                              DFTD3 V3.1  Rev 1                                
                          USING Becke-Johnson damping                          
-------------------------------------------------------------------------------
The PBE0 functional is recognized
Active option DFTDOPT                   ...         4   

molecular C6(AA) [au] = 351.567841 


            DFT-D V3
 parameters
 s6 scaling factor         :     1.0000 
 a1 scaling factor         :     0.4145 
 s8 scaling factor         :     1.2177 
 a2 scaling factor         :     4.8593 
 ad hoc parameters k1-k3   :    16.0000     1.3333    -4.0000 

 Edisp/kcal,au: -1.508850732902  -0.002404506441 
 E6   /kcal   :  -0.988775989 
 E8   /kcal   :  -0.520074744 
 % E8         :  34.468269975 

-------------------------   ----------------
Dispersion correction           -0.002404506
-------------------------   ----------------


-------------------------   --------------------
FINAL SINGLE POINT ENERGY      -153.368136631478
-------------------------   --------------------



           ************************************************************
           *        Program running with 8 parallel MPI-processes     *
           *              working on a common directory               *
           ************************************************************
------------------------------------------------------------------------------
                         ORCA SCF GRADIENT CALCULATION
------------------------------------------------------------------------------


------------------------
TD-DFT GRADIENT XC SETUP
------------------------

Building densities                     ... done
Calculating rho(r) on the grid         ... done
Building xc-kernel on the grid         ... done
Building xc 3rd derivative on the grid      ... done
                *** TD-DFT GRADIENT CALCULATION INITIALIZED ***

-------------------
TD-DFT/TDA GRADIENT
-------------------

Reference wavefunction             ... RHF
State of interest                  ... 1
Basis dimension                    ... 117
DFT-XC contribution needed         ... YES
RI-approximation                   ... ON
CIS-vectors being read from        ... ox_es1_A_orca0012.cis

 => Number of Vectors found: 1
 => Orbital Window: 3...11 -> 12...116

Reading the CIS file                     ... done
Norm of the CI vector                    ... 1.000000000
Making the CIS (pseudo)densities         ... done
Making operators G(D) and Q(T)           ... done
Transforming the Fock operators          ... done
Making the frozen-core relaxed density   ... done
Constructing the G(H) operator           ... done
Transforming the G(H) operator           ... done
Calculating the CIS Lagrangian           ... done
Solving the Z-vector equations           ... done
Finalizing the relaxed density           ... done
Storing the relaxed density              ... done
Constructing the G(Z) operator           ... done
Transforming the G(Z) operator           ... done
Making the W-matrix                      ... done
Finalizing the W-matrix                  ... done
Transforming the W-matrix                ... done
Nuclear repulsion gradient               ... done
One-Electron gradient                    ... done
Dispersion correction                    ... done
Prescreening matrices                    ... done
COSX-gradient                            ... done
Coulomb gradient (RI)                    ... done
Exchange-Correlation gradient            ... done

                 ---------------------------
                 EXCITED STATE GRADIENT DONE
                 ---------------------------

------------------
CARTESIAN GRADIENT
------------------

   1   O   :   -0.090925497   -0.120408245    0.013530471
   2   C   :    0.046422638    0.106083454   -0.077321532
   3   C   :    0.045166964    0.019150196   -0.096801088
   4   H   :   -0.009209889   -0.001497098    0.006531198
   5   H   :    0.027227197    0.011144781    0.055121515
   6   H   :   -0.041676459    0.008185569    0.051699831
   7   H   :    0.023061866   -0.022732074    0.047226315

Difference to translation invariance:
           :    0.0000668190   -0.0000734165   -0.0000132911

Difference to rotation invariance:
           :   -0.0004182370   -0.0001668307    0.0000064736

Norm of the cartesian gradient     ...    0.2567150815
RMS gradient                       ...    0.0560198235
MAX gradient                       ...    0.1204082448

------------------------------------------------------------------------------
                  RELAXED CIS/TDA DENSITY POPULATION ANALYSIS
                                   IROOT 1
------------------------------------------------------------------------------
------------------------------------------------------------------------------
                           ORCA POPULATION ANALYSIS
------------------------------------------------------------------------------
Input electron density              ... ox_es1_A_orca0012.cisp
BaseName (.gbw .S,...)              ... ox_es1_A_orca0012

                    ********************************
                    * MULLIKEN POPULATION ANALYSIS *
                    ********************************

-----------------------
MULLIKEN ATOMIC CHARGES
-----------------------
   0 O :    0.129906
   1 C :   -0.586849
   2 C :   -0.072934
   3 H :    0.096784
   4 H :    0.148353
   5 H :    0.135944
   6 H :    0.148794
Sum of atomic charges:    0.0000000

--------------------------------
MULLIKEN REDUCED ORBITAL CHARGES
--------------------------------
  0 O s       :     3.758360  s :     3.758360
      pz      :     1.140486  p :     4.069854
      px      :     1.508896
      py      :     1.420473
      dz2     :     0.003751  d :     0.040354
      dxz     :     0.002746
      dyz     :     0.007060
      dx2y2   :     0.012370
      dxy     :     0.014427
      f0      :     0.000104  f :     0.001526
      f+1     :    -0.000018
      f-1     :     0.000183
      f+2     :     0.000099
      f-2     :     0.000196
      f+3     :     0.000382
      f-3     :     0.000581
  1 C s       :     3.331734  s :     3.331734
      pz      :     1.084936  p :     3.153938
      px      :     0.859627
      py      :     1.209375
      dz2     :     0.006059  d :     0.090895
      dxz     :     0.011946
      dyz     :     0.007136
      dx2y2   :     0.030208
      dxy     :     0.035547
      f0      :     0.000765  f :     0.010281
      f+1     :     0.001154
      f-1     :     0.001195
      f+2     :     0.000632
      f-2     :     0.001479
      f+3     :     0.002944
      f-3     :     0.002113
  2 C s       :     3.197340  s :     3.197340
      pz      :     1.028950  p :     2.773845
      px      :     1.010448
      py      :     0.734447
      dz2     :     0.005813  d :     0.090685
      dxz     :     0.023525
      dyz     :     0.013342
      dx2y2   :     0.028568
      dxy     :     0.019436
      f0      :     0.001019  f :     0.011064
      f+1     :     0.001440
      f-1     :     0.000722
      f+2     :     0.000881
      f-2     :     0.001318
      f+3     :     0.002711
      f-3     :     0.002972
  3 H s       :     0.876665  s :     0.876665
      pz      :     0.008795  p :     0.026550
      px      :     0.006106
      py      :     0.011650
  4 H s       :     0.822275  s :     0.822275
      pz      :     0.009511  p :     0.029372
      px      :     0.007998
      py      :     0.011863
  5 H s       :     0.839016  s :     0.839016
      pz      :     0.011635  p :     0.025039
      px      :     0.008111
      py      :     0.005293
  6 H s       :     0.833316  s :     0.833316
      pz      :     0.009173  p :     0.017890
      px      :     0.005823
      py      :     0.002894


                     *******************************
                     * LOEWDIN POPULATION ANALYSIS *
                     *******************************

----------------------
LOEWDIN ATOMIC CHARGES
----------------------
   0 O :    0.401573
   1 C :   -0.585536
   2 C :   -0.320923
   3 H :    0.113123
   4 H :    0.100437
   5 H :    0.114798
   6 H :    0.176527

-------------------------------
LOEWDIN REDUCED ORBITAL CHARGES
-------------------------------
  0 O s       :     3.434565  s :     3.434565
      pz      :     1.078570  p :     4.046133
      px      :     1.479449
      py      :     1.488114
      dz2     :     0.014323  d :     0.111131
      dxz     :     0.008612
      dyz     :     0.015040
      dx2y2   :     0.035339
      dxy     :     0.037817
      f0      :     0.000614  f :     0.006597
      f+1     :     0.000194
      f-1     :     0.000765
      f+2     :     0.000190
      f-2     :     0.000928
      f+3     :     0.001327
      f-3     :     0.002580
  1 C s       :     2.864153  s :     2.864153
      pz      :     1.079937  p :     3.151625
      px      :     1.004874
      py      :     1.066814
      dz2     :     0.048399  d :     0.497230
      dxz     :     0.094102
      dyz     :     0.036747
      dx2y2   :     0.130952
      dxy     :     0.187031
      f0      :     0.005259  f :     0.072529
      f+1     :     0.006401
      f-1     :     0.010114
      f+2     :     0.003686
      f-2     :     0.006383
      f+3     :     0.024821
      f-3     :     0.015864
  2 C s       :     2.843777  s :     2.843777
      pz      :     1.021009  p :     2.963531
      px      :     1.084205
      py      :     0.858317
      dz2     :     0.055698  d :     0.437423
      dxz     :     0.111255
      dyz     :     0.051711
      dx2y2   :     0.117125
      dxy     :     0.101633
      f0      :     0.008089  f :     0.076191
      f+1     :     0.006040
      f-1     :     0.006981
      f+2     :     0.006271
      f-2     :     0.005792
      f+3     :     0.020290
      f-3     :     0.022728
  3 H s       :     0.812018  s :     0.812018
      pz      :     0.027492  p :     0.074859
      px      :     0.015741
      py      :     0.031625
  4 H s       :     0.809470  s :     0.809470
      pz      :     0.033509  p :     0.090093
      px      :     0.023161
      py      :     0.033422
  5 H s       :     0.806675  s :     0.806675
      pz      :     0.038261  p :     0.078527
      px      :     0.023802
      py      :     0.016465
  6 H s       :     0.775967  s :     0.775967
      pz      :     0.025338  p :     0.047506
      px      :     0.014874
      py      :     0.007295


                      *****************************
                      * MAYER POPULATION ANALYSIS *
                      *****************************

  NA   - Mulliken gross atomic population
  ZA   - Total nuclear charge
  QA   - Mulliken gross atomic charge
  VA   - Mayer's total valence
  BVA  - Mayer's bonded valence
  FA   - Mayer's free valence

  ATOM       NA         ZA         QA         VA         BVA        FA
  0 O      7.8701     8.0000     0.1299     1.8598     1.1839     0.6759
  1 C      6.5868     6.0000    -0.5868     3.9285     3.1085     0.8200
  2 C      6.0729     6.0000    -0.0729     3.7168     3.6026     0.1142
  3 H      0.9032     1.0000     0.0968     1.0318     0.9202     0.1116
  4 H      0.8516     1.0000     0.1484     1.0003     0.9529     0.0474
  5 H      0.8641     1.0000     0.1359     0.9945     0.9487     0.0458
  6 H      0.8512     1.0000     0.1488     1.0000     0.9093     0.0907

  Mayer bond orders larger than 0.100000
B(  0-O ,  1-C ) :   0.2303 B(  0-O ,  2-C ) :   0.8926 B(  1-C ,  2-C ) :   1.0021 
B(  1-C ,  3-H ) :   0.8977 B(  1-C ,  4-H ) :   0.9367 B(  2-C ,  5-H ) :   0.9161 
B(  2-C ,  6-H ) :   0.8346 


-------
TIMINGS
-------

Total TD-DFT gradient time         ...        5.108 sec

Fock matrix formation       ....       0.850 sec  ( 16.6%)
  Coulomb formation         ....       0.694 sec  ( 81.6% of F)
  RI-J                      ....       0.297 sec  ( 34.9% of F)
  Chain of spheres X        ....       0.396 sec  ( 46.6% of F)
  XC integration            ....       0.157 sec  ( 18.4% of F)
Z-vector equation           ....       1.409 sec  ( 27.6%)
One electron gradient       ....       0.032 sec  (  0.6%)
Prescreening matrices       ....       0.154 sec  (  3.0%)
RI-J Coulomb gradient       ....       0.240 sec  (  4.7%)
COSX gradient               ....       0.332 sec  (  6.5%)
XC gradient                 ....       1.716 sec  ( 33.6%)

Maximum memory used throughout the entire SCFGRAD-calculation: 130.3 MB

                            ***************************************
                            *     ORCA property calculations      *
                            ***************************************

                                    ---------------------
                                    Active property flags
                                    ---------------------
   (+) Dipole Moment


------------------------------------------------------------------------------
                       ORCA ELECTRIC PROPERTIES CALCULATION
------------------------------------------------------------------------------

Dipole Moment Calculation                       ... on
Quadrupole Moment Calculation                   ... off
Polarizability Calculation                      ... off
GBWName                                         ... ox_es1_A_orca0012.gbw
Electron density                                ... ox_es1_A_orca0012.scfp
The origin for moment calculation is the CENTER OF MASS  = ( 0.071130,  0.024383 -0.090135)

-------------
DIPOLE MOMENT
-------------
                                X             Y             Z
Electronic contribution:      0.09680       2.06566      -0.30953
Nuclear contribution   :     -0.15436      -2.84290       0.26779
                        -----------------------------------------
Total Dipole Moment    :     -0.05756      -0.77725      -0.04173
                        -----------------------------------------
Magnitude (a.u.)       :      0.78049
Magnitude (Debye)      :      1.98385



--------------------
Rotational spectrum 
--------------------
 
Rotational constants in cm-1:     0.860083     0.704908     0.455716 
Rotational constants in MHz : 25784.632409 21132.602749 13662.008573 

 Dipole components along the rotational axes: 
x,y,z [a.u.] :    -0.306162    -0.712676    -0.086739 
x,y,z [Debye]:    -0.778202    -1.811479    -0.220473 

 

                        *** CIS RELAXED DENSITY ***

------------------------------------------------------------------------------
                       ORCA ELECTRIC PROPERTIES CALCULATION
------------------------------------------------------------------------------

Dipole Moment Calculation                       ... on
Quadrupole Moment Calculation                   ... off
Polarizability Calculation                      ... off
GBWName                                         ... ox_es1_A_orca0012.gbw
Electron density                                ... ox_es1_A_orca0012.cisp
The origin for moment calculation is the CENTER OF MASS  = ( 0.071130,  0.024383 -0.090135)

-------------
DIPOLE MOMENT
-------------
                                X             Y             Z
Electronic contribution:      1.00267       2.77359      -0.36153
Nuclear contribution   :     -0.15436      -2.84290       0.26779
                        -----------------------------------------
Total Dipole Moment    :      0.84831      -0.06931      -0.09374
                        -----------------------------------------
Magnitude (a.u.)       :      0.85628
Magnitude (Debye)      :      2.17649



--------------------
Rotational spectrum 
--------------------
 
Rotational constants in cm-1:     0.860083     0.704908     0.455716 
Rotational constants in MHz : 25784.632409 21132.602749 13662.008573 

 Dipole components along the rotational axes: 
x,y,z [a.u.] :     0.780993    -0.335470    -0.103563 
x,y,z [Debye]:     1.985125    -0.852698    -0.263237 

 

Timings for individual modules:

Sum of individual times         ...        8.055 sec (=   0.134 min)
GTO integral calculation        ...        0.364 sec (=   0.006 min)   4.5 %
SCF iterations                  ...        1.211 sec (=   0.020 min)  15.0 %
CIS module                      ...        1.145 sec (=   0.019 min)  14.2 %
SCF Gradient evaluation         ...        5.335 sec (=   0.089 min)  66.2 %
                             ****ORCA TERMINATED NORMALLY****
TOTAL RUN TIME: 0 days 0 hours 0 minutes 8 seconds 482 msec
