
                                 *****************
                                 * O   R   C   A *
                                 *****************

                                            #,                                       
                                            ###                                      
                                            ####                                     
                                            #####                                    
                                            ######                                   
                                           ########,                                 
                                     ,,################,,,,,                         
                               ,,#################################,,                 
                          ,,##########################################,,             
                       ,#########################################, ''#####,          
                    ,#############################################,,   '####,        
                  ,##################################################,,,,####,       
                ,###########''''           ''''###############################       
              ,#####''   ,,,,##########,,,,          '''####'''          '####       
            ,##' ,,,,###########################,,,                        '##       
           ' ,,###''''                  '''############,,,                           
         ,,##''                                '''############,,,,        ,,,,,,###''
      ,#''                                            '''#######################'''  
     '                                                          ''''####''''         
             ,#######,   #######,   ,#######,      ##                                
            ,#'     '#,  ##    ##  ,#'     '#,    #''#        ######   ,####,        
            ##       ##  ##   ,#'  ##            #'  '#       #        #'  '#        
            ##       ##  #######   ##           ,######,      #####,   #    #        
            '#,     ,#'  ##    ##  '#,     ,#' ,#      #,         ##   #,  ,#        
             '#######'   ##     ##  '#######'  #'      '#     #####' # '####'        



                  #######################################################
                  #                        -***-                        #
                  #          Department of theory and spectroscopy      #
                  #    Directorship and core code : Frank Neese         #
                  #        Max Planck Institute fuer Kohlenforschung    #
                  #                Kaiser Wilhelm Platz 1               #
                  #                 D-45470 Muelheim/Ruhr               #
                  #                      Germany                        #
                  #                                                     #
                  #                  All rights reserved                #
                  #                        -***-                        #
                  #######################################################


                         Program Version 5.0.2 -  RELEASE  -


 With contributions from (in alphabetic order):
   Daniel Aravena         : Magnetic Suceptibility
   Michael Atanasov       : Ab Initio Ligand Field Theory (pilot matlab implementation)
   Alexander A. Auer      : GIAO ZORA, VPT2 properties, NMR spectrum
   Ute Becker             : Parallelization
   Giovanni Bistoni       : ED, misc. LED, open-shell LED, HFLD
   Martin Brehm           : Molecular dynamics
   Dmytro Bykov           : SCF Hessian
   Vijay G. Chilkuri      : MRCI spin determinant printing, contributions to CSF-ICE
   Dipayan Datta          : RHF DLPNO-CCSD density
   Achintya Kumar Dutta   : EOM-CC, STEOM-CC
   Dmitry Ganyushin       : Spin-Orbit,Spin-Spin,Magnetic field MRCI
   Miquel Garcia          : C-PCM and meta-GGA Hessian, CC/C-PCM, Gaussian charge scheme
   Yang Guo               : DLPNO-NEVPT2, F12-NEVPT2, CIM, IAO-localization
   Andreas Hansen         : Spin unrestricted coupled pair/coupled cluster methods
   Benjamin Helmich-Paris : MC-RPA, TRAH-SCF, COSX integrals
   Lee Huntington         : MR-EOM, pCC
   Robert Izsak           : Overlap fitted RIJCOSX, COSX-SCS-MP3, EOM
   Marcus Kettner         : VPT2
   Christian Kollmar      : KDIIS, OOCD, Brueckner-CCSD(T), CCSD density, CASPT2, CASPT2-K
   Simone Kossmann        : Meta GGA functionals, TD-DFT gradient, OOMP2, MP2 Hessian
   Martin Krupicka        : Initial AUTO-CI
   Lucas Lang             : DCDCAS
   Marvin Lechner         : AUTO-CI (C++ implementation), FIC-MRCC
   Dagmar Lenk            : GEPOL surface, SMD
   Dimitrios Liakos       : Extrapolation schemes; Compound Job, initial MDCI parallelization
   Dimitrios Manganas     : Further ROCIS development; embedding schemes
   Dimitrios Pantazis     : SARC Basis sets
   Anastasios Papadopoulos: AUTO-CI, single reference methods and gradients
   Taras Petrenko         : DFT Hessian,TD-DFT gradient, ASA, ECA, R-Raman, ABS, FL, XAS/XES, NRVS
   Peter Pinski           : DLPNO-MP2, DLPNO-MP2 Gradient
   Christoph Reimann      : Effective Core Potentials
   Marius Retegan         : Local ZFS, SOC
   Christoph Riplinger    : Optimizer, TS searches, QM/MM, DLPNO-CCSD(T), (RO)-DLPNO pert. Triples
   Tobias Risthaus        : Range-separated hybrids, TD-DFT gradient, RPA, STAB
   Michael Roemelt        : Original ROCIS implementation
   Masaaki Saitow         : Open-shell DLPNO-CCSD energy and density
   Barbara Sandhoefer     : DKH picture change effects
   Avijit Sen             : IP-ROCIS
   Kantharuban Sivalingam : CASSCF convergence, NEVPT2, FIC-MRCI
   Bernardo de Souza      : ESD, SOC TD-DFT
   Georgi Stoychev        : AutoAux, RI-MP2 NMR, DLPNO-MP2 response
   Willem Van den Heuvel  : Paramagnetic NMR
   Boris Wezisla          : Elementary symmetry handling
   Frank Wennmohs         : Technical directorship


 We gratefully acknowledge several colleagues who have allowed us to
 interface, adapt or use parts of their codes:
   Stefan Grimme, W. Hujo, H. Kruse, P. Pracht,  : VdW corrections, initial TS optimization,
                  C. Bannwarth, S. Ehlert          DFT functionals, gCP, sTDA/sTD-DF
   Ed Valeev, F. Pavosevic, A. Kumar             : LibInt (2-el integral package), F12 methods
   Garnet Chan, S. Sharma, J. Yang, R. Olivares  : DMRG
   Ulf Ekstrom                                   : XCFun DFT Library
   Mihaly Kallay                                 : mrcc  (arbitrary order and MRCC methods)
   Jiri Pittner, Ondrej Demel                    : Mk-CCSD
   Frank Weinhold                                : gennbo (NPA and NBO analysis)
   Christopher J. Cramer and Donald G. Truhlar   : smd solvation model
   Lars Goerigk                                  : TD-DFT with DH, B97 family of functionals
   V. Asgeirsson, H. Jonsson                     : NEB implementation
   FAccTs GmbH                                   : IRC, NEB, NEB-TS, DLPNO-Multilevel, CI-OPT
                                                   MM, QMMM, 2- and 3-layer-ONIOM, Crystal-QMMM,
                                                   LR-CPCM, SF, NACMEs, symmetry and pop. for TD-DFT,
                                                   nearIR, NL-DFT gradient (VV10), updates on ESD,
                                                   ML-optimized integration grids
   S Lehtola, MJT Oliveira, MAL Marques          : LibXC Library
   Liviu Ungur et al                             : ANISO software


 Your calculation uses the libint2 library for the computation of 2-el integrals
 For citations please refer to: http://libint.valeyev.net

 Your ORCA version has been built with support for libXC version: 5.1.0
 For citations please refer to: https://tddft.org/programs/libxc/

 This ORCA versions uses:
   CBLAS   interface :  Fast vector & matrix operations
   LAPACKE interface :  Fast linear algebra routines
   SCALAPACK package :  Parallel linear algebra routines
   Shared memory     :  Shared parallel matrices
   BLAS/LAPACK       :  OpenBLAS 0.3.15  USE64BITINT DYNAMIC_ARCH NO_AFFINITY SkylakeX SINGLE_THREADED
        Core in use  :  SkylakeX
   Copyright (c) 2011-2014, The OpenBLAS Project


Your calculation utilizes the atom-pairwise dispersion correction
with the Becke-Johnson damping scheme (D3BJ)
Cite in your paper:
S.Grimme, S.Ehrlich, L.Goerigk, J Comput Chem, (2011), 32, 1456–1465 
S.Grimme, J.Antony, S.Ehrlich and H.Krieg, J.Chem.Phys., 132, (2010), 154104 
   

================================================================================

----- Orbital basis set information -----
Your calculation utilizes the basis: def2-TZVP
   F. Weigend and R. Ahlrichs, Phys. Chem. Chem. Phys. 7, 3297 (2005).

----- AuxJ basis set information -----
Your calculation utilizes the auxiliary basis: def2/J
   F. Weigend, Phys. Chem. Chem. Phys. 8, 1057 (2006).

================================================================================
                                        WARNINGS
                       Please study these warnings very carefully!
================================================================================

INFO   : Checking CIS options ...

WARNING: CIS/ROCIS methods need fully converged wavefunctions
  ===> : Setting SCFConvForced true
         You can overwrite this default with %scf ConvForced false 


INFO   : the flag for use of the SHARK integral package has been found!

================================================================================
                                       INPUT FILE
================================================================================
NAME = ox_es1_E_orca0008.inp
|  1> ! engrad PBE0 D3BJ def2-TZVP  
|  2> %pal nprocs 8 end
|  3> %maxcore 3000
|  4> 
|  5> %tddft
|  6>   nroots 1
|  7>   tda true
|  8>   Iroot 1
|  9>   end 
| 10> *xyz 0 1 
| 11> O   -0.8744211899781744 1.0316561987153434 -0.02710648280295611
| 12> C   -0.7070118403386143 -0.4130161709232789 -0.053022985798070056
| 13> C   0.7287998948021709 -0.4320916164327292 0.013349535823322524
| 14> H   -1.2726054453418862 -0.6052289420968379 0.9663233387867357
| 15> H   -1.183357144107224 -0.710669112027649 -0.9091622697433602
| 16> H   1.331424410597199 -0.6718611107528829 -0.9090997867277901
| 17> H   1.2419530228645375 -0.6963530938897408 0.942057754606721
| 18> *
| 19> 
| 20>                          ****END OF INPUT****
================================================================================

                     *******************************
                     * Energy+Gradient Calculation *
                     *******************************

---------------------------------
CARTESIAN COORDINATES (ANGSTROEM)
---------------------------------
  O     -0.874421    1.031656   -0.027106
  C     -0.707012   -0.413016   -0.053023
  C      0.728800   -0.432092    0.013350
  H     -1.272605   -0.605229    0.966323
  H     -1.183357   -0.710669   -0.909162
  H      1.331424   -0.671861   -0.909100
  H      1.241953   -0.696353    0.942058

----------------------------
CARTESIAN COORDINATES (A.U.)
----------------------------
  NO LB      ZA    FRAG     MASS         X           Y           Z
   0 O     8.0000    0    15.999   -1.652417    1.949548   -0.051224
   1 C     6.0000    0    12.011   -1.336059   -0.780487   -0.100199
   2 C     6.0000    0    12.011    1.377232   -0.816535    0.025227
   3 H     1.0000    0     1.008   -2.404876   -1.143717    1.826086
   4 H     1.0000    0     1.008   -2.236221   -1.342970   -1.718068
   5 H     1.0000    0     1.008    2.516028   -1.269633   -1.717950
   6 H     1.0000    0     1.008    2.346951   -1.315917    1.780231

--------------------------------
INTERNAL COORDINATES (ANGSTROEM)
--------------------------------
 O      0   0   0     0.000000000000     0.00000000     0.00000000
 C      1   0   0     1.454570662110     0.00000000     0.00000000
 C      2   1   0     1.437471572942    97.31453275     0.00000000
 H      2   1   3     1.181485846241    95.22758214   116.95720494
 H      2   1   3     1.023951461391   104.48156551   236.41410311
 H      3   2   1     1.127634014261   119.92382081   254.91276146
 H      3   2   1     1.093462032694   120.74202186   104.52659858

---------------------------
INTERNAL COORDINATES (A.U.)
---------------------------
 O      0   0   0     0.000000000000     0.00000000     0.00000000
 C      1   0   0     2.748740193825     0.00000000     0.00000000
 C      2   1   0     2.716427598157    97.31453275     0.00000000
 H      2   1   3     2.232684680499    95.22758214   116.95720494
 H      2   1   3     1.934987836458   104.48156551   236.41410311
 H      3   2   1     2.130919466248   119.92382081   254.91276146
 H      3   2   1     2.066343779633   120.74202186   104.52659858

---------------------
BASIS SET INFORMATION
---------------------
There are 3 groups of distinct atoms

 Group   1 Type O   : 11s6p2d1f contracted to 5s3p2d1f pattern {62111/411/11/1}
 Group   2 Type C   : 11s6p2d1f contracted to 5s3p2d1f pattern {62111/411/11/1}
 Group   3 Type H   : 5s1p contracted to 3s1p pattern {311/1}

Atom   0O    basis set group =>   1
Atom   1C    basis set group =>   2
Atom   2C    basis set group =>   2
Atom   3H    basis set group =>   3
Atom   4H    basis set group =>   3
Atom   5H    basis set group =>   3
Atom   6H    basis set group =>   3
---------------------------------
AUXILIARY/J BASIS SET INFORMATION
---------------------------------
There are 3 groups of distinct atoms

 Group   1 Type O   : 12s5p4d2f1g contracted to 6s4p3d1f1g pattern {711111/2111/211/2/1}
 Group   2 Type C   : 12s5p4d2f1g contracted to 6s4p3d1f1g pattern {711111/2111/211/2/1}
 Group   3 Type H   : 5s2p1d contracted to 3s1p1d pattern {311/2/1}

Atom   0O    basis set group =>   1
Atom   1C    basis set group =>   2
Atom   2C    basis set group =>   2
Atom   3H    basis set group =>   3
Atom   4H    basis set group =>   3
Atom   5H    basis set group =>   3
Atom   6H    basis set group =>   3

Checking for AutoStart:
The File: ox_es1_E_orca0008.gbw exists
Trying to determine its content:
     ... Fine, the file contains calculation information
     ... Fine, the calculation information was read
     ... Fine, the file contains a basis set
     ... Fine, the basis set was read
     ... Fine, the file contains a geometry
     ... Fine, the geometry was read
     ... Fine, the file contains a set of orbitals
     ... Fine, the orbitals can be read
     => possible old guess file was deleted
     => GBW file was renamed to GES file
     => GES file is set as startup file
     => Guess is set to MORead
     ... now leaving AutoStart



           ************************************************************
           *        Program running with 8 parallel MPI-processes     *
           *              working on a common directory               *
           ************************************************************
------------------------------------------------------------------------------
                           ORCA GTO INTEGRAL CALCULATION
                           -- RI-GTO INTEGRALS CHOSEN --
------------------------------------------------------------------------------
------------------------------------------------------------------------------
                   ___                                                        
                  /   \      - P O W E R E D   B Y -                         
                 /     \                                                     
                 |  |  |   _    _      __       _____    __    __             
                 |  |  |  | |  | |    /  \     |  _  \  |  |  /  |          
                  \  \/   | |  | |   /    \    | | | |  |  | /  /          
                 / \  \   | |__| |  /  /\  \   | |_| |  |  |/  /          
                |  |  |   |  __  | /  /__\  \  |    /   |      \           
                |  |  |   | |  | | |   __   |  |    \   |  |\   \          
                \     /   | |  | | |  |  |  |  | |\  \  |  | \   \       
                 \___/    |_|  |_| |__|  |__|  |_| \__\ |__|  \__/        
                                                                              
                      - O R C A' S   B I G   F R I E N D -                    
                                      &                                       
                       - I N T E G R A L  F E E D E R -                       
                                                                              
 v1 FN, 2020, v2 2021                                                         
------------------------------------------------------------------------------


Reading SHARK input file ox_es1_E_orca0008.SHARKINP.tmp ... ok
----------------------
SHARK INTEGRAL PACKAGE
----------------------

Number of atoms                             ...      7
Number of basis functions                   ...    117
Number of shells                            ...     49
Maximum angular momentum                    ...      3
Integral batch strategy                     ... SHARK/LIBINT Hybrid
RI-J (if used) integral strategy            ... SPLIT-RIJ (Revised 2003 algorithm where possible)
Printlevel                                  ...      1
Contraction scheme used                     ... SEGMENTED contraction
Coulomb Range Separation                    ... NOT USED
Exchange Range Separation                   ... NOT USED
Finite Nucleus Model                        ... NOT USED
Auxiliary Coulomb fitting basis             ... AVAILABLE
   # of basis functions in Aux-J            ...    191
   # of shells in Aux-J                     ...     65
   Maximum angular momentum in Aux-J        ...      4
Auxiliary J/K fitting basis                 ... NOT available
Auxiliary Correlation fitting basis         ... NOT available
Auxiliary 'external' fitting basis          ... NOT available
Integral threshold                          ...     2.500000e-11
Primitive cut-off                           ...     2.500000e-12
Primitive pair pre-selection threshold      ...     2.500000e-12

Calculating pre-screening integrals         ... done (  0.0 sec) Dimension = 49
Organizing shell pair data                  ... done (  0.0 sec)
Shell pair information
Total number of shell pairs                 ...      1225
Shell pairs after pre-screening             ...      1213
Total number of primitive shell pairs       ...      3648
Primitive shell pairs kept                  ...      3080
          la=0 lb=0:    367 shell pairs
          la=1 lb=0:    351 shell pairs
          la=1 lb=1:     91 shell pairs
          la=2 lb=0:    161 shell pairs
          la=2 lb=1:     78 shell pairs
          la=2 lb=2:     21 shell pairs
          la=3 lb=0:     81 shell pairs
          la=3 lb=1:     39 shell pairs
          la=3 lb=2:     18 shell pairs
          la=3 lb=3:      6 shell pairs

Calculating one electron integrals          ... done (  0.0 sec)
Calculating RI/J V-Matrix + Cholesky decomp.... done (  0.0 sec)
Calculating Nuclear repulsion               ... done (  0.0 sec) ENN=     68.237293465057 Eh

SHARK setup successfully completed in   0.1 seconds

Maximum memory used throughout the entire GTOINT-calculation: 14.9 MB


           ************************************************************
           *        Program running with 8 parallel MPI-processes     *
           *              working on a common directory               *
           ************************************************************
-------------------------------------------------------------------------------
                                 ORCA SCF
-------------------------------------------------------------------------------

------------
SCF SETTINGS
------------
Hamiltonian:
 Density Functional     Method          .... DFT(GTOs)
 Exchange Functional    Exchange        .... PBE
   PBE kappa parameter   XKappa         ....  0.804000
   PBE mue parameter    XMuePBE         ....  0.219520
 Correlation Functional Correlation     .... PBE
   PBE beta parameter  CBetaPBE         ....  0.066725
 LDA part of GGA corr.  LDAOpt          .... PW91-LDA
 Gradients option       PostSCFGGA      .... off
 Hybrid DFT is turned on
   Fraction HF Exchange ScalHFX         ....  0.250000
   Scaling of DF-GGA-X  ScalDFX         ....  0.750000
   Scaling of DF-GGA-C  ScalDFC         ....  1.000000
   Scaling of DF-LDA-C  ScalLDAC        ....  1.000000
   Perturbative correction              ....  0.000000
   Density functional embedding theory  .... OFF
   NL short-range parameter             ....  6.900000
 RI-approximation to the Coulomb term is turned on
   Number of AuxJ basis functions       .... 191
   RIJ-COSX (HFX calculated with COS-X)).... on


General Settings:
 Integral files         IntName         .... ox_es1_E_orca0008
 Hartree-Fock type      HFTyp           .... RHF
 Total Charge           Charge          ....    0
 Multiplicity           Mult            ....    1
 Number of Electrons    NEL             ....   24
 Basis Dimension        Dim             ....  117
 Nuclear Repulsion      ENuc            ....     68.2372934651 Eh

Convergence Acceleration:
 DIIS                   CNVDIIS         .... on
   Start iteration      DIISMaxIt       ....    12
   Startup error        DIISStart       ....  0.200000
   # of expansion vecs  DIISMaxEq       ....     5
   Bias factor          DIISBfac        ....   1.050
   Max. coefficient     DIISMaxC        ....  10.000
 Trust-Rad. Augm. Hess. CNVTRAH         .... auto
   Auto Start mean grad. ratio tolernc. ....  1.125000
   Auto Start start iteration           ....     1
   Auto Start num. interpolation iter.  ....    10
   Max. Number of Micro iterations      ....    16
   Max. Number of Macro iterations      .... Maxiter - #DIIS iter
   Number of Davidson start vectors     ....     2
   Converg. threshold I  (grad. norm)   ....   1.000e-05
   Converg. threshold II (energy diff.) ....   1.000e-08
   Grad. Scal. Fac. for Micro threshold ....   0.100
   Minimum threshold for Micro iter.    ....   0.010
   NR start threshold (gradient norm)   ....   0.001
   Initial trust radius                 ....   0.400
   Minimum AH scaling param. (alpha)    ....   1.000
   Maximum AH scaling param. (alpha)    .... 1000.000
   Orbital update algorithm             .... Taylor
   White noise on init. David. guess    .... on
   Maximum white noise                  ....   0.010
   Quad. conv. algorithm                .... NR
 SOSCF                  CNVSOSCF        .... on
   Start iteration      SOSCFMaxIt      ....   150
   Startup grad/error   SOSCFStart      ....  0.003300
 Level Shifting         CNVShift        .... on
   Level shift para.    LevelShift      ....    0.2500
   Turn off err/grad.   ShiftErr        ....    0.0010
 Zerner damping         CNVZerner       .... off
 Static damping         CNVDamp         .... on
   Fraction old density DampFac         ....    0.7000
   Max. Damping (<1)    DampMax         ....    0.9800
   Min. Damping (>=0)   DampMin         ....    0.0000
   Turn off err/grad.   DampErr         ....    0.1000
 Fernandez-Rico         CNVRico         .... off

SCF Procedure:
 Maximum # iterations   MaxIter         ....   125
 SCF integral mode      SCFMode         .... Direct
   Integral package                     .... SHARK and LIBINT hybrid scheme
 Reset frequency        DirectResetFreq ....    20
 Integral Threshold     Thresh          ....  2.500e-11 Eh
 Primitive CutOff       TCut            ....  2.500e-12 Eh

Convergence Tolerance:
 Convergence Check Mode ConvCheckMode   .... Total+1el-Energy
 Convergence forced     ConvForced      .... 1
 Energy Change          TolE            ....  1.000e-08 Eh
 1-El. energy change                    ....  1.000e-05 Eh
 Orbital Gradient       TolG            ....  1.000e-05
 Orbital Rotation angle TolX            ....  1.000e-05
 DIIS Error             TolErr          ....  5.000e-07


Diagonalization of the overlap matrix:
Smallest eigenvalue                        ... 4.036e-04
Time for diagonalization                   ...    0.001 sec
Threshold for overlap eigenvalues          ... 1.000e-08
Number of eigenvalues below threshold      ... 0
Time for construction of square roots      ...    0.001 sec
Total time needed                          ...    0.003 sec

---------------------
INITIAL GUESS: MOREAD
---------------------
Guess MOs are being read from file: ox_es1_E_orca0008.ges
Input Geometry matches current geometry (good)
Input basis set matches current basis set (good)
MOs were renormalized
MOs were reorthogonalized (Cholesky)
                      ------------------
                      INITIAL GUESS DONE (   0.0 sec)
                      ------------------
-------------------
DFT GRID GENERATION
-------------------

General Integration Accuracy     IntAcc      ... 4.388
Radial Grid Type                 RadialGrid  ... OptM3 with GC (2021)
Angular Grid (max. ang.)         AngularGrid ... 4 (Lebedev-302)
Angular grid pruning method      GridPruning ... 4 (adaptive)
Weight generation scheme         WeightScheme... Becke
Basis function cutoff            BFCut       ... 1.0000e-11
Integration weight cutoff        WCut        ... 1.0000e-14
Angular grids for H and He will be reduced by one unit
Partially contracted basis set               ... off
Rotationally invariant grid construction     ... off

Total number of grid points                  ...    31323
Total number of batches                      ...      492
Average number of points per batch           ...       63
Average number of grid points per atom       ...     4475
Time for grid setup =    0.126 sec

--------------------
COSX GRID GENERATION
--------------------

GRIDX 1
-------
General Integration Accuracy     IntAcc      ... 3.816
Radial Grid Type                 RadialGrid  ... OptM3 with GC (2021)
Angular Grid (max. ang.)         AngularGrid ... 1 (Lebedev-50)
Angular grid pruning method      GridPruning ... 4 (adaptive)
Weight generation scheme         WeightScheme... Becke
Basis function cutoff            BFCut       ... 1.0000e-11
Integration weight cutoff        WCut        ... 1.0000e-14
Angular grids for H and He will be reduced by one unit
Partially contracted basis set               ... on
Rotationally invariant grid construction     ... off

Total number of grid points                  ...     4034
Total number of batches                      ...       66
Average number of points per batch           ...       61
Average number of grid points per atom       ...      576
UseSFitting                                  ... on

GRIDX 2
-------
General Integration Accuracy     IntAcc      ... 4.020
Radial Grid Type                 RadialGrid  ... OptM3 with GC (2021)
Angular Grid (max. ang.)         AngularGrid ... 2 (Lebedev-110)
Angular grid pruning method      GridPruning ... 4 (adaptive)
Weight generation scheme         WeightScheme... Becke
Basis function cutoff            BFCut       ... 1.0000e-11
Integration weight cutoff        WCut        ... 1.0000e-14
Angular grids for H and He will be reduced by one unit
Partially contracted basis set               ... on
Rotationally invariant grid construction     ... off

Total number of grid points                  ...     8731
Total number of batches                      ...      139
Average number of points per batch           ...       62
Average number of grid points per atom       ...     1247
UseSFitting                                  ... on

GRIDX 3
-------
General Integration Accuracy     IntAcc      ... 4.338
Radial Grid Type                 RadialGrid  ... OptM3 with GC (2021)
Angular Grid (max. ang.)         AngularGrid ... 3 (Lebedev-194)
Angular grid pruning method      GridPruning ... 4 (adaptive)
Weight generation scheme         WeightScheme... Becke
Basis function cutoff            BFCut       ... 1.0000e-11
Integration weight cutoff        WCut        ... 1.0000e-14
Angular grids for H and He will be reduced by one unit
Partially contracted basis set               ... on
Rotationally invariant grid construction     ... off

Total number of grid points                  ...    19268
Total number of batches                      ...      304
Average number of points per batch           ...       63
Average number of grid points per atom       ...     2753
UseSFitting                                  ... on

Time for X-Grid setup             =    0.080 sec

--------------
SCF ITERATIONS
--------------
ITER       Energy         Delta-E        Max-DP      RMS-DP      [F,P]     Damp
               ***  Starting incremental Fock matrix formation  ***
                      *** Initiating the SOSCF procedure ***
                      *** Re-Reading the Fockian *** 
                      *** Removing any level shift *** 
ITER      Energy       Delta-E        Grad      Rot      Max-DP    RMS-DP
  0   -153.54786707 -153.5478670733  0.000000  0.000000  0.000001  0.000000
               *** Restarting incremental Fock matrix formation ***
                 **** Energy Check signals convergence ****
              ***Rediagonalizing the Fockian in SOSCF/NRSCF***

               *****************************************************
               *                     SUCCESS                       *
               *           SCF CONVERGED AFTER   1 CYCLES          *
               *****************************************************

Old exchange energy                            =     -4.950125127 Eh
New exchange energy                            =     -4.950133158 Eh
Exchange energy change after final integration =     -0.000008031 Eh
Total energy after final integration           =   -153.547875104 Eh
Final COS-X integration done in                =     0.306 sec

----------------
TOTAL SCF ENERGY
----------------

Total Energy       :         -153.54787510 Eh           -4178.25010 eV

Components:
Nuclear Repulsion  :           68.23729347 Eh            1856.83115 eV
Electronic Energy  :         -221.78516857 Eh           -6035.08125 eV
One Electron Energy:         -343.33143580 Eh           -9342.52333 eV
Two Electron Energy:          121.54626723 Eh            3307.44208 eV
Max COSX asymmetry :            0.00000109 Eh               0.00003 eV

Virial components:
Potential Energy   :         -306.23474074 Eh           -8333.07094 eV
Kinetic Energy     :          152.68686564 Eh            4154.82084 eV
Virial Ratio       :            2.00563905


DFT components:
N(Alpha)           :       11.999999892206 electrons
N(Beta)            :       11.999999892206 electrons
N(Total)           :       23.999999784412 electrons
E(X)               :      -14.864846760926 Eh       
E(C)               :       -0.770403924840 Eh       
E(XC)              :      -15.635250685766 Eh       
DFET-embed. en.    :        0.000000000000 Eh       

---------------
SCF CONVERGENCE
---------------

  Last Energy change         ...    4.8601e-12  Tolerance :   1.0000e-08
  Last MAX-Density change    ...    1.2212e-15  Tolerance :   1.0000e-07
  Last RMS-Density change    ...    1.9994e-17  Tolerance :   5.0000e-09
  Last Orbital Gradient      ...    4.6953e-07  Tolerance :   1.0000e-05
  Last Orbital Rotation      ...    3.3121e-06  Tolerance :   1.0000e-05

             **** THE GBW FILE WAS UPDATED (ox_es1_E_orca0008.gbw) ****
             **** DENSITY ox_es1_E_orca0008.scfp WAS UPDATED ****
             **** ENERGY FILE WAS UPDATED (ox_es1_E_orca0008.en.tmp) ****
             **** THE GBW FILE WAS UPDATED (ox_es1_E_orca0008.gbw) ****
             **** DENSITY ox_es1_E_orca0008.scfp WAS UPDATED ****
----------------
ORBITAL ENERGIES
----------------

  NO   OCC          E(Eh)            E(eV) 
   0   2.0000     -19.201818      -522.5080 
   1   2.0000     -10.322580      -280.8917 
   2   2.0000     -10.273067      -279.5444 
   3   2.0000      -0.986122       -26.8337 
   4   2.0000      -0.775060       -21.0905 
   5   2.0000      -0.627546       -17.0764 
   6   2.0000      -0.517752       -14.0888 
   7   2.0000      -0.484166       -13.1748 
   8   2.0000      -0.416773       -11.3410 
   9   2.0000      -0.394612       -10.7379 
  10   2.0000      -0.279047        -7.5933 
  11   2.0000      -0.257104        -6.9962 
  12   0.0000      -0.137285        -3.7357 
  13   0.0000       0.049004         1.3335 
  14   0.0000       0.070301         1.9130 
  15   0.0000       0.088789         2.4161 
  16   0.0000       0.122405         3.3308 
  17   0.0000       0.148909         4.0520 
  18   0.0000       0.185062         5.0358 
  19   0.0000       0.201813         5.4916 
  20   0.0000       0.229262         6.2385 
  21   0.0000       0.253233         6.8908 
  22   0.0000       0.258536         7.0351 
  23   0.0000       0.330391         8.9904 
  24   0.0000       0.364282         9.9126 
  25   0.0000       0.385167        10.4809 
  26   0.0000       0.408795        11.1239 
  27   0.0000       0.417745        11.3674 
  28   0.0000       0.434758        11.8304 
  29   0.0000       0.485320        13.2062 
  30   0.0000       0.497651        13.5418 
  31   0.0000       0.546492        14.8708 
  32   0.0000       0.552537        15.0353 
  33   0.0000       0.598560        16.2876 
  34   0.0000       0.659071        17.9342 
  35   0.0000       0.726675        19.7738 
  36   0.0000       0.793075        21.5807 
  37   0.0000       0.862497        23.4697 
  38   0.0000       0.875176        23.8147 
  39   0.0000       0.921467        25.0744 
  40   0.0000       0.931880        25.3578 
  41   0.0000       1.041156        28.3313 
  42   0.0000       1.070170        29.1208 
  43   0.0000       1.081619        29.4324 
  44   0.0000       1.183571        32.2066 
  45   0.0000       1.322620        35.9903 
  46   0.0000       1.396928        38.0123 
  47   0.0000       1.449257        39.4363 
  48   0.0000       1.522983        41.4425 
  49   0.0000       1.540517        41.9196 
  50   0.0000       1.572582        42.7921 
  51   0.0000       1.590450        43.2784 
  52   0.0000       1.630129        44.3581 
  53   0.0000       1.680752        45.7356 
  54   0.0000       1.730049        47.0770 
  55   0.0000       1.763469        47.9864 
  56   0.0000       1.798440        48.9380 
  57   0.0000       1.810011        49.2529 
  58   0.0000       1.860621        50.6301 
  59   0.0000       1.893065        51.5129 
  60   0.0000       1.995671        54.3050 
  61   0.0000       2.068265        56.2803 
  62   0.0000       2.136391        58.1342 
  63   0.0000       2.194373        59.7119 
  64   0.0000       2.325608        63.2830 
  65   0.0000       2.351751        63.9944 
  66   0.0000       2.382474        64.8304 
  67   0.0000       2.446489        66.5724 
  68   0.0000       2.467268        67.1378 
  69   0.0000       2.518179        68.5231 
  70   0.0000       2.550070        69.3909 
  71   0.0000       2.599144        70.7263 
  72   0.0000       2.634297        71.6829 
  73   0.0000       2.647889        72.0527 
  74   0.0000       2.743872        74.6646 
  75   0.0000       2.804959        76.3268 
  76   0.0000       2.855365        77.6984 
  77   0.0000       2.940389        80.0121 
  78   0.0000       2.968090        80.7658 
  79   0.0000       2.980326        81.0988 
  80   0.0000       3.057693        83.2040 
  81   0.0000       3.083887        83.9168 
  82   0.0000       3.097903        84.2982 
  83   0.0000       3.145863        85.6033 
  84   0.0000       3.152464        85.7829 
  85   0.0000       3.203342        87.1674 
  86   0.0000       3.347485        91.0897 
  87   0.0000       3.364295        91.5471 
  88   0.0000       3.436372        93.5084 
  89   0.0000       3.474944        94.5580 
  90   0.0000       3.525091        95.9226 
  91   0.0000       3.669406        99.8496 
  92   0.0000       3.717238       101.1512 
  93   0.0000       3.844336       104.6097 
  94   0.0000       4.006897       109.0332 
  95   0.0000       4.101305       111.6022 
  96   0.0000       4.124959       112.2458 
  97   0.0000       4.267835       116.1337 
  98   0.0000       4.380604       119.2023 
  99   0.0000       4.501697       122.4974 
 100   0.0000       4.570477       124.3690 
 101   0.0000       4.723904       128.5440 
 102   0.0000       5.203087       141.5832 
 103   0.0000       5.249757       142.8531 
 104   0.0000       5.358174       145.8033 
 105   0.0000       5.374705       146.2531 
 106   0.0000       5.710196       155.3823 
 107   0.0000       5.738089       156.1414 
 108   0.0000       5.895408       160.4222 
 109   0.0000       6.372619       173.4078 
 110   0.0000       6.399914       174.1505 
 111   0.0000       6.771551       184.2633 
 112   0.0000       6.779005       184.4661 
 113   0.0000       6.968668       189.6271 
 114   0.0000      22.024223       599.3096 
 115   0.0000      22.446038       610.7878 
 116   0.0000      43.730767      1189.9747 

                    ********************************
                    * MULLIKEN POPULATION ANALYSIS *
                    ********************************

-----------------------
MULLIKEN ATOMIC CHARGES
-----------------------
   0 O :   -0.384646
   1 C :   -0.042158
   2 C :   -0.125204
   3 H :    0.110965
   4 H :    0.115221
   5 H :    0.161346
   6 H :    0.164475
Sum of atomic charges:    0.0000000

--------------------------------
MULLIKEN REDUCED ORBITAL CHARGES
--------------------------------
  0 O s       :     3.917073  s :     3.917073
      pz      :     1.919958  p :     4.444923
      px      :     1.246209
      py      :     1.278756
      dz2     :     0.003051  d :     0.021525
      dxz     :     0.000171
      dyz     :     0.004692
      dx2y2   :     0.008198
      dxy     :     0.005413
      f0      :     0.000128  f :     0.001125
      f+1     :     0.000055
      f-1     :     0.000279
      f+2     :     0.000135
      f-2     :     0.000021
      f+3     :     0.000226
      f-3     :     0.000281
  1 C s       :     3.191376  s :     3.191376
      pz      :     1.052056  p :     2.689234
      px      :     0.902310
      py      :     0.734868
      dz2     :     0.012012  d :     0.152350
      dxz     :     0.017877
      dyz     :     0.045604
      dx2y2   :     0.021167
      dxy     :     0.055689
      f0      :     0.001688  f :     0.009198
      f+1     :     0.001118
      f-1     :     0.000762
      f+2     :     0.002651
      f-2     :     0.000178
      f+3     :     0.002067
      f-3     :     0.000734
  2 C s       :     3.297882  s :     3.297882
      pz      :     1.049285  p :     2.770426
      px      :     1.014645
      py      :     0.706496
      dz2     :     0.004930  d :     0.052265
      dxz     :     0.024480
      dyz     :     0.004563
      dx2y2   :     0.005420
      dxy     :     0.012872
      f0      :     0.000462  f :     0.004632
      f+1     :     0.001011
      f-1     :     0.000136
      f+2     :     0.000767
      f-2     :     0.000236
      f+3     :     0.000777
      f-3     :     0.001241
  3 H s       :     0.870708  s :     0.870708
      pz      :     0.009570  p :     0.018326
      px      :     0.005048
      py      :     0.003709
  4 H s       :     0.861841  s :     0.861841
      pz      :     0.010858  p :     0.022938
      px      :     0.006772
      py      :     0.005308
  5 H s       :     0.817412  s :     0.817412
      pz      :     0.010415  p :     0.021242
      px      :     0.006979
      py      :     0.003848
  6 H s       :     0.813049  s :     0.813049
      pz      :     0.011397  p :     0.022476
      px      :     0.006669
      py      :     0.004410


                     *******************************
                     * LOEWDIN POPULATION ANALYSIS *
                     *******************************

----------------------
LOEWDIN ATOMIC CHARGES
----------------------
   0 O :   -0.081906
   1 C :   -0.425344
   2 C :   -0.012457
   3 H :    0.140757
   4 H :    0.101756
   5 H :    0.143111
   6 H :    0.134083

-------------------------------
LOEWDIN REDUCED ORBITAL CHARGES
-------------------------------
  0 O s       :     3.592366  s :     3.592366
      pz      :     1.853292  p :     4.438085
      px      :     1.198080
      py      :     1.386713
      dz2     :     0.006363  d :     0.048357
      dxz     :     0.000137
      dyz     :     0.012436
      dx2y2   :     0.017059
      dxy     :     0.012362
      f0      :     0.000311  f :     0.003098
      f+1     :     0.000083
      f-1     :     0.000524
      f+2     :     0.000585
      f-2     :     0.000019
      f+3     :     0.000864
      f-3     :     0.000713
  1 C s       :     2.827512  s :     2.827512
      pz      :     1.048314  p :     2.946012
      px      :     1.055466
      py      :     0.842232
      dz2     :     0.069730  d :     0.586126
      dxz     :     0.100355
      dyz     :     0.120202
      dx2y2   :     0.125696
      dxy     :     0.170144
      f0      :     0.010261  f :     0.065694
      f+1     :     0.006078
      f-1     :     0.006888
      f+2     :     0.014547
      f-2     :     0.002336
      f+3     :     0.015076
      f-3     :     0.010509
  2 C s       :     2.913794  s :     2.913794
      pz      :     1.070120  p :     2.839590
      px      :     1.126450
      py      :     0.643019
      dz2     :     0.028586  d :     0.234353
      dxz     :     0.115727
      dyz     :     0.011466
      dx2y2   :     0.037754
      dxy     :     0.040820
      f0      :     0.003428  f :     0.024720
      f+1     :     0.003385
      f-1     :     0.001092
      f+2     :     0.004525
      f-2     :     0.001595
      f+3     :     0.004449
      f-3     :     0.006247
  3 H s       :     0.811817  s :     0.811817
      pz      :     0.025991  p :     0.047426
      px      :     0.012351
      py      :     0.009083
  4 H s       :     0.827208  s :     0.827208
      pz      :     0.034889  p :     0.071036
      px      :     0.020090
      py      :     0.016057
  5 H s       :     0.797286  s :     0.797286
      pz      :     0.030889  p :     0.059603
      px      :     0.018374
      py      :     0.010341
  6 H s       :     0.801099  s :     0.801099
      pz      :     0.034501  p :     0.064818
      px      :     0.018126
      py      :     0.012190


                      *****************************
                      * MAYER POPULATION ANALYSIS *
                      *****************************

  NA   - Mulliken gross atomic population
  ZA   - Total nuclear charge
  QA   - Mulliken gross atomic charge
  VA   - Mayer's total valence
  BVA  - Mayer's bonded valence
  FA   - Mayer's free valence

  ATOM       NA         ZA         QA         VA         BVA        FA
  0 O      8.3846     8.0000    -0.3846     1.8043     1.8043     0.0000
  1 C      6.0422     6.0000    -0.0422     4.0444     4.0444    -0.0000
  2 C      6.1252     6.0000    -0.1252     3.7979     3.7979    -0.0000
  3 H      0.8890     1.0000     0.1110     0.9696     0.9696    -0.0000
  4 H      0.8848     1.0000     0.1152     0.9573     0.9573    -0.0000
  5 H      0.8387     1.0000     0.1613     0.9588     0.9588     0.0000
  6 H      0.8355     1.0000     0.1645     0.9562     0.9562    -0.0000

  Mayer bond orders larger than 0.100000
B(  0-O ,  1-C ) :   0.9938 B(  0-O ,  2-C ) :   0.8122 B(  1-C ,  2-C ) :   1.1047 
B(  1-C ,  3-H ) :   0.9687 B(  1-C ,  4-H ) :   0.9650 B(  2-C ,  5-H ) :   0.9409 
B(  2-C ,  6-H ) :   0.9405 

-------
TIMINGS
-------

Total SCF time: 0 days 0 hours 0 min 1 sec 

Total time                  ....       1.151 sec
Sum of individual times     ....       1.039 sec  ( 90.3%)

Fock matrix formation       ....       0.815 sec  ( 70.8%)
  Split-RI-J                ....       0.132 sec  ( 16.2% of F)
  Chain of spheres X        ....       0.604 sec  ( 74.2% of F)
  XC integration            ....       0.070 sec  (  8.6% of F)
    Basis function eval.    ....       0.021 sec  ( 30.2% of XC)
    Density eval.           ....       0.016 sec  ( 22.8% of XC)
    XC-Functional eval.     ....       0.004 sec  (  6.4% of XC)
    XC-Potential eval.      ....       0.022 sec  ( 30.9% of XC)
Diagonalization             ....       0.003 sec  (  0.2%)
Density matrix formation    ....       0.000 sec  (  0.0%)
Population analysis         ....       0.003 sec  (  0.2%)
Initial guess               ....       0.008 sec  (  0.7%)
Orbital Transformation      ....       0.000 sec  (  0.0%)
Orbital Orthonormalization  ....       0.001 sec  (  0.1%)
DIIS solution               ....       0.002 sec  (  0.1%)
SOSCF solution              ....       0.003 sec  (  0.2%)
Grid generation             ....       0.206 sec  ( 17.9%)

Maximum memory used throughout the entire SCF-calculation: 61.1 MB


           ************************************************************
           *        Program running with 8 parallel MPI-processes     *
           *              working on a common directory               *
           ************************************************************
------------------------------------------------------------------------------
                        ORCA TD-DFT/TDA CALCULATION
------------------------------------------------------------------------------

Input orbitals are from        ... ox_es1_E_orca0008.gbw
CI-vector output               ... ox_es1_E_orca0008.cis
Tamm-Dancoff approximation     ... operative
CIS-Integral strategy          ... AO-integrals
Integral handling              ... AO integral Direct
Max. core memory used          ... 3000 MB
Reference state                ... RHF
Generation of triplets         ... off
Follow IRoot                   ... off
Number of operators            ... 1
Orbital ranges used for CIS calculation:
 Operator 0:  Orbitals   3... 11  to  12...116
XAS localization array:
 Operator 0:  Orbitals  -1... -1

-------------------
XC-INTEGRATION GRID
-------------------

General Integration Accuracy     IntAcc      ... 3.467
Radial Grid Type                 RadialGrid  ... OptM3 with GC (2021)
Angular Grid (max. ang.)         AngularGrid ... 1 (Lebedev-50)
Angular grid pruning method      GridPruning ... 4 (adaptive)
Weight generation scheme         WeightScheme... Becke
Basis function cutoff            BFCut       ... 1.0000e-11
Integration weight cutoff        WCut        ... 1.0000e-14
Angular grids for H and He will be reduced by one unit
Partially contracted basis set               ... off
Rotationally invariant grid construction     ... off

Total number of grid points                  ...     4538
Total number of batches                      ...       75
Average number of points per batch           ...       60
Average number of grid points per atom       ...      648

---------------------
COSX-INTEGRATION GRID
---------------------

General Integration Accuracy     IntAcc      ... 3.067
Radial Grid Type                 RadialGrid  ... OptM3 with GC (2021)
Angular Grid (max. ang.)         AngularGrid ... 1 (Lebedev-50)
Angular grid pruning method      GridPruning ... 4 (adaptive)
Weight generation scheme         WeightScheme... Becke
Basis function cutoff            BFCut       ... 1.0000e-11
Integration weight cutoff        WCut        ... 1.0000e-14
Angular grids for H and He will be reduced by one unit
Partially contracted basis set               ... on
Rotationally invariant grid construction     ... off

Total number of grid points                  ...     2083
Total number of batches                      ...       37
Average number of points per batch           ...       56
Average number of grid points per atom       ...      298

---------------
TD-DFT XC SETUP
---------------

DFT calculation                         ... on
Name of the grid file                   ... ox_es1_E_orca0008.grid_cis.tmp
Exchange functional (TD-DFT)            ... PBE
   PBE kappa parameter  XKappa (TD-DFT) ...  0.804000
   PBE mue parameter   XMuePBE (TD-DFT) ...  0.219520
Correlation functional (TD-DFT)         ... PBE
   PBE beta parameter CBetaPBE (TD-DFT) ...  0.066725
 LDA part of GGA corr.  LDAOpt (TD-DFT) ... PW91-LDA
Hybrid DFT                              ... on
   Exchange mixing (TD-DFT)             ...  0.250
   GGA exch. scaling (TD-DFT)           ...  0.750
   GGA corr. scaling (TD-DFT)           ...  1.000

Building densities             ... done
Calculating rho(r) on the grid ... done
Building xc-kernel on the grid ... done
                    *** TD-DFT CALCULATION INITIALIZED ***

------------------------
DAVIDSON-DIAGONALIZATION
------------------------

Dimension of the eigenvalue problem            ...    945
Number of roots to be determined               ...      1
Maximum size of the expansion space            ...     10
Maximum number of iterations                   ...    100
Convergence tolerance for the residual         ...    2.500e-07
Convergence tolerance for the energies         ...    2.500e-07
Orthogonality tolerance                        ...    1.000e-14
Level Shift                                    ...    0.000e+00
Constructing the preconditioner                ... o.k.
Building the initial guess                     ... o.k.
Number of trial vectors determined             ...     10


                       ****Iteration    0****

   Memory handling for direct AO based CIS:
   Memory per vector needed      ...     1 MB
   Memory needed                 ...     1 MB
   Memory available              ...  3000 MB
   Number of vectors per batch   ...  3000
   Number of batches             ...     1
   Time for densities:            0.001
   Time for RI-J (Direct):        0.016
   Time for K (COSX):             0.060
   Time for XC-Integration:       0.016
   Time for Sigma-Completion:     0.000
   Size of expansion space: 3
   Lowest Energy          :     0.039083206595
   Maximum Energy change  :     0.039083206595 (vector 0)
   Maximum residual norm  :     0.002638423083

                       ****Iteration    1****
   Time for densities:            0.000
   Time for RI-J (Direct):        0.014
   Time for K (COSX):             0.056
   Time for XC-Integration:       0.007
   Time for Sigma-Completion:     0.000
   Size of expansion space: 4
   Lowest Energy          :     0.037200450056
   Maximum Energy change  :     0.001882756539 (vector 0)
   Maximum residual norm  :     0.000048277216

                       ****Iteration    2****
   Time for densities:            0.000
   Time for RI-J (Direct):        0.014
   Time for K (COSX):             0.057
   Time for XC-Integration:       0.007
   Time for Sigma-Completion:     0.000
   Size of expansion space: 5
   Lowest Energy          :     0.037163947011
   Maximum Energy change  :     0.000036503045 (vector 0)
   Maximum residual norm  :     0.000002088258

                       ****Iteration    3****
   Time for densities:            0.000
   Time for RI-J (Direct):        0.014
   Time for K (COSX):             0.058
   Time for XC-Integration:       0.007
   Time for Sigma-Completion:     0.000
   Size of expansion space: 6
   Lowest Energy          :     0.037162052306
   Maximum Energy change  :     0.000001894705 (vector 0)
   Maximum residual norm  :     0.000000116374

      *** CONVERGENCE OF RESIDUAL NORM REACHED ***

Storing the converged CI vectors               ... ox_es1_E_orca0008.cis1

                 *** DAVIDSON DONE ***

Total time for solving the CIS problem:     0.331sec

------------------------------------
TD-DFT/TDA EXCITED STATES (SINGLETS)
------------------------------------

the weight of the individual excitations are printed if larger than 1.0e-02

STATE  1:  E=   0.037162 au      1.011 eV     8156.1 cm**-1 <S**2> =   0.000000
    10a ->  12a  :     0.027412 (c=  0.16556585)
    11a ->  12a  :     0.968467 (c=  0.98410700)


-----------------------------
TD-DFT/TDA-EXCITATION SPECTRA
-----------------------------

Center of mass = ( -0.5838,  0.1565, -0.0351)
Calculating the Dipole integrals                  ... done
Transforming integrals                            ... done
Calculating the Linear Momentum integrals         ... done
Transforming integrals                            ... done
Calculating angular momentum integrals            ... done
Transforming integrals                            ... done

-----------------------------------------------------------------------------
         ABSORPTION SPECTRUM VIA TRANSITION ELECTRIC DIPOLE MOMENTS
-----------------------------------------------------------------------------
State   Energy    Wavelength  fosc         T2        TX        TY        TZ  
        (cm-1)      (nm)                 (au**2)    (au)      (au)      (au) 
-----------------------------------------------------------------------------
   1    8156.1   1226.1   0.000083333   0.00336   0.02397  -0.01770  -0.04976

-----------------------------------------------------------------------------
         ABSORPTION SPECTRUM VIA TRANSITION VELOCITY DIPOLE MOMENTS
-----------------------------------------------------------------------------
State   Energy    Wavelength   fosc        P2         PX        PY        PZ  
        (cm-1)      (nm)                 (au**2)     (au)      (au)      (au) 
-----------------------------------------------------------------------------
   1    8156.1   1226.1   0.015117712   0.00084   0.00679  -0.00982   0.02646

-------------------------------------------------------------------
                             CD SPECTRUM
-------------------------------------------------------------------
State  Energy     Wavelength     R         MX        MY        MZ   
       (cm-1)       (nm)     (1e40*cgs)   (au)      (au)      (au)  
-------------------------------------------------------------------
   1    8156.1   1226.1     -2.30533   0.03838   0.28774   0.01443

-------------------------------------------------------------------
         CD SPECTRUM VIA TRANSITION VELOCITY DIPOLE MOMENTS        
-------------------------------------------------------------------
State  Energy     Wavelength     R         MX        MY        MZ   
       (cm-1)       (nm)     (1e40*cgs)   (au)      (au)      (au)  
-------------------------------------------------------------------
   1    8156.1   1226.1    -27.69064   0.03838   0.28774   0.01443

Total run time:        0.624 sec

           *** ORCA-CIS/TD-DFT FINISHED WITHOUT ERROR ***

Maximum memory used throughout the entire CIS-calculation: 49.4 MB

-----------------------
CIS/TD-DFT TOTAL ENERGY
-----------------------

    E(SCF)  =   -153.547875104 Eh
    DE(CIS) =      0.037162052 Eh (Root  1)
    ----------------------------- ---------
    E(tot)  =   -153.510713052 Eh



-------------------------------------------------------------------------------
                          DFT DISPERSION CORRECTION                            
                                                                               
                              DFTD3 V3.1  Rev 1                                
                          USING Becke-Johnson damping                          
-------------------------------------------------------------------------------
The PBE0 functional is recognized
Active option DFTDOPT                   ...         4   

molecular C6(AA) [au] = 394.691703 


            DFT-D V3
 parameters
 s6 scaling factor         :     1.0000 
 a1 scaling factor         :     0.4145 
 s8 scaling factor         :     1.2177 
 a2 scaling factor         :     4.8593 
 ad hoc parameters k1-k3   :    16.0000     1.3333    -4.0000 

 Edisp/kcal,au: -1.648908117545  -0.002627702066 
 E6   /kcal   :  -1.075944869 
 E8   /kcal   :  -0.572963248 
 % E8         :  34.748039754 

-------------------------   ----------------
Dispersion correction           -0.002627702
-------------------------   ----------------


-------------------------   --------------------
FINAL SINGLE POINT ENERGY      -153.513340754186
-------------------------   --------------------



           ************************************************************
           *        Program running with 8 parallel MPI-processes     *
           *              working on a common directory               *
           ************************************************************
------------------------------------------------------------------------------
                         ORCA SCF GRADIENT CALCULATION
------------------------------------------------------------------------------


------------------------
TD-DFT GRADIENT XC SETUP
------------------------

Building densities                     ... done
Calculating rho(r) on the grid         ... done
Building xc-kernel on the grid         ... done
Building xc 3rd derivative on the grid      ... done
                *** TD-DFT GRADIENT CALCULATION INITIALIZED ***

-------------------
TD-DFT/TDA GRADIENT
-------------------

Reference wavefunction             ... RHF
State of interest                  ... 1
Basis dimension                    ... 117
DFT-XC contribution needed         ... YES
RI-approximation                   ... ON
CIS-vectors being read from        ... ox_es1_E_orca0008.cis

 => Number of Vectors found: 1
 => Orbital Window: 3...11 -> 12...116

Reading the CIS file                     ... done
Norm of the CI vector                    ... 1.000000000
Making the CIS (pseudo)densities         ... done
Making operators G(D) and Q(T)           ... done
Transforming the Fock operators          ... done
Making the frozen-core relaxed density   ... done
Constructing the G(H) operator           ... done
Transforming the G(H) operator           ... done
Calculating the CIS Lagrangian           ... done
Solving the Z-vector equations           ... done
Finalizing the relaxed density           ... done
Storing the relaxed density              ... done
Constructing the G(Z) operator           ... done
Transforming the G(Z) operator           ... done
Making the W-matrix                      ... done
Finalizing the W-matrix                  ... done
Transforming the W-matrix                ... done
Nuclear repulsion gradient               ... done
One-Electron gradient                    ... done
Dispersion correction                    ... done
Prescreening matrices                    ... done
COSX-gradient                            ... done
Coulomb gradient (RI)                    ... done
Exchange-Correlation gradient            ... done

                 ---------------------------
                 EXCITED STATE GRADIENT DONE
                 ---------------------------

------------------
CARTESIAN GRADIENT
------------------

   1   O   :    0.008726970    0.019097047    0.002503926
   2   C   :   -0.015836487   -0.084418322   -0.074680398
   3   C   :   -0.027587622    0.052297660    0.013582160
   4   H   :   -0.014625861    0.009469561    0.035002856
   5   H   :    0.031307514    0.029028406    0.039363305
   6   H   :    0.014313236   -0.013794527   -0.018367759
   7   H   :    0.003687643   -0.011714822    0.002578114

Difference to translation invariance:
           :   -0.0000146042   -0.0000349967   -0.0000177966

Difference to rotation invariance:
           :    0.0000465780   -0.0000572711   -0.0001886655

Norm of the cartesian gradient     ...    0.1512389334
RMS gradient                       ...    0.0330030410
MAX gradient                       ...    0.0844183218

------------------------------------------------------------------------------
                  RELAXED CIS/TDA DENSITY POPULATION ANALYSIS
                                   IROOT 1
------------------------------------------------------------------------------
------------------------------------------------------------------------------
                           ORCA POPULATION ANALYSIS
------------------------------------------------------------------------------
Input electron density              ... ox_es1_E_orca0008.cisp
BaseName (.gbw .S,...)              ... ox_es1_E_orca0008

                    ********************************
                    * MULLIKEN POPULATION ANALYSIS *
                    ********************************

-----------------------
MULLIKEN ATOMIC CHARGES
-----------------------
   0 O :   -0.269200
   1 C :   -0.079085
   2 C :   -0.236806
   3 H :    0.160720
   4 H :    0.145971
   5 H :    0.137214
   6 H :    0.141185
Sum of atomic charges:    0.0000000

--------------------------------
MULLIKEN REDUCED ORBITAL CHARGES
--------------------------------
  0 O s       :     3.905561  s :     3.905561
      pz      :     1.092503  p :     4.341899
      px      :     1.945215
      py      :     1.304180
      dz2     :     0.002658  d :     0.020896
      dxz     :     0.000159
      dyz     :     0.005346
      dx2y2   :     0.008143
      dxy     :     0.004589
      f0      :     0.000014  f :     0.000844
      f+1     :    -0.000020
      f-1     :     0.000073
      f+2     :     0.000160
      f-2     :     0.000004
      f+3     :     0.000231
      f-3     :     0.000383
  1 C s       :     3.191403  s :     3.191403
      pz      :     1.021441  p :     2.740914
      px      :     0.970918
      py      :     0.748555
      dz2     :     0.010882  d :     0.137442
      dxz     :     0.021762
      dyz     :     0.022701
      dx2y2   :     0.023832
      dxy     :     0.058265
      f0      :     0.000895  f :     0.009325
      f+1     :     0.001220
      f-1     :     0.000563
      f+2     :     0.001496
      f-2     :     0.000121
      f+3     :     0.002861
      f-3     :     0.002170
  2 C s       :     3.298276  s :     3.298276
      pz      :     1.026292  p :     2.889035
      px      :     0.952098
      py      :     0.910645
      dz2     :     0.004439  d :     0.044958
      dxz     :     0.016652
      dyz     :     0.002940
      dx2y2   :     0.007404
      dxy     :     0.013522
      f0      :     0.000437  f :     0.004537
      f+1     :     0.000893
      f-1     :     0.000220
      f+2     :     0.000754
      f-2     :     0.000156
      f+3     :     0.000908
      f-3     :     0.001169
  3 H s       :     0.820483  s :     0.820483
      pz      :     0.009841  p :     0.018797
      px      :     0.005295
      py      :     0.003661
  4 H s       :     0.830702  s :     0.830702
      pz      :     0.011120  p :     0.023327
      px      :     0.006894
      py      :     0.005313
  5 H s       :     0.841082  s :     0.841082
      pz      :     0.009637  p :     0.021704
      px      :     0.006642
      py      :     0.005425
  6 H s       :     0.835741  s :     0.835741
      pz      :     0.010587  p :     0.023074
      px      :     0.006379
      py      :     0.006108


                     *******************************
                     * LOEWDIN POPULATION ANALYSIS *
                     *******************************

----------------------
LOEWDIN ATOMIC CHARGES
----------------------
   0 O :    0.007301
   1 C :   -0.390772
   2 C :   -0.171576
   3 H :    0.184685
   4 H :    0.122828
   5 H :    0.127896
   6 H :    0.119638

-------------------------------
LOEWDIN REDUCED ORBITAL CHARGES
-------------------------------
  0 O s       :     3.599540  s :     3.599540
      pz      :     1.066271  p :     4.341412
      px      :     1.868656
      py      :     1.406485
      dz2     :     0.006509  d :     0.048891
      dxz     :     0.000168
      dyz     :     0.011560
      dx2y2   :     0.016855
      dxy     :     0.013799
      f0      :     0.000312  f :     0.002856
      f+1     :     0.000039
      f-1     :     0.000329
      f+2     :     0.000453
      f-2     :     0.000019
      f+3     :     0.000862
      f-3     :     0.000842
  1 C s       :     2.831047  s :     2.831047
      pz      :     1.004076  p :     2.946269
      px      :     1.091111
      py      :     0.851082
      dz2     :     0.067990  d :     0.541752
      dxz     :     0.104976
      dyz     :     0.060653
      dx2y2   :     0.149816
      dxy     :     0.158317
      f0      :     0.006405  f :     0.071703
      f+1     :     0.005994
      f-1     :     0.006670
      f+2     :     0.009514
      f-2     :     0.001681
      f+3     :     0.020844
      f-3     :     0.020596
  2 C s       :     2.921157  s :     2.921157
      pz      :     1.060929  p :     2.989394
      px      :     1.093511
      py      :     0.834953
      dz2     :     0.030428  d :     0.235600
      dxz     :     0.104311
      dyz     :     0.009444
      dx2y2   :     0.038858
      dxy     :     0.052558
      f0      :     0.003273  f :     0.025426
      f+1     :     0.003777
      f-1     :     0.001406
      f+2     :     0.004211
      f-2     :     0.001400
      f+3     :     0.005135
      f-3     :     0.006224
  3 H s       :     0.767348  s :     0.767348
      pz      :     0.026275  p :     0.047968
      px      :     0.012898
      py      :     0.008795
  4 H s       :     0.805241  s :     0.805241
      pz      :     0.035314  p :     0.071931
      px      :     0.020441
      py      :     0.016176
  5 H s       :     0.811002  s :     0.811002
      pz      :     0.028560  p :     0.061102
      px      :     0.017330
      py      :     0.015212
  6 H s       :     0.813542  s :     0.813542
      pz      :     0.031976  p :     0.066820
      px      :     0.017238
      py      :     0.017606


                      *****************************
                      * MAYER POPULATION ANALYSIS *
                      *****************************

  NA   - Mulliken gross atomic population
  ZA   - Total nuclear charge
  QA   - Mulliken gross atomic charge
  VA   - Mayer's total valence
  BVA  - Mayer's bonded valence
  FA   - Mayer's free valence

  ATOM       NA         ZA         QA         VA         BVA        FA
  0 O      8.2692     8.0000    -0.2692     1.8370     1.1582     0.6788
  1 C      6.0791     6.0000    -0.0791     4.0875     4.0061     0.0814
  2 C      6.2368     6.0000    -0.2368     3.8601     3.1053     0.7548
  3 H      0.8393     1.0000     0.1607     0.9593     0.8876     0.0717
  4 H      0.8540     1.0000     0.1460     0.9595     0.9266     0.0329
  5 H      0.8628     1.0000     0.1372     0.9714     0.9624     0.0090
  6 H      0.8588     1.0000     0.1412     0.9695     0.9617     0.0078

  Mayer bond orders larger than 0.100000
B(  0-O ,  1-C ) :   1.0606 B(  1-C ,  2-C ) :   1.1331 B(  1-C ,  3-H ) :   0.8720 
B(  1-C ,  4-H ) :   0.9301 B(  2-C ,  5-H ) :   0.9492 B(  2-C ,  6-H ) :   0.9478 



-------
TIMINGS
-------

Total TD-DFT gradient time         ...        6.374 sec

Fock matrix formation       ....       0.940 sec  ( 14.7%)
  Coulomb formation         ....       0.763 sec  ( 81.2% of F)
  RI-J                      ....       0.323 sec  ( 34.4% of F)
  Chain of spheres X        ....       0.439 sec  ( 46.7% of F)
  XC integration            ....       0.176 sec  ( 18.8% of F)
Z-vector equation           ....       2.365 sec  ( 37.1%)
One electron gradient       ....       0.037 sec  (  0.6%)
Prescreening matrices       ....       0.173 sec  (  2.7%)
RI-J Coulomb gradient       ....       0.301 sec  (  4.7%)
COSX gradient               ....       0.398 sec  (  6.2%)
XC gradient                 ....       1.820 sec  ( 28.6%)

Maximum memory used throughout the entire SCFGRAD-calculation: 130.2 MB

                            ***************************************
                            *     ORCA property calculations      *
                            ***************************************

                                    ---------------------
                                    Active property flags
                                    ---------------------
   (+) Dipole Moment


------------------------------------------------------------------------------
                       ORCA ELECTRIC PROPERTIES CALCULATION
------------------------------------------------------------------------------

Dipole Moment Calculation                       ... on
Quadrupole Moment Calculation                   ... off
Polarizability Calculation                      ... off
GBWName                                         ... ox_es1_E_orca0008.gbw
Electron density                                ... ox_es1_E_orca0008.scfp
The origin for moment calculation is the CENTER OF MASS  = (-0.583815,  0.156542 -0.035148)

-------------
DIPOLE MOMENT
-------------
                                X             Y             Z
Electronic contribution:     -0.54809       1.55094      -0.17388
Nuclear contribution   :      1.26116      -2.81501       0.15422
                        -----------------------------------------
Total Dipole Moment    :      0.71307      -1.26406      -0.01966
                        -----------------------------------------
Magnitude (a.u.)       :      1.45145
Magnitude (Debye)      :      3.68930



--------------------
Rotational spectrum 
--------------------
 
Rotational constants in cm-1:     1.164647     0.399288     0.339538 
Rotational constants in MHz : 34915.233381 11970.345017 10179.102588 

 Dipole components along the rotational axes: 
x,y,z [a.u.] :    -1.366148    -0.489593    -0.025577 
x,y,z [Debye]:    -3.472473    -1.244447    -0.065011 

 

                        *** CIS RELAXED DENSITY ***

------------------------------------------------------------------------------
                       ORCA ELECTRIC PROPERTIES CALCULATION
------------------------------------------------------------------------------

Dipole Moment Calculation                       ... on
Quadrupole Moment Calculation                   ... off
Polarizability Calculation                      ... off
GBWName                                         ... ox_es1_E_orca0008.gbw
Electron density                                ... ox_es1_E_orca0008.cisp
The origin for moment calculation is the CENTER OF MASS  = (-0.583815,  0.156542 -0.035148)

-------------
DIPOLE MOMENT
-------------
                                X             Y             Z
Electronic contribution:     -1.13354       1.80518      -0.15621
Nuclear contribution   :      1.26116      -2.81501       0.15422
                        -----------------------------------------
Total Dipole Moment    :      0.12762      -1.00982      -0.00199
                        -----------------------------------------
Magnitude (a.u.)       :      1.01786
Magnitude (Debye)      :      2.58719



--------------------
Rotational spectrum 
--------------------
 
Rotational constants in cm-1:     1.164647     0.399288     0.339538 
Rotational constants in MHz : 34915.233381 11970.345017 10179.102588 

 Dipole components along the rotational axes: 
x,y,z [a.u.] :    -0.757450    -0.679908     0.005591 
x,y,z [Debye]:    -1.925285    -1.728188     0.014210 

 

Timings for individual modules:

Sum of individual times         ...        8.952 sec (=   0.149 min)
GTO integral calculation        ...        0.258 sec (=   0.004 min)   2.9 %
SCF iterations                  ...        1.324 sec (=   0.022 min)  14.8 %
CIS module                      ...        0.831 sec (=   0.014 min)   9.3 %
SCF Gradient evaluation         ...        6.539 sec (=   0.109 min)  73.0 %
                             ****ORCA TERMINATED NORMALLY****
TOTAL RUN TIME: 0 days 0 hours 0 minutes 9 seconds 332 msec
