
                                 *****************
                                 * O   R   C   A *
                                 *****************

                                            #,                                       
                                            ###                                      
                                            ####                                     
                                            #####                                    
                                            ######                                   
                                           ########,                                 
                                     ,,################,,,,,                         
                               ,,#################################,,                 
                          ,,##########################################,,             
                       ,#########################################, ''#####,          
                    ,#############################################,,   '####,        
                  ,##################################################,,,,####,       
                ,###########''''           ''''###############################       
              ,#####''   ,,,,##########,,,,          '''####'''          '####       
            ,##' ,,,,###########################,,,                        '##       
           ' ,,###''''                  '''############,,,                           
         ,,##''                                '''############,,,,        ,,,,,,###''
      ,#''                                            '''#######################'''  
     '                                                          ''''####''''         
             ,#######,   #######,   ,#######,      ##                                
            ,#'     '#,  ##    ##  ,#'     '#,    #''#        ######   ,####,        
            ##       ##  ##   ,#'  ##            #'  '#       #        #'  '#        
            ##       ##  #######   ##           ,######,      #####,   #    #        
            '#,     ,#'  ##    ##  '#,     ,#' ,#      #,         ##   #,  ,#        
             '#######'   ##     ##  '#######'  #'      '#     #####' # '####'        



                  #######################################################
                  #                        -***-                        #
                  #          Department of theory and spectroscopy      #
                  #    Directorship and core code : Frank Neese         #
                  #        Max Planck Institute fuer Kohlenforschung    #
                  #                Kaiser Wilhelm Platz 1               #
                  #                 D-45470 Muelheim/Ruhr               #
                  #                      Germany                        #
                  #                                                     #
                  #                  All rights reserved                #
                  #                        -***-                        #
                  #######################################################


                         Program Version 5.0.2 -  RELEASE  -


 With contributions from (in alphabetic order):
   Daniel Aravena         : Magnetic Suceptibility
   Michael Atanasov       : Ab Initio Ligand Field Theory (pilot matlab implementation)
   Alexander A. Auer      : GIAO ZORA, VPT2 properties, NMR spectrum
   Ute Becker             : Parallelization
   Giovanni Bistoni       : ED, misc. LED, open-shell LED, HFLD
   Martin Brehm           : Molecular dynamics
   Dmytro Bykov           : SCF Hessian
   Vijay G. Chilkuri      : MRCI spin determinant printing, contributions to CSF-ICE
   Dipayan Datta          : RHF DLPNO-CCSD density
   Achintya Kumar Dutta   : EOM-CC, STEOM-CC
   Dmitry Ganyushin       : Spin-Orbit,Spin-Spin,Magnetic field MRCI
   Miquel Garcia          : C-PCM and meta-GGA Hessian, CC/C-PCM, Gaussian charge scheme
   Yang Guo               : DLPNO-NEVPT2, F12-NEVPT2, CIM, IAO-localization
   Andreas Hansen         : Spin unrestricted coupled pair/coupled cluster methods
   Benjamin Helmich-Paris : MC-RPA, TRAH-SCF, COSX integrals
   Lee Huntington         : MR-EOM, pCC
   Robert Izsak           : Overlap fitted RIJCOSX, COSX-SCS-MP3, EOM
   Marcus Kettner         : VPT2
   Christian Kollmar      : KDIIS, OOCD, Brueckner-CCSD(T), CCSD density, CASPT2, CASPT2-K
   Simone Kossmann        : Meta GGA functionals, TD-DFT gradient, OOMP2, MP2 Hessian
   Martin Krupicka        : Initial AUTO-CI
   Lucas Lang             : DCDCAS
   Marvin Lechner         : AUTO-CI (C++ implementation), FIC-MRCC
   Dagmar Lenk            : GEPOL surface, SMD
   Dimitrios Liakos       : Extrapolation schemes; Compound Job, initial MDCI parallelization
   Dimitrios Manganas     : Further ROCIS development; embedding schemes
   Dimitrios Pantazis     : SARC Basis sets
   Anastasios Papadopoulos: AUTO-CI, single reference methods and gradients
   Taras Petrenko         : DFT Hessian,TD-DFT gradient, ASA, ECA, R-Raman, ABS, FL, XAS/XES, NRVS
   Peter Pinski           : DLPNO-MP2, DLPNO-MP2 Gradient
   Christoph Reimann      : Effective Core Potentials
   Marius Retegan         : Local ZFS, SOC
   Christoph Riplinger    : Optimizer, TS searches, QM/MM, DLPNO-CCSD(T), (RO)-DLPNO pert. Triples
   Tobias Risthaus        : Range-separated hybrids, TD-DFT gradient, RPA, STAB
   Michael Roemelt        : Original ROCIS implementation
   Masaaki Saitow         : Open-shell DLPNO-CCSD energy and density
   Barbara Sandhoefer     : DKH picture change effects
   Avijit Sen             : IP-ROCIS
   Kantharuban Sivalingam : CASSCF convergence, NEVPT2, FIC-MRCI
   Bernardo de Souza      : ESD, SOC TD-DFT
   Georgi Stoychev        : AutoAux, RI-MP2 NMR, DLPNO-MP2 response
   Willem Van den Heuvel  : Paramagnetic NMR
   Boris Wezisla          : Elementary symmetry handling
   Frank Wennmohs         : Technical directorship


 We gratefully acknowledge several colleagues who have allowed us to
 interface, adapt or use parts of their codes:
   Stefan Grimme, W. Hujo, H. Kruse, P. Pracht,  : VdW corrections, initial TS optimization,
                  C. Bannwarth, S. Ehlert          DFT functionals, gCP, sTDA/sTD-DF
   Ed Valeev, F. Pavosevic, A. Kumar             : LibInt (2-el integral package), F12 methods
   Garnet Chan, S. Sharma, J. Yang, R. Olivares  : DMRG
   Ulf Ekstrom                                   : XCFun DFT Library
   Mihaly Kallay                                 : mrcc  (arbitrary order and MRCC methods)
   Jiri Pittner, Ondrej Demel                    : Mk-CCSD
   Frank Weinhold                                : gennbo (NPA and NBO analysis)
   Christopher J. Cramer and Donald G. Truhlar   : smd solvation model
   Lars Goerigk                                  : TD-DFT with DH, B97 family of functionals
   V. Asgeirsson, H. Jonsson                     : NEB implementation
   FAccTs GmbH                                   : IRC, NEB, NEB-TS, DLPNO-Multilevel, CI-OPT
                                                   MM, QMMM, 2- and 3-layer-ONIOM, Crystal-QMMM,
                                                   LR-CPCM, SF, NACMEs, symmetry and pop. for TD-DFT,
                                                   nearIR, NL-DFT gradient (VV10), updates on ESD,
                                                   ML-optimized integration grids
   S Lehtola, MJT Oliveira, MAL Marques          : LibXC Library
   Liviu Ungur et al                             : ANISO software


 Your calculation uses the libint2 library for the computation of 2-el integrals
 For citations please refer to: http://libint.valeyev.net

 Your ORCA version has been built with support for libXC version: 5.1.0
 For citations please refer to: https://tddft.org/programs/libxc/

 This ORCA versions uses:
   CBLAS   interface :  Fast vector & matrix operations
   LAPACKE interface :  Fast linear algebra routines
   SCALAPACK package :  Parallel linear algebra routines
   Shared memory     :  Shared parallel matrices
   BLAS/LAPACK       :  OpenBLAS 0.3.15  USE64BITINT DYNAMIC_ARCH NO_AFFINITY SkylakeX SINGLE_THREADED
        Core in use  :  SkylakeX
   Copyright (c) 2011-2014, The OpenBLAS Project


Your calculation utilizes the atom-pairwise dispersion correction
with the Becke-Johnson damping scheme (D3BJ)
Cite in your paper:
S.Grimme, S.Ehrlich, L.Goerigk, J Comput Chem, (2011), 32, 1456–1465 
S.Grimme, J.Antony, S.Ehrlich and H.Krieg, J.Chem.Phys., 132, (2010), 154104 
   

================================================================================

----- Orbital basis set information -----
Your calculation utilizes the basis: def2-TZVP
   F. Weigend and R. Ahlrichs, Phys. Chem. Chem. Phys. 7, 3297 (2005).

----- AuxJ basis set information -----
Your calculation utilizes the auxiliary basis: def2/J
   F. Weigend, Phys. Chem. Chem. Phys. 8, 1057 (2006).

================================================================================
                                        WARNINGS
                       Please study these warnings very carefully!
================================================================================

INFO   : Checking CIS options ...

WARNING: CIS/ROCIS methods need fully converged wavefunctions
  ===> : Setting SCFConvForced true
         You can overwrite this default with %scf ConvForced false 


INFO   : the flag for use of the SHARK integral package has been found!

================================================================================
                                       INPUT FILE
================================================================================
NAME = ox_es1_A_orca0042.inp
|  1> ! engrad PBE0 D3BJ def2-TZVP  
|  2> %pal nprocs 8 end
|  3> %maxcore 3000
|  4> 
|  5> %tddft
|  6>   nroots 1
|  7>   tda true
|  8>   Iroot 1
|  9>   end 
| 10> *xyz 0 1 
| 11> O   -0.024471922125911108 0.8191323538534536 0.03409468448131557
| 12> C   -0.6365542237131983 -0.4178240807337018 -0.017964604539352978
| 13> C   0.7584222815346154 -0.3915853109708546 0.041024109059868204
| 14> H   -1.238459228444635 -0.6149370755205423 0.9784409995222837
| 15> H   -1.1947148204481237 -0.6358354156205179 -0.9283321240158428
| 16> H   1.271158504321666 -0.6079454116745822 -0.9608230035493618
| 17> H   1.282256535443645 -0.687937750616368 0.9214134111467408
| 18> *
| 19> 
| 20>                          ****END OF INPUT****
================================================================================

                     *******************************
                     * Energy+Gradient Calculation *
                     *******************************

---------------------------------
CARTESIAN COORDINATES (ANGSTROEM)
---------------------------------
  O     -0.024472    0.819132    0.034095
  C     -0.636554   -0.417824   -0.017965
  C      0.758422   -0.391585    0.041024
  H     -1.238459   -0.614937    0.978441
  H     -1.194715   -0.635835   -0.928332
  H      1.271159   -0.607945   -0.960823
  H      1.282257   -0.687938    0.921413

----------------------------
CARTESIAN COORDINATES (A.U.)
----------------------------
  NO LB      ZA    FRAG     MASS         X           Y           Z
   0 O     8.0000    0    15.999   -0.046245    1.547936    0.064430
   1 C     6.0000    0    12.011   -1.202913   -0.789573   -0.033948
   2 C     6.0000    0    12.011    1.433210   -0.739989    0.077524
   3 H     1.0000    0     1.008   -2.340349   -1.162063    1.848986
   4 H     1.0000    0     1.008   -2.257684   -1.201555   -1.754293
   5 H     1.0000    0     1.008    2.402141   -1.148850   -1.815692
   6 H     1.0000    0     1.008    2.423114   -1.300014    1.741219

--------------------------------
INTERNAL COORDINATES (ANGSTROEM)
--------------------------------
 O      0   0   0     0.000000000000     0.00000000     0.00000000
 C      1   0   0     1.381092370030     0.00000000     0.00000000
 C      2   1   0     1.396469688738    62.53970029     0.00000000
 H      2   1   3     1.180663921376   110.09962148   112.45451691
 H      2   1   3     1.089881284546   115.95155511   244.07428041
 H      3   2   1     1.146040036115   113.98177178   256.36029775
 H      3   2   1     1.066448506624   121.35373037   108.46610237

---------------------------
INTERNAL COORDINATES (A.U.)
---------------------------
 O      0   0   0     0.000000000000     0.00000000     0.00000000
 C      1   0   0     2.609886345006     0.00000000     0.00000000
 C      2   1   0     2.638945266037    62.53970029     0.00000000
 H      2   1   3     2.231131467603   110.09962148   112.45451691
 H      2   1   3     2.059577146279   115.95155511   244.07428041
 H      3   2   1     2.165701806766   113.98177178   256.36029775
 H      3   2   1     2.015295613449   121.35373037   108.46610237

---------------------
BASIS SET INFORMATION
---------------------
There are 3 groups of distinct atoms

 Group   1 Type O   : 11s6p2d1f contracted to 5s3p2d1f pattern {62111/411/11/1}
 Group   2 Type C   : 11s6p2d1f contracted to 5s3p2d1f pattern {62111/411/11/1}
 Group   3 Type H   : 5s1p contracted to 3s1p pattern {311/1}

Atom   0O    basis set group =>   1
Atom   1C    basis set group =>   2
Atom   2C    basis set group =>   2
Atom   3H    basis set group =>   3
Atom   4H    basis set group =>   3
Atom   5H    basis set group =>   3
Atom   6H    basis set group =>   3
---------------------------------
AUXILIARY/J BASIS SET INFORMATION
---------------------------------
There are 3 groups of distinct atoms

 Group   1 Type O   : 12s5p4d2f1g contracted to 6s4p3d1f1g pattern {711111/2111/211/2/1}
 Group   2 Type C   : 12s5p4d2f1g contracted to 6s4p3d1f1g pattern {711111/2111/211/2/1}
 Group   3 Type H   : 5s2p1d contracted to 3s1p1d pattern {311/2/1}

Atom   0O    basis set group =>   1
Atom   1C    basis set group =>   2
Atom   2C    basis set group =>   2
Atom   3H    basis set group =>   3
Atom   4H    basis set group =>   3
Atom   5H    basis set group =>   3
Atom   6H    basis set group =>   3

Checking for AutoStart:
The File: ox_es1_A_orca0042.gbw exists
Trying to determine its content:
     ... Fine, the file contains calculation information
     ... Fine, the calculation information was read
     ... Fine, the file contains a basis set
     ... Fine, the basis set was read
     ... Fine, the file contains a geometry
     ... Fine, the geometry was read
     ... Fine, the file contains a set of orbitals
     ... Fine, the orbitals can be read
     => possible old guess file was deleted
     => GBW file was renamed to GES file
     => GES file is set as startup file
     => Guess is set to MORead
     ... now leaving AutoStart



           ************************************************************
           *        Program running with 8 parallel MPI-processes     *
           *              working on a common directory               *
           ************************************************************
------------------------------------------------------------------------------
                           ORCA GTO INTEGRAL CALCULATION
                           -- RI-GTO INTEGRALS CHOSEN --
------------------------------------------------------------------------------
------------------------------------------------------------------------------
                   ___                                                        
                  /   \      - P O W E R E D   B Y -                         
                 /     \                                                     
                 |  |  |   _    _      __       _____    __    __             
                 |  |  |  | |  | |    /  \     |  _  \  |  |  /  |          
                  \  \/   | |  | |   /    \    | | | |  |  | /  /          
                 / \  \   | |__| |  /  /\  \   | |_| |  |  |/  /          
                |  |  |   |  __  | /  /__\  \  |    /   |      \           
                |  |  |   | |  | | |   __   |  |    \   |  |\   \          
                \     /   | |  | | |  |  |  |  | |\  \  |  | \   \       
                 \___/    |_|  |_| |__|  |__|  |_| \__\ |__|  \__/        
                                                                              
                      - O R C A' S   B I G   F R I E N D -                    
                                      &                                       
                       - I N T E G R A L  F E E D E R -                       
                                                                              
 v1 FN, 2020, v2 2021                                                         
------------------------------------------------------------------------------


Reading SHARK input file ox_es1_A_orca0042.SHARKINP.tmp ... ok
----------------------
SHARK INTEGRAL PACKAGE
----------------------

Number of atoms                             ...      7
Number of basis functions                   ...    117
Number of shells                            ...     49
Maximum angular momentum                    ...      3
Integral batch strategy                     ... SHARK/LIBINT Hybrid
RI-J (if used) integral strategy            ... SPLIT-RIJ (Revised 2003 algorithm where possible)
Printlevel                                  ...      1
Contraction scheme used                     ... SEGMENTED contraction
Coulomb Range Separation                    ... NOT USED
Exchange Range Separation                   ... NOT USED
Finite Nucleus Model                        ... NOT USED
Auxiliary Coulomb fitting basis             ... AVAILABLE
   # of basis functions in Aux-J            ...    191
   # of shells in Aux-J                     ...     65
   Maximum angular momentum in Aux-J        ...      4
Auxiliary J/K fitting basis                 ... NOT available
Auxiliary Correlation fitting basis         ... NOT available
Auxiliary 'external' fitting basis          ... NOT available
Integral threshold                          ...     2.500000e-11
Primitive cut-off                           ...     2.500000e-12
Primitive pair pre-selection threshold      ...     2.500000e-12

Calculating pre-screening integrals         ... done (  0.0 sec) Dimension = 49
Organizing shell pair data                  ... done (  0.0 sec)
Shell pair information
Total number of shell pairs                 ...      1225
Shell pairs after pre-screening             ...      1221
Total number of primitive shell pairs       ...      3648
Primitive shell pairs kept                  ...      3156
          la=0 lb=0:    374 shell pairs
          la=1 lb=0:    351 shell pairs
          la=1 lb=1:     91 shell pairs
          la=2 lb=0:    162 shell pairs
          la=2 lb=1:     78 shell pairs
          la=2 lb=2:     21 shell pairs
          la=3 lb=0:     81 shell pairs
          la=3 lb=1:     39 shell pairs
          la=3 lb=2:     18 shell pairs
          la=3 lb=3:      6 shell pairs

Calculating one electron integrals          ... done (  0.0 sec)
Calculating RI/J V-Matrix + Cholesky decomp.... done (  0.0 sec)
Calculating Nuclear repulsion               ... done (  0.0 sec) ENN=     76.080260500618 Eh

SHARK setup successfully completed in   0.1 seconds

Maximum memory used throughout the entire GTOINT-calculation: 14.9 MB


           ************************************************************
           *        Program running with 8 parallel MPI-processes     *
           *              working on a common directory               *
           ************************************************************
-------------------------------------------------------------------------------
                                 ORCA SCF
-------------------------------------------------------------------------------

------------
SCF SETTINGS
------------
Hamiltonian:
 Density Functional     Method          .... DFT(GTOs)
 Exchange Functional    Exchange        .... PBE
   PBE kappa parameter   XKappa         ....  0.804000
   PBE mue parameter    XMuePBE         ....  0.219520
 Correlation Functional Correlation     .... PBE
   PBE beta parameter  CBetaPBE         ....  0.066725
 LDA part of GGA corr.  LDAOpt          .... PW91-LDA
 Gradients option       PostSCFGGA      .... off
 Hybrid DFT is turned on
   Fraction HF Exchange ScalHFX         ....  0.250000
   Scaling of DF-GGA-X  ScalDFX         ....  0.750000
   Scaling of DF-GGA-C  ScalDFC         ....  1.000000
   Scaling of DF-LDA-C  ScalLDAC        ....  1.000000
   Perturbative correction              ....  0.000000
   Density functional embedding theory  .... OFF
   NL short-range parameter             ....  6.900000
 RI-approximation to the Coulomb term is turned on
   Number of AuxJ basis functions       .... 191
   RIJ-COSX (HFX calculated with COS-X)).... on


General Settings:
 Integral files         IntName         .... ox_es1_A_orca0042
 Hartree-Fock type      HFTyp           .... RHF
 Total Charge           Charge          ....    0
 Multiplicity           Mult            ....    1
 Number of Electrons    NEL             ....   24
 Basis Dimension        Dim             ....  117
 Nuclear Repulsion      ENuc            ....     76.0802605006 Eh

Convergence Acceleration:
 DIIS                   CNVDIIS         .... on
   Start iteration      DIISMaxIt       ....    12
   Startup error        DIISStart       ....  0.200000
   # of expansion vecs  DIISMaxEq       ....     5
   Bias factor          DIISBfac        ....   1.050
   Max. coefficient     DIISMaxC        ....  10.000
 Trust-Rad. Augm. Hess. CNVTRAH         .... auto
   Auto Start mean grad. ratio tolernc. ....  1.125000
   Auto Start start iteration           ....     1
   Auto Start num. interpolation iter.  ....    10
   Max. Number of Micro iterations      ....    16
   Max. Number of Macro iterations      .... Maxiter - #DIIS iter
   Number of Davidson start vectors     ....     2
   Converg. threshold I  (grad. norm)   ....   1.000e-05
   Converg. threshold II (energy diff.) ....   1.000e-08
   Grad. Scal. Fac. for Micro threshold ....   0.100
   Minimum threshold for Micro iter.    ....   0.010
   NR start threshold (gradient norm)   ....   0.001
   Initial trust radius                 ....   0.400
   Minimum AH scaling param. (alpha)    ....   1.000
   Maximum AH scaling param. (alpha)    .... 1000.000
   Orbital update algorithm             .... Taylor
   White noise on init. David. guess    .... on
   Maximum white noise                  ....   0.010
   Quad. conv. algorithm                .... NR
 SOSCF                  CNVSOSCF        .... on
   Start iteration      SOSCFMaxIt      ....   150
   Startup grad/error   SOSCFStart      ....  0.003300
 Level Shifting         CNVShift        .... on
   Level shift para.    LevelShift      ....    0.2500
   Turn off err/grad.   ShiftErr        ....    0.0010
 Zerner damping         CNVZerner       .... off
 Static damping         CNVDamp         .... on
   Fraction old density DampFac         ....    0.7000
   Max. Damping (<1)    DampMax         ....    0.9800
   Min. Damping (>=0)   DampMin         ....    0.0000
   Turn off err/grad.   DampErr         ....    0.1000
 Fernandez-Rico         CNVRico         .... off

SCF Procedure:
 Maximum # iterations   MaxIter         ....   125
 SCF integral mode      SCFMode         .... Direct
   Integral package                     .... SHARK and LIBINT hybrid scheme
 Reset frequency        DirectResetFreq ....    20
 Integral Threshold     Thresh          ....  2.500e-11 Eh
 Primitive CutOff       TCut            ....  2.500e-12 Eh

Convergence Tolerance:
 Convergence Check Mode ConvCheckMode   .... Total+1el-Energy
 Convergence forced     ConvForced      .... 1
 Energy Change          TolE            ....  1.000e-08 Eh
 1-El. energy change                    ....  1.000e-05 Eh
 Orbital Gradient       TolG            ....  1.000e-05
 Orbital Rotation angle TolX            ....  1.000e-05
 DIIS Error             TolErr          ....  5.000e-07


Diagonalization of the overlap matrix:
Smallest eigenvalue                        ... 2.486e-04
Time for diagonalization                   ...    0.001 sec
Threshold for overlap eigenvalues          ... 1.000e-08
Number of eigenvalues below threshold      ... 0
Time for construction of square roots      ...    0.001 sec
Total time needed                          ...    0.003 sec

---------------------
INITIAL GUESS: MOREAD
---------------------
Guess MOs are being read from file: ox_es1_A_orca0042.ges
Input Geometry matches current geometry (good)
Input basis set matches current basis set (good)
MOs were renormalized
MOs were reorthogonalized (Cholesky)
                      ------------------
                      INITIAL GUESS DONE (   0.0 sec)
                      ------------------
-------------------
DFT GRID GENERATION
-------------------

General Integration Accuracy     IntAcc      ... 4.388
Radial Grid Type                 RadialGrid  ... OptM3 with GC (2021)
Angular Grid (max. ang.)         AngularGrid ... 4 (Lebedev-302)
Angular grid pruning method      GridPruning ... 4 (adaptive)
Weight generation scheme         WeightScheme... Becke
Basis function cutoff            BFCut       ... 1.0000e-11
Integration weight cutoff        WCut        ... 1.0000e-14
Angular grids for H and He will be reduced by one unit
Partially contracted basis set               ... off
Rotationally invariant grid construction     ... off

Total number of grid points                  ...    31309
Total number of batches                      ...      491
Average number of points per batch           ...       63
Average number of grid points per atom       ...     4473
Time for grid setup =    0.118 sec

--------------------
COSX GRID GENERATION
--------------------

GRIDX 1
-------
General Integration Accuracy     IntAcc      ... 3.816
Radial Grid Type                 RadialGrid  ... OptM3 with GC (2021)
Angular Grid (max. ang.)         AngularGrid ... 1 (Lebedev-50)
Angular grid pruning method      GridPruning ... 4 (adaptive)
Weight generation scheme         WeightScheme... Becke
Basis function cutoff            BFCut       ... 1.0000e-11
Integration weight cutoff        WCut        ... 1.0000e-14
Angular grids for H and He will be reduced by one unit
Partially contracted basis set               ... on
Rotationally invariant grid construction     ... off

Total number of grid points                  ...     4035
Total number of batches                      ...       68
Average number of points per batch           ...       59
Average number of grid points per atom       ...      576
UseSFitting                                  ... on

GRIDX 2
-------
General Integration Accuracy     IntAcc      ... 4.020
Radial Grid Type                 RadialGrid  ... OptM3 with GC (2021)
Angular Grid (max. ang.)         AngularGrid ... 2 (Lebedev-110)
Angular grid pruning method      GridPruning ... 4 (adaptive)
Weight generation scheme         WeightScheme... Becke
Basis function cutoff            BFCut       ... 1.0000e-11
Integration weight cutoff        WCut        ... 1.0000e-14
Angular grids for H and He will be reduced by one unit
Partially contracted basis set               ... on
Rotationally invariant grid construction     ... off

Total number of grid points                  ...     8713
Total number of batches                      ...      140
Average number of points per batch           ...       62
Average number of grid points per atom       ...     1245
UseSFitting                                  ... on

GRIDX 3
-------
General Integration Accuracy     IntAcc      ... 4.338
Radial Grid Type                 RadialGrid  ... OptM3 with GC (2021)
Angular Grid (max. ang.)         AngularGrid ... 3 (Lebedev-194)
Angular grid pruning method      GridPruning ... 4 (adaptive)
Weight generation scheme         WeightScheme... Becke
Basis function cutoff            BFCut       ... 1.0000e-11
Integration weight cutoff        WCut        ... 1.0000e-14
Angular grids for H and He will be reduced by one unit
Partially contracted basis set               ... on
Rotationally invariant grid construction     ... off

Total number of grid points                  ...    19250
Total number of batches                      ...      304
Average number of points per batch           ...       63
Average number of grid points per atom       ...     2750
UseSFitting                                  ... on

Time for X-Grid setup             =    0.072 sec

--------------
SCF ITERATIONS
--------------
ITER       Energy         Delta-E        Max-DP      RMS-DP      [F,P]     Damp
               ***  Starting incremental Fock matrix formation  ***
                      *** Initiating the SOSCF procedure ***
                      *** Re-Reading the Fockian *** 
                      *** Removing any level shift *** 
ITER      Energy       Delta-E        Grad      Rot      Max-DP    RMS-DP
  0   -153.66175760 -153.6617576008  0.000000  0.000000  0.000001  0.000000
               *** Restarting incremental Fock matrix formation ***
                 **** Energy Check signals convergence ****
              ***Rediagonalizing the Fockian in SOSCF/NRSCF***

               *****************************************************
               *                     SUCCESS                       *
               *           SCF CONVERGED AFTER   1 CYCLES          *
               *****************************************************

Old exchange energy                            =     -4.996751382 Eh
New exchange energy                            =     -4.996746599 Eh
Exchange energy change after final integration =      0.000004783 Eh
Total energy after final integration           =   -153.661752817 Eh
Final COS-X integration done in                =     0.259 sec

----------------
TOTAL SCF ENERGY
----------------

Total Energy       :         -153.66175282 Eh           -4181.34887 eV

Components:
Nuclear Repulsion  :           76.08026050 Eh            2070.24914 eV
Electronic Energy  :         -229.74201332 Eh           -6251.59801 eV
One Electron Energy:         -358.78878280 Eh           -9763.13913 eV
Two Electron Energy:          129.04676948 Eh            3511.54112 eV
Max COSX asymmetry :            0.00000214 Eh               0.00006 eV

Virial components:
Potential Energy   :         -306.65544285 Eh           -8344.51883 eV
Kinetic Energy     :          152.99369004 Eh            4163.16996 eV
Virial Ratio       :            2.00436660


DFT components:
N(Alpha)           :       12.000004097502 electrons
N(Beta)            :       12.000004097502 electrons
N(Total)           :       24.000008195004 electrons
E(X)               :      -14.959543754687 Eh       
E(C)               :       -0.791960147945 Eh       
E(XC)              :      -15.751503902632 Eh       
DFET-embed. en.    :        0.000000000000 Eh       

---------------
SCF CONVERGENCE
---------------

  Last Energy change         ...   -3.2969e-12  Tolerance :   1.0000e-08
  Last MAX-Density change    ...    6.6613e-16  Tolerance :   1.0000e-07
  Last RMS-Density change    ...    2.0025e-17  Tolerance :   5.0000e-09
  Last Orbital Gradient      ...    2.5219e-07  Tolerance :   1.0000e-05
  Last Orbital Rotation      ...    4.7569e-07  Tolerance :   1.0000e-05

             **** THE GBW FILE WAS UPDATED (ox_es1_A_orca0042.gbw) ****
             **** DENSITY ox_es1_A_orca0042.scfp WAS UPDATED ****
             **** ENERGY FILE WAS UPDATED (ox_es1_A_orca0042.en.tmp) ****
             **** THE GBW FILE WAS UPDATED (ox_es1_A_orca0042.gbw) ****
             **** DENSITY ox_es1_A_orca0042.scfp WAS UPDATED ****
----------------
ORBITAL ENERGIES
----------------

  NO   OCC          E(Eh)            E(eV) 
   0   2.0000     -19.224403      -523.1226 
   1   2.0000     -10.277407      -279.6625 
   2   2.0000     -10.275858      -279.6203 
   3   2.0000      -1.124045       -30.5868 
   4   2.0000      -0.708978       -19.2923 
   5   2.0000      -0.643056       -17.4984 
   6   2.0000      -0.535118       -14.5613 
   7   2.0000      -0.507581       -13.8120 
   8   2.0000      -0.411307       -11.1922 
   9   2.0000      -0.383374       -10.4321 
  10   2.0000      -0.344047        -9.3620 
  11   2.0000      -0.290131        -7.8949 
  12   0.0000       0.057400         1.5619 
  13   0.0000       0.075232         2.0472 
  14   0.0000       0.082308         2.2397 
  15   0.0000       0.092248         2.5102 
  16   0.0000       0.114809         3.1241 
  17   0.0000       0.153394         4.1741 
  18   0.0000       0.187610         5.1051 
  19   0.0000       0.214860         5.8466 
  20   0.0000       0.269506         7.3336 
  21   0.0000       0.275419         7.4945 
  22   0.0000       0.300597         8.1796 
  23   0.0000       0.340025         9.2525 
  24   0.0000       0.379486        10.3263 
  25   0.0000       0.392328        10.6758 
  26   0.0000       0.405590        11.0367 
  27   0.0000       0.430768        11.7218 
  28   0.0000       0.453405        12.3378 
  29   0.0000       0.467290        12.7156 
  30   0.0000       0.499016        13.5789 
  31   0.0000       0.516384        14.0515 
  32   0.0000       0.526388        14.3237 
  33   0.0000       0.694604        18.9011 
  34   0.0000       0.713353        19.4113 
  35   0.0000       0.733857        19.9693 
  36   0.0000       0.824639        22.4396 
  37   0.0000       0.878657        23.9095 
  38   0.0000       0.883484        24.0408 
  39   0.0000       0.947998        25.7963 
  40   0.0000       1.023918        27.8622 
  41   0.0000       1.053546        28.6684 
  42   0.0000       1.065619        28.9970 
  43   0.0000       1.095454        29.8088 
  44   0.0000       1.179838        32.1050 
  45   0.0000       1.372393        37.3447 
  46   0.0000       1.462440        39.7950 
  47   0.0000       1.507716        41.0270 
  48   0.0000       1.515638        41.2426 
  49   0.0000       1.529581        41.6220 
  50   0.0000       1.570857        42.7452 
  51   0.0000       1.624107        44.1942 
  52   0.0000       1.642004        44.6812 
  53   0.0000       1.667469        45.3741 
  54   0.0000       1.767092        48.0850 
  55   0.0000       1.810761        49.2733 
  56   0.0000       1.813189        49.3394 
  57   0.0000       1.901937        51.7543 
  58   0.0000       1.941323        52.8261 
  59   0.0000       1.991161        54.1822 
  60   0.0000       2.125633        57.8414 
  61   0.0000       2.161951        58.8297 
  62   0.0000       2.175798        59.2065 
  63   0.0000       2.239955        60.9523 
  64   0.0000       2.291055        62.3428 
  65   0.0000       2.389327        65.0169 
  66   0.0000       2.447644        66.6038 
  67   0.0000       2.468195        67.1630 
  68   0.0000       2.527342        68.7725 
  69   0.0000       2.570658        69.9512 
  70   0.0000       2.654463        72.2316 
  71   0.0000       2.682572        72.9965 
  72   0.0000       2.696392        73.3726 
  73   0.0000       2.712243        73.8039 
  74   0.0000       2.718819        73.9828 
  75   0.0000       2.800771        76.2129 
  76   0.0000       2.843519        77.3761 
  77   0.0000       2.964681        80.6731 
  78   0.0000       3.007398        81.8355 
  79   0.0000       3.018247        82.1307 
  80   0.0000       3.076376        83.7124 
  81   0.0000       3.099577        84.3438 
  82   0.0000       3.108795        84.5946 
  83   0.0000       3.267312        88.9081 
  84   0.0000       3.339134        90.8624 
  85   0.0000       3.369267        91.6824 
  86   0.0000       3.389131        92.2229 
  87   0.0000       3.406530        92.6964 
  88   0.0000       3.577487        97.3484 
  89   0.0000       3.626922        98.6936 
  90   0.0000       3.665283        99.7374 
  91   0.0000       3.725618       101.3792 
  92   0.0000       3.950135       107.4886 
  93   0.0000       3.976905       108.2171 
  94   0.0000       4.110645       111.8563 
  95   0.0000       4.199429       114.2723 
  96   0.0000       4.220472       114.8449 
  97   0.0000       4.332345       117.8891 
  98   0.0000       4.404756       119.8595 
  99   0.0000       4.569544       124.3436 
 100   0.0000       4.701485       127.9339 
 101   0.0000       4.823749       131.2609 
 102   0.0000       5.298311       144.1744 
 103   0.0000       5.451872       148.3530 
 104   0.0000       5.709965       155.3760 
 105   0.0000       5.761888       156.7889 
 106   0.0000       5.817048       158.2899 
 107   0.0000       5.932302       161.4262 
 108   0.0000       6.080661       165.4632 
 109   0.0000       6.591297       179.3583 
 110   0.0000       6.626803       180.3245 
 111   0.0000       6.814297       185.4264 
 112   0.0000       6.969831       189.6588 
 113   0.0000       7.169460       195.0909 
 114   0.0000      22.257577       605.6595 
 115   0.0000      22.512783       612.6040 
 116   0.0000      43.876494      1193.9401 

                    ********************************
                    * MULLIKEN POPULATION ANALYSIS *
                    ********************************

-----------------------
MULLIKEN ATOMIC CHARGES
-----------------------
   0 O :   -0.313778
   1 C :   -0.055376
   2 C :   -0.075031
   3 H :    0.101497
   4 H :    0.115395
   5 H :    0.106689
   6 H :    0.120605
Sum of atomic charges:   -0.0000000

--------------------------------
MULLIKEN REDUCED ORBITAL CHARGES
--------------------------------
  0 O s       :     3.857798  s :     3.857798
      pz      :     1.826274  p :     4.408846
      px      :     1.327715
      py      :     1.254856
      dz2     :     0.005957  d :     0.044755
      dxz     :     0.002659
      dyz     :     0.007325
      dx2y2   :     0.013057
      dxy     :     0.015758
      f0      :     0.000279  f :     0.002380
      f+1     :     0.000194
      f-1     :     0.000496
      f+2     :     0.000114
      f-2     :     0.000207
      f+3     :     0.000432
      f-3     :     0.000659
  1 C s       :     3.208684  s :     3.208684
      pz      :     1.040816  p :     2.705653
      px      :     0.913217
      py      :     0.751620
      dz2     :     0.005571  d :     0.128161
      dxz     :     0.029379
      dyz     :     0.036446
      dx2y2   :     0.033215
      dxy     :     0.023551
      f0      :     0.001803  f :     0.012879
      f+1     :     0.001336
      f-1     :     0.000725
      f+2     :     0.001925
      f-2     :     0.001606
      f+3     :     0.001961
      f-3     :     0.003522
  2 C s       :     3.219697  s :     3.219697
      pz      :     1.025237  p :     2.731378
      px      :     0.926245
      py      :     0.779896
      dz2     :     0.006361  d :     0.112265
      dxz     :     0.026770
      dyz     :     0.028767
      dx2y2   :     0.028474
      dxy     :     0.021893
      f0      :     0.001561  f :     0.011691
      f+1     :     0.001294
      f-1     :     0.000628
      f+2     :     0.001235
      f-2     :     0.001774
      f+3     :     0.002119
      f-3     :     0.003079
  3 H s       :     0.880687  s :     0.880687
      pz      :     0.009561  p :     0.017816
      px      :     0.005360
      py      :     0.002896
  4 H s       :     0.863669  s :     0.863669
      pz      :     0.010632  p :     0.020936
      px      :     0.006554
      py      :     0.003750
  5 H s       :     0.873930  s :     0.873930
      pz      :     0.010752  p :     0.019381
      px      :     0.005300
      py      :     0.003329
  6 H s       :     0.857402  s :     0.857402
      pz      :     0.010676  p :     0.021993
      px      :     0.006800
      py      :     0.004516


                     *******************************
                     * LOEWDIN POPULATION ANALYSIS *
                     *******************************

----------------------
LOEWDIN ATOMIC CHARGES
----------------------
   0 O :    0.150174
   1 C :   -0.358456
   2 C :   -0.292077
   3 H :    0.131862
   4 H :    0.116569
   5 H :    0.135603
   6 H :    0.116325

-------------------------------
LOEWDIN REDUCED ORBITAL CHARGES
-------------------------------
  0 O s       :     3.370526  s :     3.370526
      pz      :     1.705817  p :     4.375010
      px      :     1.304604
      py      :     1.364589
      dz2     :     0.011985  d :     0.096969
      dxz     :     0.007915
      dyz     :     0.016548
      dx2y2   :     0.034934
      dxy     :     0.025587
      f0      :     0.000698  f :     0.007322
      f+1     :     0.000248
      f-1     :     0.001010
      f+2     :     0.000251
      f-2     :     0.000934
      f+3     :     0.001308
      f-3     :     0.002874
  1 C s       :     2.817032  s :     2.817032
      pz      :     1.025005  p :     2.904287
      px      :     1.052303
      py      :     0.826979
      dz2     :     0.055406  d :     0.548894
      dxz     :     0.152637
      dyz     :     0.100587
      dx2y2   :     0.125706
      dxy     :     0.114558
      f0      :     0.012183  f :     0.088243
      f+1     :     0.006174
      f-1     :     0.006708
      f+2     :     0.012619
      f-2     :     0.006913
      f+3     :     0.016040
      f-3     :     0.027606
  2 C s       :     2.814805  s :     2.814805
      pz      :     1.033023  p :     2.916604
      px      :     1.065533
      py      :     0.818048
      dz2     :     0.053490  d :     0.485193
      dxz     :     0.140196
      dyz     :     0.082697
      dx2y2   :     0.104687
      dxy     :     0.104123
      f0      :     0.010514  f :     0.075474
      f+1     :     0.006067
      f-1     :     0.005591
      f+2     :     0.007908
      f-2     :     0.007271
      f+3     :     0.015543
      f-3     :     0.022580
  3 H s       :     0.821299  s :     0.821299
      pz      :     0.026300  p :     0.046839
      px      :     0.012911
      py      :     0.007627
  4 H s       :     0.823273  s :     0.823273
      pz      :     0.031761  p :     0.060158
      px      :     0.017412
      py      :     0.010985
  5 H s       :     0.812315  s :     0.812315
      pz      :     0.029586  p :     0.052082
      px      :     0.013271
      py      :     0.009225
  6 H s       :     0.818993  s :     0.818993
      pz      :     0.032602  p :     0.064682
      px      :     0.018445
      py      :     0.013635


                      *****************************
                      * MAYER POPULATION ANALYSIS *
                      *****************************

  NA   - Mulliken gross atomic population
  ZA   - Total nuclear charge
  QA   - Mulliken gross atomic charge
  VA   - Mayer's total valence
  BVA  - Mayer's bonded valence
  FA   - Mayer's free valence

  ATOM       NA         ZA         QA         VA         BVA        FA
  0 O      8.3138     8.0000    -0.3138     2.0095     2.0095    -0.0000
  1 C      6.0554     6.0000    -0.0554     3.9915     3.9915    -0.0000
  2 C      6.0750     6.0000    -0.0750     3.9891     3.9891    -0.0000
  3 H      0.8985     1.0000     0.1015     0.9649     0.9649    -0.0000
  4 H      0.8846     1.0000     0.1154     0.9583     0.9583    -0.0000
  5 H      0.8933     1.0000     0.1067     0.9631     0.9631    -0.0000
  6 H      0.8794     1.0000     0.1206     0.9572     0.9572    -0.0000

  Mayer bond orders larger than 0.100000
B(  0-O ,  1-C ) :   0.9889 B(  0-O ,  2-C ) :   0.9915 B(  1-C ,  2-C ) :   1.0881 
B(  1-C ,  3-H ) :   0.9474 B(  1-C ,  4-H ) :   0.9488 B(  2-C ,  5-H ) :   0.9459 
B(  2-C ,  6-H ) :   0.9453 

-------
TIMINGS
-------

Total SCF time: 0 days 0 hours 0 min 1 sec 

Total time                  ....       1.010 sec
Sum of individual times     ....       0.914 sec  ( 90.5%)

Fock matrix formation       ....       0.705 sec  ( 69.8%)
  Split-RI-J                ....       0.112 sec  ( 15.9% of F)
  Chain of spheres X        ....       0.520 sec  ( 73.8% of F)
  XC integration            ....       0.063 sec  (  9.0% of F)
    Basis function eval.    ....       0.017 sec  ( 27.6% of XC)
    Density eval.           ....       0.014 sec  ( 21.6% of XC)
    XC-Functional eval.     ....       0.004 sec  (  6.0% of XC)
    XC-Potential eval.      ....       0.020 sec  ( 32.0% of XC)
Diagonalization             ....       0.002 sec  (  0.2%)
Density matrix formation    ....       0.000 sec  (  0.0%)
Population analysis         ....       0.003 sec  (  0.3%)
Initial guess               ....       0.010 sec  (  1.0%)
Orbital Transformation      ....       0.000 sec  (  0.0%)
Orbital Orthonormalization  ....       0.001 sec  (  0.1%)
DIIS solution               ....       0.001 sec  (  0.1%)
SOSCF solution              ....       0.002 sec  (  0.2%)
Grid generation             ....       0.190 sec  ( 18.8%)

Maximum memory used throughout the entire SCF-calculation: 61.1 MB


           ************************************************************
           *        Program running with 8 parallel MPI-processes     *
           *              working on a common directory               *
           ************************************************************
------------------------------------------------------------------------------
                        ORCA TD-DFT/TDA CALCULATION
------------------------------------------------------------------------------

Input orbitals are from        ... ox_es1_A_orca0042.gbw
CI-vector output               ... ox_es1_A_orca0042.cis
Tamm-Dancoff approximation     ... operative
CIS-Integral strategy          ... AO-integrals
Integral handling              ... AO integral Direct
Max. core memory used          ... 3000 MB
Reference state                ... RHF
Generation of triplets         ... off
Follow IRoot                   ... off
Number of operators            ... 1
Orbital ranges used for CIS calculation:
 Operator 0:  Orbitals   3... 11  to  12...116
XAS localization array:
 Operator 0:  Orbitals  -1... -1

-------------------
XC-INTEGRATION GRID
-------------------

General Integration Accuracy     IntAcc      ... 3.467
Radial Grid Type                 RadialGrid  ... OptM3 with GC (2021)
Angular Grid (max. ang.)         AngularGrid ... 1 (Lebedev-50)
Angular grid pruning method      GridPruning ... 4 (adaptive)
Weight generation scheme         WeightScheme... Becke
Basis function cutoff            BFCut       ... 1.0000e-11
Integration weight cutoff        WCut        ... 1.0000e-14
Angular grids for H and He will be reduced by one unit
Partially contracted basis set               ... off
Rotationally invariant grid construction     ... off

Total number of grid points                  ...     4536
Total number of batches                      ...       75
Average number of points per batch           ...       60
Average number of grid points per atom       ...      648

---------------------
COSX-INTEGRATION GRID
---------------------

General Integration Accuracy     IntAcc      ... 3.067
Radial Grid Type                 RadialGrid  ... OptM3 with GC (2021)
Angular Grid (max. ang.)         AngularGrid ... 1 (Lebedev-50)
Angular grid pruning method      GridPruning ... 4 (adaptive)
Weight generation scheme         WeightScheme... Becke
Basis function cutoff            BFCut       ... 1.0000e-11
Integration weight cutoff        WCut        ... 1.0000e-14
Angular grids for H and He will be reduced by one unit
Partially contracted basis set               ... on
Rotationally invariant grid construction     ... off

Total number of grid points                  ...     2085
Total number of batches                      ...       38
Average number of points per batch           ...       54
Average number of grid points per atom       ...      298

---------------
TD-DFT XC SETUP
---------------

DFT calculation                         ... on
Name of the grid file                   ... ox_es1_A_orca0042.grid_cis.tmp
Exchange functional (TD-DFT)            ... PBE
   PBE kappa parameter  XKappa (TD-DFT) ...  0.804000
   PBE mue parameter   XMuePBE (TD-DFT) ...  0.219520
Correlation functional (TD-DFT)         ... PBE
   PBE beta parameter CBetaPBE (TD-DFT) ...  0.066725
 LDA part of GGA corr.  LDAOpt (TD-DFT) ... PW91-LDA
Hybrid DFT                              ... on
   Exchange mixing (TD-DFT)             ...  0.250
   GGA exch. scaling (TD-DFT)           ...  0.750
   GGA corr. scaling (TD-DFT)           ...  1.000

Building densities             ... done
Calculating rho(r) on the grid ... done
Building xc-kernel on the grid ... done
                    *** TD-DFT CALCULATION INITIALIZED ***

------------------------
DAVIDSON-DIAGONALIZATION
------------------------

Dimension of the eigenvalue problem            ...    945
Number of roots to be determined               ...      1
Maximum size of the expansion space            ...     10
Maximum number of iterations                   ...    100
Convergence tolerance for the residual         ...    2.500e-07
Convergence tolerance for the energies         ...    2.500e-07
Orthogonality tolerance                        ...    1.000e-14
Level Shift                                    ...    0.000e+00
Constructing the preconditioner                ... o.k.
Building the initial guess                     ... o.k.
Number of trial vectors determined             ...     10


                       ****Iteration    0****

   Memory handling for direct AO based CIS:
   Memory per vector needed      ...     1 MB
   Memory needed                 ...     1 MB
   Memory available              ...  3000 MB
   Number of vectors per batch   ...  3000
   Number of batches             ...     1
   Time for densities:            0.000
   Time for RI-J (Direct):        0.015
   Time for K (COSX):             0.055
   Time for XC-Integration:       0.016
   Time for Sigma-Completion:     0.000
   Size of expansion space: 3
   Lowest Energy          :     0.298387736475
   Maximum Energy change  :     0.298387736475 (vector 0)
   Maximum residual norm  :     0.000985006324

                       ****Iteration    1****
   Time for densities:            0.000
   Time for RI-J (Direct):        0.012
   Time for K (COSX):             0.049
   Time for XC-Integration:       0.007
   Time for Sigma-Completion:     0.000
   Size of expansion space: 4
   Lowest Energy          :     0.296865383974
   Maximum Energy change  :     0.001522352501 (vector 0)
   Maximum residual norm  :     0.000119751561

                       ****Iteration    2****
   Time for densities:            0.000
   Time for RI-J (Direct):        0.012
   Time for K (COSX):             0.049
   Time for XC-Integration:       0.007
   Time for Sigma-Completion:     0.000
   Size of expansion space: 5
   Lowest Energy          :     0.296578372063
   Maximum Energy change  :     0.000287011912 (vector 0)
   Maximum residual norm  :     0.000200796514

                       ****Iteration    3****
   Time for densities:            0.000
   Time for RI-J (Direct):        0.012
   Time for K (COSX):             0.049
   Time for XC-Integration:       0.007
   Time for Sigma-Completion:     0.000
   Size of expansion space: 6
   Lowest Energy          :     0.295334060589
   Maximum Energy change  :     0.001244311474 (vector 0)
   Maximum residual norm  :     0.000425682652

                       ****Iteration    4****
   Time for densities:            0.000
   Time for RI-J (Direct):        0.012
   Time for K (COSX):             0.049
   Time for XC-Integration:       0.007
   Time for Sigma-Completion:     0.000
   Size of expansion space: 7
   Lowest Energy          :     0.294616027413
   Maximum Energy change  :     0.000718033176 (vector 0)
   Maximum residual norm  :     0.000019272843

                       ****Iteration    5****
   Time for densities:            0.000
   Time for RI-J (Direct):        0.012
   Time for K (COSX):             0.049
   Time for XC-Integration:       0.007
   Time for Sigma-Completion:     0.000
   Size of expansion space: 8
   Lowest Energy          :     0.294589685413
   Maximum Energy change  :     0.000026342000 (vector 0)
   Maximum residual norm  :     0.000002304896

                       ****Iteration    6****
   Time for densities:            0.000
   Time for RI-J (Direct):        0.012
   Time for K (COSX):             0.049
   Time for XC-Integration:       0.007
   Time for Sigma-Completion:     0.000
   Size of expansion space: 9
   Lowest Energy          :     0.294586133220
   Maximum Energy change  :     0.000003552192 (vector 0)
   Maximum residual norm  :     0.000000432960

                       ****Iteration    7****
   Time for densities:            0.000
   Time for RI-J (Direct):        0.012
   Time for K (COSX):             0.049
   Time for XC-Integration:       0.007
   Time for Sigma-Completion:     0.000
   Size of expansion space: 10
   Lowest Energy          :     0.294585605407
   Maximum Energy change  :     0.000000527814 (vector 0)
   Maximum residual norm  :     0.000000089682

      *** CONVERGENCE OF RESIDUAL NORM REACHED ***

Storing the converged CI vectors               ... ox_es1_A_orca0042.cis1

                 *** DAVIDSON DONE ***

Total time for solving the CIS problem:     0.568sec

------------------------------------
TD-DFT/TDA EXCITED STATES (SINGLETS)
------------------------------------

the weight of the individual excitations are printed if larger than 1.0e-02

STATE  1:  E=   0.294586 au      8.016 eV    64654.1 cm**-1 <S**2> =   0.000000
    11a ->  12a  :     0.259969 (c=  0.50987122)
    11a ->  13a  :     0.635549 (c= -0.79721330)
    11a ->  14a  :     0.061454 (c=  0.24789970)
    11a ->  16a  :     0.022758 (c=  0.15085668)


-----------------------------
TD-DFT/TDA-EXCITATION SPECTRA
-----------------------------

Center of mass = (  0.0512,  0.0350,  0.0357)
Calculating the Dipole integrals                  ... done
Transforming integrals                            ... done
Calculating the Linear Momentum integrals         ... done
Transforming integrals                            ... done
Calculating angular momentum integrals            ... done
Transforming integrals                            ... done

-----------------------------------------------------------------------------
         ABSORPTION SPECTRUM VIA TRANSITION ELECTRIC DIPOLE MOMENTS
-----------------------------------------------------------------------------
State   Energy    Wavelength  fosc         T2        TX        TY        TZ  
        (cm-1)      (nm)                 (au**2)    (au)      (au)      (au) 
-----------------------------------------------------------------------------
   1   64654.1    154.7   0.025578479   0.13024  -0.03396  -0.00292   0.35928

-----------------------------------------------------------------------------
         ABSORPTION SPECTRUM VIA TRANSITION VELOCITY DIPOLE MOMENTS
-----------------------------------------------------------------------------
State   Energy    Wavelength   fosc        P2         PX        PY        PZ  
        (cm-1)      (nm)                 (au**2)     (au)      (au)      (au) 
-----------------------------------------------------------------------------
   1   64654.1    154.7   0.044382860   0.01961   0.01192   0.00449  -0.13946

-------------------------------------------------------------------
                             CD SPECTRUM
-------------------------------------------------------------------
State  Energy     Wavelength     R         MX        MY        MZ   
       (cm-1)       (nm)     (1e40*cgs)   (au)      (au)      (au)  
-------------------------------------------------------------------
   1   64654.1    154.7      0.85037   0.20672  -0.11183   0.02365

-------------------------------------------------------------------
         CD SPECTRUM VIA TRANSITION VELOCITY DIPOLE MOMENTS        
-------------------------------------------------------------------
State  Energy     Wavelength     R         MX        MY        MZ   
       (cm-1)       (nm)     (1e40*cgs)   (au)      (au)      (au)  
-------------------------------------------------------------------
   1   64654.1    154.7     -2.13897   0.20672  -0.11183   0.02365

Total run time:        0.838 sec

           *** ORCA-CIS/TD-DFT FINISHED WITHOUT ERROR ***

Maximum memory used throughout the entire CIS-calculation: 49.4 MB

-----------------------
CIS/TD-DFT TOTAL ENERGY
-----------------------

    E(SCF)  =   -153.661752817 Eh
    DE(CIS) =      0.294585605 Eh (Root  1)
    ----------------------------- ---------
    E(tot)  =   -153.367167212 Eh



-------------------------------------------------------------------------------
                          DFT DISPERSION CORRECTION                            
                                                                               
                              DFTD3 V3.1  Rev 1                                
                          USING Becke-Johnson damping                          
-------------------------------------------------------------------------------
The PBE0 functional is recognized
Active option DFTDOPT                   ...         4   

molecular C6(AA) [au] = 351.122975 


            DFT-D V3
 parameters
 s6 scaling factor         :     1.0000 
 a1 scaling factor         :     0.4145 
 s8 scaling factor         :     1.2177 
 a2 scaling factor         :     4.8593 
 ad hoc parameters k1-k3   :    16.0000     1.3333    -4.0000 

 Edisp/kcal,au: -1.512872053284  -0.002410914822 
 E6   /kcal   :  -0.992137644 
 E8   /kcal   :  -0.520734409 
 % E8         :  34.420254368 

-------------------------   ----------------
Dispersion correction           -0.002410915
-------------------------   ----------------


-------------------------   --------------------
FINAL SINGLE POINT ENERGY      -153.369578126794
-------------------------   --------------------



           ************************************************************
           *        Program running with 8 parallel MPI-processes     *
           *              working on a common directory               *
           ************************************************************
------------------------------------------------------------------------------
                         ORCA SCF GRADIENT CALCULATION
------------------------------------------------------------------------------


------------------------
TD-DFT GRADIENT XC SETUP
------------------------

Building densities                     ... done
Calculating rho(r) on the grid         ... done
Building xc-kernel on the grid         ... done
Building xc 3rd derivative on the grid      ... done
                *** TD-DFT GRADIENT CALCULATION INITIALIZED ***

-------------------
TD-DFT/TDA GRADIENT
-------------------

Reference wavefunction             ... RHF
State of interest                  ... 1
Basis dimension                    ... 117
DFT-XC contribution needed         ... YES
RI-approximation                   ... ON
CIS-vectors being read from        ... ox_es1_A_orca0042.cis

 => Number of Vectors found: 1
 => Orbital Window: 3...11 -> 12...116

Reading the CIS file                     ... done
Norm of the CI vector                    ... 1.000000000
Making the CIS (pseudo)densities         ... done
Making operators G(D) and Q(T)           ... done
Transforming the Fock operators          ... done
Making the frozen-core relaxed density   ... done
Constructing the G(H) operator           ... done
Transforming the G(H) operator           ... done
Calculating the CIS Lagrangian           ... done
Solving the Z-vector equations           ... done
Finalizing the relaxed density           ... done
Storing the relaxed density              ... done
Constructing the G(Z) operator           ... done
Transforming the G(Z) operator           ... done
Making the W-matrix                      ... done
Finalizing the W-matrix                  ... done
Transforming the W-matrix                ... done
Nuclear repulsion gradient               ... done
One-Electron gradient                    ... done
Dispersion correction                    ... done
Prescreening matrices                    ... done
COSX-gradient                            ... done
Coulomb gradient (RI)                    ... done
Exchange-Correlation gradient            ... done

                 ---------------------------
                 EXCITED STATE GRADIENT DONE
                 ---------------------------

------------------
CARTESIAN GRADIENT
------------------

   1   O   :    0.085743643   -0.147587789    0.000896817
   2   C   :    0.053787960    0.017098086   -0.041164029
   3   C   :   -0.120960709    0.133188445    0.045747015
   4   H   :   -0.014934078   -0.006365370    0.037142619
   5   H   :    0.004527336   -0.000420906   -0.000827132
   6   H   :    0.004314400   -0.003178005   -0.030587613
   7   H   :   -0.012441618    0.007218781   -0.011241345

Difference to translation invariance:
           :    0.0000369340   -0.0000467592   -0.0000336678

Difference to rotation invariance:
           :    0.0000796777    0.0000023848   -0.0000477427

Norm of the cartesian gradient     ...    0.2672833855
RMS gradient                       ...    0.0583260165
MAX gradient                       ...    0.1475877894

------------------------------------------------------------------------------
                  RELAXED CIS/TDA DENSITY POPULATION ANALYSIS
                                   IROOT 1
------------------------------------------------------------------------------
------------------------------------------------------------------------------
                           ORCA POPULATION ANALYSIS
------------------------------------------------------------------------------
Input electron density              ... ox_es1_A_orca0042.cisp
BaseName (.gbw .S,...)              ... ox_es1_A_orca0042

                    ********************************
                    * MULLIKEN POPULATION ANALYSIS *
                    ********************************

-----------------------
MULLIKEN ATOMIC CHARGES
-----------------------
   0 O :    0.217642
   1 C :   -0.103249
   2 C :   -0.674815
   3 H :    0.152527
   4 H :    0.146306
   5 H :    0.133249
   6 H :    0.128341
Sum of atomic charges:   -0.0000000

--------------------------------
MULLIKEN REDUCED ORBITAL CHARGES
--------------------------------
  0 O s       :     3.667894  s :     3.667894
      pz      :     1.129913  p :     4.072904
      px      :     1.500559
      py      :     1.442433
      dz2     :     0.003020  d :     0.039838
      dxz     :     0.003072
      dyz     :     0.007823
      dx2y2   :     0.012459
      dxy     :     0.013464
      f0      :     0.000136  f :     0.001721
      f+1     :    -0.000005
      f-1     :     0.000183
      f+2     :     0.000124
      f-2     :     0.000220
      f+3     :     0.000395
      f-3     :     0.000667
  1 C s       :     3.168148  s :     3.168148
      pz      :     1.030777  p :     2.827072
      px      :     0.965692
      py      :     0.830604
      dz2     :     0.006168  d :     0.096651
      dxz     :     0.026689
      dyz     :     0.013144
      dx2y2   :     0.030669
      dxy     :     0.019981
      f0      :     0.001118  f :     0.011377
      f+1     :     0.001489
      f-1     :     0.000624
      f+2     :     0.001198
      f-2     :     0.001151
      f+3     :     0.002555
      f-3     :     0.003242
  2 C s       :     3.308678  s :     3.308678
      pz      :     1.077542  p :     3.269688
      px      :     0.880778
      py      :     1.311367
      dz2     :     0.005671  d :     0.085800
      dxz     :     0.015524
      dyz     :     0.006137
      dx2y2   :     0.035173
      dxy     :     0.023295
      f0      :     0.001057  f :     0.010650
      f+1     :     0.001237
      f-1     :     0.000877
      f+2     :     0.000904
      f-2     :     0.001187
      f+3     :     0.002751
      f-3     :     0.002637
  3 H s       :     0.828183  s :     0.828183
      pz      :     0.010200  p :     0.019291
      px      :     0.006019
      py      :     0.003072
  4 H s       :     0.831062  s :     0.831062
      pz      :     0.011308  p :     0.022633
      px      :     0.007213
      py      :     0.004111
  5 H s       :     0.842374  s :     0.842374
      pz      :     0.010602  p :     0.024377
      px      :     0.005600
      py      :     0.008176
  6 H s       :     0.842918  s :     0.842918
      pz      :     0.010185  p :     0.028741
      px      :     0.006980
      py      :     0.011577


                     *******************************
                     * LOEWDIN POPULATION ANALYSIS *
                     *******************************

----------------------
LOEWDIN ATOMIC CHARGES
----------------------
   0 O :    0.441327
   1 C :   -0.384653
   2 C :   -0.636693
   3 H :    0.177608
   4 H :    0.145922
   5 H :    0.144037
   6 H :    0.112451

-------------------------------
LOEWDIN REDUCED ORBITAL CHARGES
-------------------------------
  0 O s       :     3.433619  s :     3.433619
      pz      :     1.065791  p :     4.008231
      px      :     1.454729
      py      :     1.487712
      dz2     :     0.015514  d :     0.109575
      dxz     :     0.009112
      dyz     :     0.016554
      dx2y2   :     0.037518
      dxy     :     0.030877
      f0      :     0.000706  f :     0.007247
      f+1     :     0.000147
      f-1     :     0.000909
      f+2     :     0.000243
      f-2     :     0.001017
      f+3     :     0.001267
      f-3     :     0.002959
  1 C s       :     2.835600  s :     2.835600
      pz      :     0.992755  p :     2.969902
      px      :     1.088518
      py      :     0.888628
      dz2     :     0.058466  d :     0.490458
      dxz     :     0.141331
      dyz     :     0.045272
      dx2y2   :     0.132209
      dxy     :     0.113180
      f0      :     0.009020  f :     0.088693
      f+1     :     0.006734
      f-1     :     0.007569
      f+2     :     0.008700
      f-2     :     0.004915
      f+3     :     0.024310
      f-3     :     0.027445
  2 C s       :     2.850066  s :     2.850066
      pz      :     1.034560  p :     3.161369
      px      :     1.043667
      py      :     1.083142
      dz2     :     0.062915  d :     0.539295
      dxz     :     0.118530
      dyz     :     0.032197
      dx2y2   :     0.147797
      dxy     :     0.177856
      f0      :     0.008454  f :     0.085963
      f+1     :     0.007080
      f-1     :     0.010026
      f+2     :     0.005575
      f-2     :     0.005109
      f+3     :     0.027355
      f-3     :     0.022365
  3 H s       :     0.771675  s :     0.771675
      pz      :     0.027824  p :     0.050717
      px      :     0.015103
      py      :     0.007789
  4 H s       :     0.789739  s :     0.789739
      pz      :     0.033468  p :     0.064338
      px      :     0.019755
      py      :     0.011115
  5 H s       :     0.790476  s :     0.790476
      pz      :     0.030775  p :     0.065487
      px      :     0.014141
      py      :     0.020571
  6 H s       :     0.806561  s :     0.806561
      pz      :     0.032893  p :     0.080988
      px      :     0.019293
      py      :     0.028801


                      *****************************
                      * MAYER POPULATION ANALYSIS *
                      *****************************

  NA   - Mulliken gross atomic population
  ZA   - Total nuclear charge
  QA   - Mulliken gross atomic charge
  VA   - Mayer's total valence
  BVA  - Mayer's bonded valence
  FA   - Mayer's free valence

  ATOM       NA         ZA         QA         VA         BVA        FA
  0 O      7.7824     8.0000     0.2176     1.6265     1.0443     0.5822
  1 C      6.1032     6.0000    -0.1032     3.8990     3.7118     0.1872
  2 C      6.6748     6.0000    -0.6748     4.1055     3.2761     0.8294
  3 H      0.8475     1.0000     0.1525     0.9981     0.9205     0.0776
  4 H      0.8537     1.0000     0.1463     1.0118     0.9467     0.0651
  5 H      0.8668     1.0000     0.1332     1.0442     0.9647     0.0795
  6 H      0.8717     1.0000     0.1283     1.0624     0.9821     0.0802

  Mayer bond orders larger than 0.100000
B(  0-O ,  1-C ) :   0.8350 B(  0-O ,  2-C ) :   0.1676 B(  1-C ,  2-C ) :   1.1611 
B(  1-C ,  3-H ) :   0.8532 B(  1-C ,  4-H ) :   0.8869 B(  2-C ,  5-H ) :   0.9348 
B(  2-C ,  6-H ) :   0.9544 


-------
TIMINGS
-------

Total TD-DFT gradient time         ...        5.154 sec

Fock matrix formation       ....       0.852 sec  ( 16.5%)
  Coulomb formation         ....       0.691 sec  ( 81.1% of F)
  RI-J                      ....       0.290 sec  ( 34.0% of F)
  Chain of spheres X        ....       0.400 sec  ( 47.0% of F)
  XC integration            ....       0.161 sec  ( 18.9% of F)
Z-vector equation           ....       1.395 sec  ( 27.1%)
One electron gradient       ....       0.033 sec  (  0.6%)
Prescreening matrices       ....       0.163 sec  (  3.2%)
RI-J Coulomb gradient       ....       0.250 sec  (  4.9%)
COSX gradient               ....       0.364 sec  (  7.1%)
XC gradient                 ....       1.779 sec  ( 34.5%)

Maximum memory used throughout the entire SCFGRAD-calculation: 130.3 MB

                            ***************************************
                            *     ORCA property calculations      *
                            ***************************************

                                    ---------------------
                                    Active property flags
                                    ---------------------
   (+) Dipole Moment


------------------------------------------------------------------------------
                       ORCA ELECTRIC PROPERTIES CALCULATION
------------------------------------------------------------------------------

Dipole Moment Calculation                       ... on
Quadrupole Moment Calculation                   ... off
Polarizability Calculation                      ... off
GBWName                                         ... ox_es1_A_orca0042.gbw
Electron density                                ... ox_es1_A_orca0042.scfp
The origin for moment calculation is the CENTER OF MASS  = ( 0.051194,  0.035023  0.035743)

-------------
DIPOLE MOMENT
-------------
                                X             Y             Z
Electronic contribution:      0.04794       1.70750       0.03589
Nuclear contribution   :      0.01038      -2.44692      -0.06072
                        -----------------------------------------
Total Dipole Moment    :      0.05832      -0.73942      -0.02483
                        -----------------------------------------
Magnitude (a.u.)       :      0.74213
Magnitude (Debye)      :      1.88635



--------------------
Rotational spectrum 
--------------------
 
Rotational constants in cm-1:     0.860410     0.765984     0.490980 
Rotational constants in MHz : 25794.436265 22963.635313 14719.205355 

 Dipole components along the rotational axes: 
x,y,z [a.u.] :     0.332460    -0.663431    -0.009447 
x,y,z [Debye]:     0.845046    -1.686307    -0.024012 

 

                        *** CIS RELAXED DENSITY ***

------------------------------------------------------------------------------
                       ORCA ELECTRIC PROPERTIES CALCULATION
------------------------------------------------------------------------------

Dipole Moment Calculation                       ... on
Quadrupole Moment Calculation                   ... off
Polarizability Calculation                      ... off
GBWName                                         ... ox_es1_A_orca0042.gbw
Electron density                                ... ox_es1_A_orca0042.cisp
The origin for moment calculation is the CENTER OF MASS  = ( 0.051194,  0.035023  0.035743)

-------------
DIPOLE MOMENT
-------------
                                X             Y             Z
Electronic contribution:     -0.79806       2.69829       0.04139
Nuclear contribution   :      0.01038      -2.44692      -0.06072
                        -----------------------------------------
Total Dipole Moment    :     -0.78768       0.25137      -0.01933
                        -----------------------------------------
Magnitude (a.u.)       :      0.82704
Magnitude (Debye)      :      2.10218



--------------------
Rotational spectrum 
--------------------
 
Rotational constants in cm-1:     0.860410     0.765984     0.490980 
Rotational constants in MHz : 25794.436265 22963.635313 14719.205355 

 Dipole components along the rotational axes: 
x,y,z [a.u.] :    -0.824511    -0.064415    -0.005839 
x,y,z [Debye]:    -2.095741    -0.163731    -0.014842 

 

Timings for individual modules:

Sum of individual times         ...        7.966 sec (=   0.133 min)
GTO integral calculation        ...        0.315 sec (=   0.005 min)   4.0 %
SCF iterations                  ...        1.214 sec (=   0.020 min)  15.2 %
CIS module                      ...        1.070 sec (=   0.018 min)  13.4 %
SCF Gradient evaluation         ...        5.367 sec (=   0.089 min)  67.4 %
                             ****ORCA TERMINATED NORMALLY****
TOTAL RUN TIME: 0 days 0 hours 0 minutes 8 seconds 344 msec
