
                                 *****************
                                 * O   R   C   A *
                                 *****************

                                            #,                                       
                                            ###                                      
                                            ####                                     
                                            #####                                    
                                            ######                                   
                                           ########,                                 
                                     ,,################,,,,,                         
                               ,,#################################,,                 
                          ,,##########################################,,             
                       ,#########################################, ''#####,          
                    ,#############################################,,   '####,        
                  ,##################################################,,,,####,       
                ,###########''''           ''''###############################       
              ,#####''   ,,,,##########,,,,          '''####'''          '####       
            ,##' ,,,,###########################,,,                        '##       
           ' ,,###''''                  '''############,,,                           
         ,,##''                                '''############,,,,        ,,,,,,###''
      ,#''                                            '''#######################'''  
     '                                                          ''''####''''         
             ,#######,   #######,   ,#######,      ##                                
            ,#'     '#,  ##    ##  ,#'     '#,    #''#        ######   ,####,        
            ##       ##  ##   ,#'  ##            #'  '#       #        #'  '#        
            ##       ##  #######   ##           ,######,      #####,   #    #        
            '#,     ,#'  ##    ##  '#,     ,#' ,#      #,         ##   #,  ,#        
             '#######'   ##     ##  '#######'  #'      '#     #####' # '####'        



                  #######################################################
                  #                        -***-                        #
                  #          Department of theory and spectroscopy      #
                  #    Directorship and core code : Frank Neese         #
                  #        Max Planck Institute fuer Kohlenforschung    #
                  #                Kaiser Wilhelm Platz 1               #
                  #                 D-45470 Muelheim/Ruhr               #
                  #                      Germany                        #
                  #                                                     #
                  #                  All rights reserved                #
                  #                        -***-                        #
                  #######################################################


                         Program Version 5.0.2 -  RELEASE  -


 With contributions from (in alphabetic order):
   Daniel Aravena         : Magnetic Suceptibility
   Michael Atanasov       : Ab Initio Ligand Field Theory (pilot matlab implementation)
   Alexander A. Auer      : GIAO ZORA, VPT2 properties, NMR spectrum
   Ute Becker             : Parallelization
   Giovanni Bistoni       : ED, misc. LED, open-shell LED, HFLD
   Martin Brehm           : Molecular dynamics
   Dmytro Bykov           : SCF Hessian
   Vijay G. Chilkuri      : MRCI spin determinant printing, contributions to CSF-ICE
   Dipayan Datta          : RHF DLPNO-CCSD density
   Achintya Kumar Dutta   : EOM-CC, STEOM-CC
   Dmitry Ganyushin       : Spin-Orbit,Spin-Spin,Magnetic field MRCI
   Miquel Garcia          : C-PCM and meta-GGA Hessian, CC/C-PCM, Gaussian charge scheme
   Yang Guo               : DLPNO-NEVPT2, F12-NEVPT2, CIM, IAO-localization
   Andreas Hansen         : Spin unrestricted coupled pair/coupled cluster methods
   Benjamin Helmich-Paris : MC-RPA, TRAH-SCF, COSX integrals
   Lee Huntington         : MR-EOM, pCC
   Robert Izsak           : Overlap fitted RIJCOSX, COSX-SCS-MP3, EOM
   Marcus Kettner         : VPT2
   Christian Kollmar      : KDIIS, OOCD, Brueckner-CCSD(T), CCSD density, CASPT2, CASPT2-K
   Simone Kossmann        : Meta GGA functionals, TD-DFT gradient, OOMP2, MP2 Hessian
   Martin Krupicka        : Initial AUTO-CI
   Lucas Lang             : DCDCAS
   Marvin Lechner         : AUTO-CI (C++ implementation), FIC-MRCC
   Dagmar Lenk            : GEPOL surface, SMD
   Dimitrios Liakos       : Extrapolation schemes; Compound Job, initial MDCI parallelization
   Dimitrios Manganas     : Further ROCIS development; embedding schemes
   Dimitrios Pantazis     : SARC Basis sets
   Anastasios Papadopoulos: AUTO-CI, single reference methods and gradients
   Taras Petrenko         : DFT Hessian,TD-DFT gradient, ASA, ECA, R-Raman, ABS, FL, XAS/XES, NRVS
   Peter Pinski           : DLPNO-MP2, DLPNO-MP2 Gradient
   Christoph Reimann      : Effective Core Potentials
   Marius Retegan         : Local ZFS, SOC
   Christoph Riplinger    : Optimizer, TS searches, QM/MM, DLPNO-CCSD(T), (RO)-DLPNO pert. Triples
   Tobias Risthaus        : Range-separated hybrids, TD-DFT gradient, RPA, STAB
   Michael Roemelt        : Original ROCIS implementation
   Masaaki Saitow         : Open-shell DLPNO-CCSD energy and density
   Barbara Sandhoefer     : DKH picture change effects
   Avijit Sen             : IP-ROCIS
   Kantharuban Sivalingam : CASSCF convergence, NEVPT2, FIC-MRCI
   Bernardo de Souza      : ESD, SOC TD-DFT
   Georgi Stoychev        : AutoAux, RI-MP2 NMR, DLPNO-MP2 response
   Willem Van den Heuvel  : Paramagnetic NMR
   Boris Wezisla          : Elementary symmetry handling
   Frank Wennmohs         : Technical directorship


 We gratefully acknowledge several colleagues who have allowed us to
 interface, adapt or use parts of their codes:
   Stefan Grimme, W. Hujo, H. Kruse, P. Pracht,  : VdW corrections, initial TS optimization,
                  C. Bannwarth, S. Ehlert          DFT functionals, gCP, sTDA/sTD-DF
   Ed Valeev, F. Pavosevic, A. Kumar             : LibInt (2-el integral package), F12 methods
   Garnet Chan, S. Sharma, J. Yang, R. Olivares  : DMRG
   Ulf Ekstrom                                   : XCFun DFT Library
   Mihaly Kallay                                 : mrcc  (arbitrary order and MRCC methods)
   Jiri Pittner, Ondrej Demel                    : Mk-CCSD
   Frank Weinhold                                : gennbo (NPA and NBO analysis)
   Christopher J. Cramer and Donald G. Truhlar   : smd solvation model
   Lars Goerigk                                  : TD-DFT with DH, B97 family of functionals
   V. Asgeirsson, H. Jonsson                     : NEB implementation
   FAccTs GmbH                                   : IRC, NEB, NEB-TS, DLPNO-Multilevel, CI-OPT
                                                   MM, QMMM, 2- and 3-layer-ONIOM, Crystal-QMMM,
                                                   LR-CPCM, SF, NACMEs, symmetry and pop. for TD-DFT,
                                                   nearIR, NL-DFT gradient (VV10), updates on ESD,
                                                   ML-optimized integration grids
   S Lehtola, MJT Oliveira, MAL Marques          : LibXC Library
   Liviu Ungur et al                             : ANISO software


 Your calculation uses the libint2 library for the computation of 2-el integrals
 For citations please refer to: http://libint.valeyev.net

 Your ORCA version has been built with support for libXC version: 5.1.0
 For citations please refer to: https://tddft.org/programs/libxc/

 This ORCA versions uses:
   CBLAS   interface :  Fast vector & matrix operations
   LAPACKE interface :  Fast linear algebra routines
   SCALAPACK package :  Parallel linear algebra routines
   Shared memory     :  Shared parallel matrices
   BLAS/LAPACK       :  OpenBLAS 0.3.15  USE64BITINT DYNAMIC_ARCH NO_AFFINITY SkylakeX SINGLE_THREADED
        Core in use  :  SkylakeX
   Copyright (c) 2011-2014, The OpenBLAS Project


Your calculation utilizes the atom-pairwise dispersion correction
with the Becke-Johnson damping scheme (D3BJ)
Cite in your paper:
S.Grimme, S.Ehrlich, L.Goerigk, J Comput Chem, (2011), 32, 1456–1465 
S.Grimme, J.Antony, S.Ehrlich and H.Krieg, J.Chem.Phys., 132, (2010), 154104 
   

================================================================================

----- Orbital basis set information -----
Your calculation utilizes the basis: def2-TZVP
   F. Weigend and R. Ahlrichs, Phys. Chem. Chem. Phys. 7, 3297 (2005).

----- AuxJ basis set information -----
Your calculation utilizes the auxiliary basis: def2/J
   F. Weigend, Phys. Chem. Chem. Phys. 8, 1057 (2006).

================================================================================
                                        WARNINGS
                       Please study these warnings very carefully!
================================================================================

INFO   : Checking CIS options ...

WARNING: CIS/ROCIS methods need fully converged wavefunctions
  ===> : Setting SCFConvForced true
         You can overwrite this default with %scf ConvForced false 


INFO   : the flag for use of the SHARK integral package has been found!

================================================================================
                                       INPUT FILE
================================================================================
NAME = ox_es1_A_orca0025.inp
|  1> ! engrad PBE0 D3BJ def2-TZVP  
|  2> %pal nprocs 8 end
|  3> %maxcore 3000
|  4> 
|  5> %tddft
|  6>   nroots 1
|  7>   tda true
|  8>   Iroot 1
|  9>   end 
| 10> *xyz 0 1 
| 11> O   -0.09024405503322595 0.6855471881058419 0.0024043573330691003
| 12> C   -0.7159034649139259 -0.49223632125522043 0.031929622938868696
| 13> C   0.645813536886552 -0.4503244799323658 -0.06055080998812284
| 14> H   -1.2964147353901079 -0.6659008764341793 0.8769555517358024
| 15> H   -1.2830505472114913 -0.6179562695392781 -0.9488208134761574
| 16> H   1.305607425603257 -0.7247562027328809 -0.8934860111042359
| 17> H   1.335901301032895 -0.7918530350063645 0.8801314072264761
| 18> *
| 19> 
| 20>                          ****END OF INPUT****
================================================================================

                     *******************************
                     * Energy+Gradient Calculation *
                     *******************************

---------------------------------
CARTESIAN COORDINATES (ANGSTROEM)
---------------------------------
  O     -0.090244    0.685547    0.002404
  C     -0.715903   -0.492236    0.031930
  C      0.645814   -0.450324   -0.060551
  H     -1.296415   -0.665901    0.876956
  H     -1.283051   -0.617956   -0.948821
  H      1.305607   -0.724756   -0.893486
  H      1.335901   -0.791853    0.880131

----------------------------
CARTESIAN COORDINATES (A.U.)
----------------------------
  NO LB      ZA    FRAG     MASS         X           Y           Z
   0 O     8.0000    0    15.999   -0.170537    1.295496    0.004544
   1 C     6.0000    0    12.011   -1.352861   -0.930192    0.060338
   2 C     6.0000    0    12.011    1.220411   -0.850990   -0.114424
   3 H     1.0000    0     1.008   -2.449869   -1.258370    1.657206
   4 H     1.0000    0     1.008   -2.424614   -1.167768   -1.793011
   5 H     1.0000    0     1.008    2.467240   -1.369591   -1.688444
   6 H     1.0000    0     1.008    2.524488   -1.496385    1.663207

--------------------------------
INTERNAL COORDINATES (ANGSTROEM)
--------------------------------
 O      0   0   0     0.000000000000     0.00000000     0.00000000
 C      1   0   0     1.333977298684     0.00000000     0.00000000
 C      1   2   0     1.354971799694    61.03128685     0.00000000
 H      2   1   3     1.039818028895   115.29569742   121.04914970
 H      2   1   3     1.139882773308   108.16134510   249.67030405
 H      3   1   2     1.097461523392   124.85328512   119.61394150
 H      3   1   2     1.215625727738   120.52705744   250.86057069

---------------------------
INTERNAL COORDINATES (A.U.)
---------------------------
 O      0   0   0     0.000000000000     0.00000000     0.00000000
 C      1   0   0     2.520851763381     0.00000000     0.00000000
 C      1   2   0     2.560525620609    61.03128685     0.00000000
 H      2   1   3     1.964971303725   115.29569742   121.04914970
 H      2   1   3     2.154066266326   108.16134510   249.67030405
 H      3   1   2     2.073901721727   124.85328512   119.61394150
 H      3   1   2     2.297199706774   120.52705744   250.86057069

---------------------
BASIS SET INFORMATION
---------------------
There are 3 groups of distinct atoms

 Group   1 Type O   : 11s6p2d1f contracted to 5s3p2d1f pattern {62111/411/11/1}
 Group   2 Type C   : 11s6p2d1f contracted to 5s3p2d1f pattern {62111/411/11/1}
 Group   3 Type H   : 5s1p contracted to 3s1p pattern {311/1}

Atom   0O    basis set group =>   1
Atom   1C    basis set group =>   2
Atom   2C    basis set group =>   2
Atom   3H    basis set group =>   3
Atom   4H    basis set group =>   3
Atom   5H    basis set group =>   3
Atom   6H    basis set group =>   3
---------------------------------
AUXILIARY/J BASIS SET INFORMATION
---------------------------------
There are 3 groups of distinct atoms

 Group   1 Type O   : 12s5p4d2f1g contracted to 6s4p3d1f1g pattern {711111/2111/211/2/1}
 Group   2 Type C   : 12s5p4d2f1g contracted to 6s4p3d1f1g pattern {711111/2111/211/2/1}
 Group   3 Type H   : 5s2p1d contracted to 3s1p1d pattern {311/2/1}

Atom   0O    basis set group =>   1
Atom   1C    basis set group =>   2
Atom   2C    basis set group =>   2
Atom   3H    basis set group =>   3
Atom   4H    basis set group =>   3
Atom   5H    basis set group =>   3
Atom   6H    basis set group =>   3

Checking for AutoStart:
The File: ox_es1_A_orca0025.gbw exists
Trying to determine its content:
     ... Fine, the file contains calculation information
     ... Fine, the calculation information was read
     ... Fine, the file contains a basis set
     ... Fine, the basis set was read
     ... Fine, the file contains a geometry
     ... Fine, the geometry was read
     ... Fine, the file contains a set of orbitals
     ... Fine, the orbitals can be read
     => possible old guess file was deleted
     => GBW file was renamed to GES file
     => GES file is set as startup file
     => Guess is set to MORead
     ... now leaving AutoStart



           ************************************************************
           *        Program running with 8 parallel MPI-processes     *
           *              working on a common directory               *
           ************************************************************
------------------------------------------------------------------------------
                           ORCA GTO INTEGRAL CALCULATION
                           -- RI-GTO INTEGRALS CHOSEN --
------------------------------------------------------------------------------
------------------------------------------------------------------------------
                   ___                                                        
                  /   \      - P O W E R E D   B Y -                         
                 /     \                                                     
                 |  |  |   _    _      __       _____    __    __             
                 |  |  |  | |  | |    /  \     |  _  \  |  |  /  |          
                  \  \/   | |  | |   /    \    | | | |  |  | /  /          
                 / \  \   | |__| |  /  /\  \   | |_| |  |  |/  /          
                |  |  |   |  __  | /  /__\  \  |    /   |      \           
                |  |  |   | |  | | |   __   |  |    \   |  |\   \          
                \     /   | |  | | |  |  |  |  | |\  \  |  | \   \       
                 \___/    |_|  |_| |__|  |__|  |_| \__\ |__|  \__/        
                                                                              
                      - O R C A' S   B I G   F R I E N D -                    
                                      &                                       
                       - I N T E G R A L  F E E D E R -                       
                                                                              
 v1 FN, 2020, v2 2021                                                         
------------------------------------------------------------------------------


Reading SHARK input file ox_es1_A_orca0025.SHARKINP.tmp ... ok
----------------------
SHARK INTEGRAL PACKAGE
----------------------

Number of atoms                             ...      7
Number of basis functions                   ...    117
Number of shells                            ...     49
Maximum angular momentum                    ...      3
Integral batch strategy                     ... SHARK/LIBINT Hybrid
RI-J (if used) integral strategy            ... SPLIT-RIJ (Revised 2003 algorithm where possible)
Printlevel                                  ...      1
Contraction scheme used                     ... SEGMENTED contraction
Coulomb Range Separation                    ... NOT USED
Exchange Range Separation                   ... NOT USED
Finite Nucleus Model                        ... NOT USED
Auxiliary Coulomb fitting basis             ... AVAILABLE
   # of basis functions in Aux-J            ...    191
   # of shells in Aux-J                     ...     65
   Maximum angular momentum in Aux-J        ...      4
Auxiliary J/K fitting basis                 ... NOT available
Auxiliary Correlation fitting basis         ... NOT available
Auxiliary 'external' fitting basis          ... NOT available
Integral threshold                          ...     2.500000e-11
Primitive cut-off                           ...     2.500000e-12
Primitive pair pre-selection threshold      ...     2.500000e-12

Calculating pre-screening integrals         ... done (  0.0 sec) Dimension = 49
Organizing shell pair data                  ... done (  0.0 sec)
Shell pair information
Total number of shell pairs                 ...      1225
Shell pairs after pre-screening             ...      1222
Total number of primitive shell pairs       ...      3648
Primitive shell pairs kept                  ...      3164
          la=0 lb=0:    375 shell pairs
          la=1 lb=0:    351 shell pairs
          la=1 lb=1:     91 shell pairs
          la=2 lb=0:    162 shell pairs
          la=2 lb=1:     78 shell pairs
          la=2 lb=2:     21 shell pairs
          la=3 lb=0:     81 shell pairs
          la=3 lb=1:     39 shell pairs
          la=3 lb=2:     18 shell pairs
          la=3 lb=3:      6 shell pairs

Calculating one electron integrals          ... done (  0.0 sec)
Calculating RI/J V-Matrix + Cholesky decomp.... done (  0.0 sec)
Calculating Nuclear repulsion               ... done (  0.0 sec) ENN=     78.256309526056 Eh

SHARK setup successfully completed in   0.1 seconds

Maximum memory used throughout the entire GTOINT-calculation: 14.9 MB


           ************************************************************
           *        Program running with 8 parallel MPI-processes     *
           *              working on a common directory               *
           ************************************************************
-------------------------------------------------------------------------------
                                 ORCA SCF
-------------------------------------------------------------------------------

------------
SCF SETTINGS
------------
Hamiltonian:
 Density Functional     Method          .... DFT(GTOs)
 Exchange Functional    Exchange        .... PBE
   PBE kappa parameter   XKappa         ....  0.804000
   PBE mue parameter    XMuePBE         ....  0.219520
 Correlation Functional Correlation     .... PBE
   PBE beta parameter  CBetaPBE         ....  0.066725
 LDA part of GGA corr.  LDAOpt          .... PW91-LDA
 Gradients option       PostSCFGGA      .... off
 Hybrid DFT is turned on
   Fraction HF Exchange ScalHFX         ....  0.250000
   Scaling of DF-GGA-X  ScalDFX         ....  0.750000
   Scaling of DF-GGA-C  ScalDFC         ....  1.000000
   Scaling of DF-LDA-C  ScalLDAC        ....  1.000000
   Perturbative correction              ....  0.000000
   Density functional embedding theory  .... OFF
   NL short-range parameter             ....  6.900000
 RI-approximation to the Coulomb term is turned on
   Number of AuxJ basis functions       .... 191
   RIJ-COSX (HFX calculated with COS-X)).... on


General Settings:
 Integral files         IntName         .... ox_es1_A_orca0025
 Hartree-Fock type      HFTyp           .... RHF
 Total Charge           Charge          ....    0
 Multiplicity           Mult            ....    1
 Number of Electrons    NEL             ....   24
 Basis Dimension        Dim             ....  117
 Nuclear Repulsion      ENuc            ....     78.2563095261 Eh

Convergence Acceleration:
 DIIS                   CNVDIIS         .... on
   Start iteration      DIISMaxIt       ....    12
   Startup error        DIISStart       ....  0.200000
   # of expansion vecs  DIISMaxEq       ....     5
   Bias factor          DIISBfac        ....   1.050
   Max. coefficient     DIISMaxC        ....  10.000
 Trust-Rad. Augm. Hess. CNVTRAH         .... auto
   Auto Start mean grad. ratio tolernc. ....  1.125000
   Auto Start start iteration           ....     1
   Auto Start num. interpolation iter.  ....    10
   Max. Number of Micro iterations      ....    16
   Max. Number of Macro iterations      .... Maxiter - #DIIS iter
   Number of Davidson start vectors     ....     2
   Converg. threshold I  (grad. norm)   ....   1.000e-05
   Converg. threshold II (energy diff.) ....   1.000e-08
   Grad. Scal. Fac. for Micro threshold ....   0.100
   Minimum threshold for Micro iter.    ....   0.010
   NR start threshold (gradient norm)   ....   0.001
   Initial trust radius                 ....   0.400
   Minimum AH scaling param. (alpha)    ....   1.000
   Maximum AH scaling param. (alpha)    .... 1000.000
   Orbital update algorithm             .... Taylor
   White noise on init. David. guess    .... on
   Maximum white noise                  ....   0.010
   Quad. conv. algorithm                .... NR
 SOSCF                  CNVSOSCF        .... on
   Start iteration      SOSCFMaxIt      ....   150
   Startup grad/error   SOSCFStart      ....  0.003300
 Level Shifting         CNVShift        .... on
   Level shift para.    LevelShift      ....    0.2500
   Turn off err/grad.   ShiftErr        ....    0.0010
 Zerner damping         CNVZerner       .... off
 Static damping         CNVDamp         .... on
   Fraction old density DampFac         ....    0.7000
   Max. Damping (<1)    DampMax         ....    0.9800
   Min. Damping (>=0)   DampMin         ....    0.0000
   Turn off err/grad.   DampErr         ....    0.1000
 Fernandez-Rico         CNVRico         .... off

SCF Procedure:
 Maximum # iterations   MaxIter         ....   125
 SCF integral mode      SCFMode         .... Direct
   Integral package                     .... SHARK and LIBINT hybrid scheme
 Reset frequency        DirectResetFreq ....    20
 Integral Threshold     Thresh          ....  2.500e-11 Eh
 Primitive CutOff       TCut            ....  2.500e-12 Eh

Convergence Tolerance:
 Convergence Check Mode ConvCheckMode   .... Total+1el-Energy
 Convergence forced     ConvForced      .... 1
 Energy Change          TolE            ....  1.000e-08 Eh
 1-El. energy change                    ....  1.000e-05 Eh
 Orbital Gradient       TolG            ....  1.000e-05
 Orbital Rotation angle TolX            ....  1.000e-05
 DIIS Error             TolErr          ....  5.000e-07


Diagonalization of the overlap matrix:
Smallest eigenvalue                        ... 1.931e-04
Time for diagonalization                   ...    0.001 sec
Threshold for overlap eigenvalues          ... 1.000e-08
Number of eigenvalues below threshold      ... 0
Time for construction of square roots      ...    0.001 sec
Total time needed                          ...    0.003 sec

---------------------
INITIAL GUESS: MOREAD
---------------------
Guess MOs are being read from file: ox_es1_A_orca0025.ges
Input Geometry matches current geometry (good)
Input basis set matches current basis set (good)
MOs were renormalized
MOs were reorthogonalized (Cholesky)
                      ------------------
                      INITIAL GUESS DONE (   0.0 sec)
                      ------------------
-------------------
DFT GRID GENERATION
-------------------

General Integration Accuracy     IntAcc      ... 4.388
Radial Grid Type                 RadialGrid  ... OptM3 with GC (2021)
Angular Grid (max. ang.)         AngularGrid ... 4 (Lebedev-302)
Angular grid pruning method      GridPruning ... 4 (adaptive)
Weight generation scheme         WeightScheme... Becke
Basis function cutoff            BFCut       ... 1.0000e-11
Integration weight cutoff        WCut        ... 1.0000e-14
Angular grids for H and He will be reduced by one unit
Partially contracted basis set               ... off
Rotationally invariant grid construction     ... off

Total number of grid points                  ...    31301
Total number of batches                      ...      492
Average number of points per batch           ...       63
Average number of grid points per atom       ...     4472
Time for grid setup =    0.117 sec

--------------------
COSX GRID GENERATION
--------------------

GRIDX 1
-------
General Integration Accuracy     IntAcc      ... 3.816
Radial Grid Type                 RadialGrid  ... OptM3 with GC (2021)
Angular Grid (max. ang.)         AngularGrid ... 1 (Lebedev-50)
Angular grid pruning method      GridPruning ... 4 (adaptive)
Weight generation scheme         WeightScheme... Becke
Basis function cutoff            BFCut       ... 1.0000e-11
Integration weight cutoff        WCut        ... 1.0000e-14
Angular grids for H and He will be reduced by one unit
Partially contracted basis set               ... on
Rotationally invariant grid construction     ... off

Total number of grid points                  ...     4036
Total number of batches                      ...       67
Average number of points per batch           ...       60
Average number of grid points per atom       ...      577
UseSFitting                                  ... on

GRIDX 2
-------
General Integration Accuracy     IntAcc      ... 4.020
Radial Grid Type                 RadialGrid  ... OptM3 with GC (2021)
Angular Grid (max. ang.)         AngularGrid ... 2 (Lebedev-110)
Angular grid pruning method      GridPruning ... 4 (adaptive)
Weight generation scheme         WeightScheme... Becke
Basis function cutoff            BFCut       ... 1.0000e-11
Integration weight cutoff        WCut        ... 1.0000e-14
Angular grids for H and He will be reduced by one unit
Partially contracted basis set               ... on
Rotationally invariant grid construction     ... off

Total number of grid points                  ...     8711
Total number of batches                      ...      140
Average number of points per batch           ...       62
Average number of grid points per atom       ...     1244
UseSFitting                                  ... on

GRIDX 3
-------
General Integration Accuracy     IntAcc      ... 4.338
Radial Grid Type                 RadialGrid  ... OptM3 with GC (2021)
Angular Grid (max. ang.)         AngularGrid ... 3 (Lebedev-194)
Angular grid pruning method      GridPruning ... 4 (adaptive)
Weight generation scheme         WeightScheme... Becke
Basis function cutoff            BFCut       ... 1.0000e-11
Integration weight cutoff        WCut        ... 1.0000e-14
Angular grids for H and He will be reduced by one unit
Partially contracted basis set               ... on
Rotationally invariant grid construction     ... off

Total number of grid points                  ...    19228
Total number of batches                      ...      305
Average number of points per batch           ...       63
Average number of grid points per atom       ...     2747
UseSFitting                                  ... on

Time for X-Grid setup             =    0.073 sec

--------------
SCF ITERATIONS
--------------
ITER       Energy         Delta-E        Max-DP      RMS-DP      [F,P]     Damp
               ***  Starting incremental Fock matrix formation  ***
                      *** Initiating the SOSCF procedure ***
                      *** Re-Reading the Fockian *** 
                      *** Removing any level shift *** 
ITER      Energy       Delta-E        Grad      Rot      Max-DP    RMS-DP
  0   -153.64272993 -153.6427299270  0.000000  0.000000  0.000001  0.000000
               *** Restarting incremental Fock matrix formation ***
                 **** Energy Check signals convergence ****
              ***Rediagonalizing the Fockian in SOSCF/NRSCF***

               *****************************************************
               *                     SUCCESS                       *
               *           SCF CONVERGED AFTER   1 CYCLES          *
               *****************************************************

Old exchange energy                            =     -5.015165169 Eh
New exchange energy                            =     -5.015143419 Eh
Exchange energy change after final integration =      0.000021750 Eh
Total energy after final integration           =   -153.642708177 Eh
Final COS-X integration done in                =     0.260 sec

----------------
TOTAL SCF ENERGY
----------------

Total Energy       :         -153.64270818 Eh           -4180.83064 eV

Components:
Nuclear Repulsion  :           78.25630953 Eh            2129.46244 eV
Electronic Energy  :         -231.89901770 Eh           -6310.29308 eV
One Electron Energy:         -362.87079757 Eh           -9874.21640 eV
Two Electron Energy:          130.97177987 Eh            3563.92332 eV
Max COSX asymmetry :            0.00000205 Eh               0.00006 eV

Virial components:
Potential Energy   :         -306.92777824 Eh           -8351.92945 eV
Kinetic Energy     :          153.28507007 Eh            4171.09881 eV
Virial Ratio       :            2.00233316


DFT components:
N(Alpha)           :       11.999999760934 electrons
N(Beta)            :       11.999999760934 electrons
N(Total)           :       23.999999521867 electrons
E(X)               :      -15.007746047646 Eh       
E(C)               :       -0.796785477385 Eh       
E(XC)              :      -15.804531525032 Eh       
DFET-embed. en.    :        0.000000000000 Eh       

---------------
SCF CONVERGENCE
---------------

  Last Energy change         ...   -9.0665e-12  Tolerance :   1.0000e-08
  Last MAX-Density change    ...    6.6613e-16  Tolerance :   1.0000e-07
  Last RMS-Density change    ...    1.6357e-17  Tolerance :   5.0000e-09
  Last Orbital Gradient      ...    1.1938e-07  Tolerance :   1.0000e-05
  Last Orbital Rotation      ...    1.9917e-07  Tolerance :   1.0000e-05

             **** THE GBW FILE WAS UPDATED (ox_es1_A_orca0025.gbw) ****
             **** DENSITY ox_es1_A_orca0025.scfp WAS UPDATED ****
             **** ENERGY FILE WAS UPDATED (ox_es1_A_orca0025.en.tmp) ****
             **** THE GBW FILE WAS UPDATED (ox_es1_A_orca0025.gbw) ****
             **** DENSITY ox_es1_A_orca0025.scfp WAS UPDATED ****
----------------
ORBITAL ENERGIES
----------------

  NO   OCC          E(Eh)            E(eV) 
   0   2.0000     -19.227951      -523.2192 
   1   2.0000     -10.281439      -279.7722 
   2   2.0000     -10.266213      -279.3579 
   3   2.0000      -1.174820       -31.9685 
   4   2.0000      -0.700001       -19.0480 
   5   2.0000      -0.661145       -17.9907 
   6   2.0000      -0.543289       -14.7836 
   7   2.0000      -0.531500       -14.4628 
   8   2.0000      -0.433651       -11.8002 
   9   2.0000      -0.370488       -10.0815 
  10   2.0000      -0.344391        -9.3713 
  11   2.0000      -0.288616        -7.8536 
  12   0.0000       0.061198         1.6653 
  13   0.0000       0.078329         2.1314 
  14   0.0000       0.091152         2.4804 
  15   0.0000       0.093725         2.5504 
  16   0.0000       0.126117         3.4318 
  17   0.0000       0.152005         4.1363 
  18   0.0000       0.191569         5.2128 
  19   0.0000       0.231157         6.2901 
  20   0.0000       0.270383         7.3575 
  21   0.0000       0.275894         7.5075 
  22   0.0000       0.284112         7.7311 
  23   0.0000       0.368737        10.0338 
  24   0.0000       0.377558        10.2739 
  25   0.0000       0.398654        10.8479 
  26   0.0000       0.407093        11.0776 
  27   0.0000       0.432109        11.7583 
  28   0.0000       0.442475        12.0404 
  29   0.0000       0.489589        13.3224 
  30   0.0000       0.507303        13.8044 
  31   0.0000       0.522178        14.2092 
  32   0.0000       0.538380        14.6501 
  33   0.0000       0.712127        19.3779 
  34   0.0000       0.719387        19.5755 
  35   0.0000       0.735318        20.0090 
  36   0.0000       0.830026        22.5862 
  37   0.0000       0.852196        23.1894 
  38   0.0000       0.874759        23.8034 
  39   0.0000       0.961645        26.1677 
  40   0.0000       1.036439        28.2029 
  41   0.0000       1.062893        28.9228 
  42   0.0000       1.092005        29.7150 
  43   0.0000       1.128464        30.7071 
  44   0.0000       1.200700        32.6727 
  45   0.0000       1.369222        37.2584 
  46   0.0000       1.449103        39.4321 
  47   0.0000       1.494628        40.6709 
  48   0.0000       1.524034        41.4711 
  49   0.0000       1.530860        41.6568 
  50   0.0000       1.579230        42.9730 
  51   0.0000       1.620139        44.0862 
  52   0.0000       1.638092        44.5748 
  53   0.0000       1.689972        45.9865 
  54   0.0000       1.743746        47.4497 
  55   0.0000       1.794069        48.8191 
  56   0.0000       1.807706        49.1902 
  57   0.0000       1.937965        52.7347 
  58   0.0000       1.963675        53.4343 
  59   0.0000       2.018481        54.9257 
  60   0.0000       2.060529        56.0698 
  61   0.0000       2.155724        58.6602 
  62   0.0000       2.176787        59.2334 
  63   0.0000       2.299398        62.5698 
  64   0.0000       2.337718        63.6125 
  65   0.0000       2.362815        64.2955 
  66   0.0000       2.424275        65.9679 
  67   0.0000       2.499938        68.0268 
  68   0.0000       2.545324        69.2618 
  69   0.0000       2.608152        70.9714 
  70   0.0000       2.679967        72.9256 
  71   0.0000       2.703519        73.5665 
  72   0.0000       2.714897        73.8761 
  73   0.0000       2.720348        74.0244 
  74   0.0000       2.769623        75.3653 
  75   0.0000       2.834063        77.1188 
  76   0.0000       2.869726        78.0892 
  77   0.0000       2.957393        80.4748 
  78   0.0000       3.020808        82.2004 
  79   0.0000       3.034593        82.5755 
  80   0.0000       3.053302        83.0846 
  81   0.0000       3.078028        83.7574 
  82   0.0000       3.127302        85.0982 
  83   0.0000       3.250700        88.4560 
  84   0.0000       3.365965        91.5926 
  85   0.0000       3.384557        92.0985 
  86   0.0000       3.438037        93.5537 
  87   0.0000       3.455187        94.0204 
  88   0.0000       3.535624        96.2092 
  89   0.0000       3.647181        99.2448 
  90   0.0000       3.704704       100.8101 
  91   0.0000       3.758249       102.2672 
  92   0.0000       3.944407       107.3328 
  93   0.0000       4.081767       111.0705 
  94   0.0000       4.132266       112.4447 
  95   0.0000       4.235343       115.2495 
  96   0.0000       4.267989       116.1379 
  97   0.0000       4.314683       117.4085 
  98   0.0000       4.449698       121.0824 
  99   0.0000       4.583667       124.7279 
 100   0.0000       4.802601       130.6854 
 101   0.0000       4.825777       131.3161 
 102   0.0000       5.356159       145.7485 
 103   0.0000       5.522154       150.2655 
 104   0.0000       5.831822       158.6919 
 105   0.0000       5.855271       159.3300 
 106   0.0000       5.920730       161.1113 
 107   0.0000       6.038072       164.3043 
 108   0.0000       6.191110       168.4687 
 109   0.0000       6.622857       180.2171 
 110   0.0000       6.684401       181.8918 
 111   0.0000       6.845862       186.2854 
 112   0.0000       6.999121       190.4558 
 113   0.0000       7.176763       195.2897 
 114   0.0000      22.333126       607.7152 
 115   0.0000      22.745414       618.9342 
 116   0.0000      43.916374      1195.0253 

                    ********************************
                    * MULLIKEN POPULATION ANALYSIS *
                    ********************************

-----------------------
MULLIKEN ATOMIC CHARGES
-----------------------
   0 O :   -0.296594
   1 C :   -0.058982
   2 C :   -0.064764
   3 H :    0.118773
   4 H :    0.094457
   5 H :    0.120050
   6 H :    0.087060
Sum of atomic charges:   -0.0000000

--------------------------------
MULLIKEN REDUCED ORBITAL CHARGES
--------------------------------
  0 O s       :     3.838250  s :     3.838250
      pz      :     1.792205  p :     4.403583
      px      :     1.321507
      py      :     1.289871
      dz2     :     0.006183  d :     0.051920
      dxz     :     0.003640
      dyz     :     0.009185
      dx2y2   :     0.015004
      dxy     :     0.017908
      f0      :     0.000366  f :     0.002842
      f+1     :     0.000228
      f-1     :     0.000525
      f+2     :     0.000138
      f-2     :     0.000287
      f+3     :     0.000451
      f-3     :     0.000848
  1 C s       :     3.183402  s :     3.183402
      pz      :     1.050580  p :     2.726873
      px      :     0.918912
      py      :     0.757381
      dz2     :     0.005703  d :     0.134668
      dxz     :     0.031224
      dyz     :     0.035876
      dx2y2   :     0.038131
      dxy     :     0.023734
      f0      :     0.002045  f :     0.014038
      f+1     :     0.001386
      f-1     :     0.000705
      f+2     :     0.001901
      f-2     :     0.001961
      f+3     :     0.002168
      f-3     :     0.003872
  2 C s       :     3.189038  s :     3.189038
      pz      :     1.042988  p :     2.734705
      px      :     0.912581
      py      :     0.779136
      dz2     :     0.003617  d :     0.127184
      dxz     :     0.032135
      dyz     :     0.032787
      dx2y2   :     0.034866
      dxy     :     0.023778
      f0      :     0.001645  f :     0.013837
      f+1     :     0.001258
      f-1     :     0.000789
      f+2     :     0.001731
      f-2     :     0.002309
      f+3     :     0.002431
      f-3     :     0.003674
  3 H s       :     0.858843  s :     0.858843
      pz      :     0.010582  p :     0.022384
      px      :     0.007541
      py      :     0.004261
  4 H s       :     0.886150  s :     0.886150
      pz      :     0.010422  p :     0.019392
      px      :     0.005614
      py      :     0.003356
  5 H s       :     0.859066  s :     0.859066
      pz      :     0.009238  p :     0.020884
      px      :     0.007975
      py      :     0.003671
  6 H s       :     0.896499  s :     0.896499
      pz      :     0.007810  p :     0.016441
      px      :     0.005776
      py      :     0.002856


                     *******************************
                     * LOEWDIN POPULATION ANALYSIS *
                     *******************************

----------------------
LOEWDIN ATOMIC CHARGES
----------------------
   0 O :    0.241458
   1 C :   -0.366162
   2 C :   -0.364138
   3 H :    0.108967
   4 H :    0.130181
   5 H :    0.119279
   6 H :    0.130415

-------------------------------
LOEWDIN REDUCED ORBITAL CHARGES
-------------------------------
  0 O s       :     3.299219  s :     3.299219
      pz      :     1.646340  p :     4.330477
      px      :     1.286647
      py      :     1.397490
      dz2     :     0.012637  d :     0.118980
      dxz     :     0.011128
      dyz     :     0.022034
      dx2y2   :     0.044044
      dxy     :     0.029137
      f0      :     0.001027  f :     0.009866
      f+1     :     0.000323
      f-1     :     0.001136
      f+2     :     0.000284
      f-2     :     0.001362
      f+3     :     0.001576
      f-3     :     0.004159
  1 C s       :     2.786244  s :     2.786244
      pz      :     1.023346  p :     2.904318
      px      :     1.047281
      py      :     0.833691
      dz2     :     0.056780  d :     0.573928
      dxz     :     0.168370
      dyz     :     0.100737
      dx2y2   :     0.131123
      dxy     :     0.116918
      f0      :     0.014547  f :     0.101672
      f+1     :     0.007561
      f-1     :     0.007045
      f+2     :     0.013365
      f-2     :     0.009099
      f+3     :     0.017345
      f-3     :     0.032709
  2 C s       :     2.794178  s :     2.794178
      pz      :     1.027113  p :     2.917413
      px      :     1.048558
      py      :     0.841742
      dz2     :     0.044892  d :     0.560526
      dxz     :     0.172029
      dyz     :     0.102122
      dx2y2   :     0.120834
      dxy     :     0.120649
      f0      :     0.010754  f :     0.092021
      f+1     :     0.006740
      f-1     :     0.006380
      f+2     :     0.010716
      f-2     :     0.010219
      f+3     :     0.017821
      f-3     :     0.029391
  3 H s       :     0.823745  s :     0.823745
      pz      :     0.033276  p :     0.067288
      px      :     0.020766
      py      :     0.013246
  4 H s       :     0.818676  s :     0.818676
      pz      :     0.028488  p :     0.051143
      px      :     0.013669
      py      :     0.008986
  5 H s       :     0.820403  s :     0.820403
      pz      :     0.029072  p :     0.060318
      px      :     0.020107
      py      :     0.011139
  6 H s       :     0.826604  s :     0.826604
      pz      :     0.022314  p :     0.042981
      px      :     0.013077
      py      :     0.007591


                      *****************************
                      * MAYER POPULATION ANALYSIS *
                      *****************************

  NA   - Mulliken gross atomic population
  ZA   - Total nuclear charge
  QA   - Mulliken gross atomic charge
  VA   - Mayer's total valence
  BVA  - Mayer's bonded valence
  FA   - Mayer's free valence

  ATOM       NA         ZA         QA         VA         BVA        FA
  0 O      8.2966     8.0000    -0.2966     2.0273     2.0273     0.0000
  1 C      6.0590     6.0000    -0.0590     4.0170     4.0170    -0.0000
  2 C      6.0648     6.0000    -0.0648     3.9904     3.9904    -0.0000
  3 H      0.8812     1.0000     0.1188     0.9602     0.9602    -0.0000
  4 H      0.9055     1.0000     0.0945     0.9658     0.9658     0.0000
  5 H      0.8800     1.0000     0.1200     0.9519     0.9519     0.0000
  6 H      0.9129     1.0000     0.0871     0.9601     0.9601    -0.0000

  Mayer bond orders larger than 0.100000
B(  0-O ,  1-C ) :   0.9815 B(  0-O ,  2-C ) :   1.0018 B(  1-C ,  2-C ) :   1.0992 
B(  1-C ,  3-H ) :   0.9561 B(  1-C ,  4-H ) :   0.9540 B(  2-C ,  5-H ) :   0.9404 
B(  2-C ,  6-H ) :   0.9331 

-------
TIMINGS
-------

Total SCF time: 0 days 0 hours 0 min 1 sec 

Total time                  ....       1.005 sec
Sum of individual times     ....       0.906 sec  ( 90.2%)

Fock matrix formation       ....       0.699 sec  ( 69.6%)
  Split-RI-J                ....       0.111 sec  ( 15.9% of F)
  Chain of spheres X        ....       0.517 sec  ( 73.9% of F)
  XC integration            ....       0.062 sec  (  8.9% of F)
    Basis function eval.    ....       0.018 sec  ( 28.1% of XC)
    Density eval.           ....       0.014 sec  ( 22.0% of XC)
    XC-Functional eval.     ....       0.004 sec  (  5.8% of XC)
    XC-Potential eval.      ....       0.019 sec  ( 30.4% of XC)
Diagonalization             ....       0.002 sec  (  0.2%)
Density matrix formation    ....       0.000 sec  (  0.0%)
Population analysis         ....       0.003 sec  (  0.3%)
Initial guess               ....       0.008 sec  (  0.8%)
Orbital Transformation      ....       0.000 sec  (  0.0%)
Orbital Orthonormalization  ....       0.001 sec  (  0.1%)
DIIS solution               ....       0.001 sec  (  0.1%)
SOSCF solution              ....       0.002 sec  (  0.2%)
Grid generation             ....       0.190 sec  ( 18.9%)

Maximum memory used throughout the entire SCF-calculation: 61.1 MB


           ************************************************************
           *        Program running with 8 parallel MPI-processes     *
           *              working on a common directory               *
           ************************************************************
------------------------------------------------------------------------------
                        ORCA TD-DFT/TDA CALCULATION
------------------------------------------------------------------------------

Input orbitals are from        ... ox_es1_A_orca0025.gbw
CI-vector output               ... ox_es1_A_orca0025.cis
Tamm-Dancoff approximation     ... operative
CIS-Integral strategy          ... AO-integrals
Integral handling              ... AO integral Direct
Max. core memory used          ... 3000 MB
Reference state                ... RHF
Generation of triplets         ... off
Follow IRoot                   ... off
Number of operators            ... 1
Orbital ranges used for CIS calculation:
 Operator 0:  Orbitals   3... 11  to  12...116
XAS localization array:
 Operator 0:  Orbitals  -1... -1

-------------------
XC-INTEGRATION GRID
-------------------

General Integration Accuracy     IntAcc      ... 3.467
Radial Grid Type                 RadialGrid  ... OptM3 with GC (2021)
Angular Grid (max. ang.)         AngularGrid ... 1 (Lebedev-50)
Angular grid pruning method      GridPruning ... 4 (adaptive)
Weight generation scheme         WeightScheme... Becke
Basis function cutoff            BFCut       ... 1.0000e-11
Integration weight cutoff        WCut        ... 1.0000e-14
Angular grids for H and He will be reduced by one unit
Partially contracted basis set               ... off
Rotationally invariant grid construction     ... off

Total number of grid points                  ...     4535
Total number of batches                      ...       75
Average number of points per batch           ...       60
Average number of grid points per atom       ...      648

---------------------
COSX-INTEGRATION GRID
---------------------

General Integration Accuracy     IntAcc      ... 3.067
Radial Grid Type                 RadialGrid  ... OptM3 with GC (2021)
Angular Grid (max. ang.)         AngularGrid ... 1 (Lebedev-50)
Angular grid pruning method      GridPruning ... 4 (adaptive)
Weight generation scheme         WeightScheme... Becke
Basis function cutoff            BFCut       ... 1.0000e-11
Integration weight cutoff        WCut        ... 1.0000e-14
Angular grids for H and He will be reduced by one unit
Partially contracted basis set               ... on
Rotationally invariant grid construction     ... off

Total number of grid points                  ...     2085
Total number of batches                      ...       38
Average number of points per batch           ...       54
Average number of grid points per atom       ...      298

---------------
TD-DFT XC SETUP
---------------

DFT calculation                         ... on
Name of the grid file                   ... ox_es1_A_orca0025.grid_cis.tmp
Exchange functional (TD-DFT)            ... PBE
   PBE kappa parameter  XKappa (TD-DFT) ...  0.804000
   PBE mue parameter   XMuePBE (TD-DFT) ...  0.219520
Correlation functional (TD-DFT)         ... PBE
   PBE beta parameter CBetaPBE (TD-DFT) ...  0.066725
 LDA part of GGA corr.  LDAOpt (TD-DFT) ... PW91-LDA
Hybrid DFT                              ... on
   Exchange mixing (TD-DFT)             ...  0.250
   GGA exch. scaling (TD-DFT)           ...  0.750
   GGA corr. scaling (TD-DFT)           ...  1.000

Building densities             ... done
Calculating rho(r) on the grid ... done
Building xc-kernel on the grid ... done
                    *** TD-DFT CALCULATION INITIALIZED ***

------------------------
DAVIDSON-DIAGONALIZATION
------------------------

Dimension of the eigenvalue problem            ...    945
Number of roots to be determined               ...      1
Maximum size of the expansion space            ...     10
Maximum number of iterations                   ...    100
Convergence tolerance for the residual         ...    2.500e-07
Convergence tolerance for the energies         ...    2.500e-07
Orthogonality tolerance                        ...    1.000e-14
Level Shift                                    ...    0.000e+00
Constructing the preconditioner                ... o.k.
Building the initial guess                     ... o.k.
Number of trial vectors determined             ...     10


                       ****Iteration    0****

   Memory handling for direct AO based CIS:
   Memory per vector needed      ...     1 MB
   Memory needed                 ...     1 MB
   Memory available              ...  3000 MB
   Number of vectors per batch   ...  3000
   Number of batches             ...     1
   Time for densities:            0.000
   Time for RI-J (Direct):        0.015
   Time for K (COSX):             0.055
   Time for XC-Integration:       0.016
   Time for Sigma-Completion:     0.000
   Size of expansion space: 3
   Lowest Energy          :     0.302860541008
   Maximum Energy change  :     0.302860541008 (vector 0)
   Maximum residual norm  :     0.001304031155

                       ****Iteration    1****
   Time for densities:            0.000
   Time for RI-J (Direct):        0.012
   Time for K (COSX):             0.049
   Time for XC-Integration:       0.007
   Time for Sigma-Completion:     0.000
   Size of expansion space: 4
   Lowest Energy          :     0.301017401250
   Maximum Energy change  :     0.001843139758 (vector 0)
   Maximum residual norm  :     0.000128724710

                       ****Iteration    2****
   Time for densities:            0.000
   Time for RI-J (Direct):        0.012
   Time for K (COSX):             0.049
   Time for XC-Integration:       0.007
   Time for Sigma-Completion:     0.000
   Size of expansion space: 5
   Lowest Energy          :     0.300850889080
   Maximum Energy change  :     0.000166512170 (vector 0)
   Maximum residual norm  :     0.000016571732

                       ****Iteration    3****
   Time for densities:            0.000
   Time for RI-J (Direct):        0.012
   Time for K (COSX):             0.049
   Time for XC-Integration:       0.007
   Time for Sigma-Completion:     0.000
   Size of expansion space: 6
   Lowest Energy          :     0.300817598139
   Maximum Energy change  :     0.000033290941 (vector 0)
   Maximum residual norm  :     0.000004442250

                       ****Iteration    4****
   Time for densities:            0.000
   Time for RI-J (Direct):        0.012
   Time for K (COSX):             0.049
   Time for XC-Integration:       0.007
   Time for Sigma-Completion:     0.000
   Size of expansion space: 7
   Lowest Energy          :     0.300809214980
   Maximum Energy change  :     0.000008383159 (vector 0)
   Maximum residual norm  :     0.000000862246

                       ****Iteration    5****
   Time for densities:            0.000
   Time for RI-J (Direct):        0.012
   Time for K (COSX):             0.049
   Time for XC-Integration:       0.007
   Time for Sigma-Completion:     0.000
   Size of expansion space: 8
   Lowest Energy          :     0.300807797144
   Maximum Energy change  :     0.000001417835 (vector 0)
   Maximum residual norm  :     0.000000170064

      *** CONVERGENCE OF RESIDUAL NORM REACHED ***

Storing the converged CI vectors               ... ox_es1_A_orca0025.cis1

                 *** DAVIDSON DONE ***

Total time for solving the CIS problem:     0.431sec

------------------------------------
TD-DFT/TDA EXCITED STATES (SINGLETS)
------------------------------------

the weight of the individual excitations are printed if larger than 1.0e-02

STATE  1:  E=   0.300808 au      8.185 eV    66019.7 cm**-1 <S**2> =   0.000000
    11a ->  12a  :     0.968222 (c=  0.98398257)
    11a ->  13a  :     0.022734 (c=  0.15077685)


-----------------------------
TD-DFT/TDA-EXCITATION SPECTRA
-----------------------------

Center of mass = ( -0.0954, -0.1362, -0.0168)
Calculating the Dipole integrals                  ... done
Transforming integrals                            ... done
Calculating the Linear Momentum integrals         ... done
Transforming integrals                            ... done
Calculating angular momentum integrals            ... done
Transforming integrals                            ... done

-----------------------------------------------------------------------------
         ABSORPTION SPECTRUM VIA TRANSITION ELECTRIC DIPOLE MOMENTS
-----------------------------------------------------------------------------
State   Energy    Wavelength  fosc         T2        TX        TY        TZ  
        (cm-1)      (nm)                 (au**2)    (au)      (au)      (au) 
-----------------------------------------------------------------------------
   1   66019.7    151.5   0.124450899   0.62058  -0.14019   0.07032  -0.77200

-----------------------------------------------------------------------------
         ABSORPTION SPECTRUM VIA TRANSITION VELOCITY DIPOLE MOMENTS
-----------------------------------------------------------------------------
State   Energy    Wavelength   fosc        P2         PX        PY        PZ  
        (cm-1)      (nm)                 (au**2)     (au)      (au)      (au) 
-----------------------------------------------------------------------------
   1   66019.7    151.5   0.080243125   0.03621   0.03401  -0.00930   0.18699

-------------------------------------------------------------------
                             CD SPECTRUM
-------------------------------------------------------------------
State  Energy     Wavelength     R         MX        MY        MZ   
       (cm-1)       (nm)     (1e40*cgs)   (au)      (au)      (au)  
-------------------------------------------------------------------
   1   66019.7    151.5    -27.34006   0.23113   0.05889   0.03851

-------------------------------------------------------------------
         CD SPECTRUM VIA TRANSITION VELOCITY DIPOLE MOMENTS        
-------------------------------------------------------------------
State  Energy     Wavelength     R         MX        MY        MZ   
       (cm-1)       (nm)     (1e40*cgs)   (au)      (au)      (au)  
-------------------------------------------------------------------
   1   66019.7    151.5     22.74583   0.23113   0.05889   0.03851

Total run time:        0.711 sec

           *** ORCA-CIS/TD-DFT FINISHED WITHOUT ERROR ***

Maximum memory used throughout the entire CIS-calculation: 49.4 MB

-----------------------
CIS/TD-DFT TOTAL ENERGY
-----------------------

    E(SCF)  =   -153.642708177 Eh
    DE(CIS) =      0.300807797 Eh (Root  1)
    ----------------------------- ---------
    E(tot)  =   -153.341900380 Eh



-------------------------------------------------------------------------------
                          DFT DISPERSION CORRECTION                            
                                                                               
                              DFTD3 V3.1  Rev 1                                
                          USING Becke-Johnson damping                          
-------------------------------------------------------------------------------
The PBE0 functional is recognized
Active option DFTDOPT                   ...         4   

molecular C6(AA) [au] = 351.308943 


            DFT-D V3
 parameters
 s6 scaling factor         :     1.0000 
 a1 scaling factor         :     0.4145 
 s8 scaling factor         :     1.2177 
 a2 scaling factor         :     4.8593 
 ad hoc parameters k1-k3   :    16.0000     1.3333    -4.0000 

 Edisp/kcal,au: -1.509436999156  -0.002405440715 
 E6   /kcal   :  -0.989765360 
 E8   /kcal   :  -0.519671639 
 % E8         :  34.428176828 

-------------------------   ----------------
Dispersion correction           -0.002405441
-------------------------   ----------------


-------------------------   --------------------
FINAL SINGLE POINT ENERGY      -153.344305820374
-------------------------   --------------------



           ************************************************************
           *        Program running with 8 parallel MPI-processes     *
           *              working on a common directory               *
           ************************************************************
------------------------------------------------------------------------------
                         ORCA SCF GRADIENT CALCULATION
------------------------------------------------------------------------------


------------------------
TD-DFT GRADIENT XC SETUP
------------------------

Building densities                     ... done
Calculating rho(r) on the grid         ... done
Building xc-kernel on the grid         ... done
Building xc 3rd derivative on the grid      ... done
                *** TD-DFT GRADIENT CALCULATION INITIALIZED ***

-------------------
TD-DFT/TDA GRADIENT
-------------------

Reference wavefunction             ... RHF
State of interest                  ... 1
Basis dimension                    ... 117
DFT-XC contribution needed         ... YES
RI-approximation                   ... ON
CIS-vectors being read from        ... ox_es1_A_orca0025.cis

 => Number of Vectors found: 1
 => Orbital Window: 3...11 -> 12...116

Reading the CIS file                     ... done
Norm of the CI vector                    ... 1.000000000
Making the CIS (pseudo)densities         ... done
Making operators G(D) and Q(T)           ... done
Transforming the Fock operators          ... done
Making the frozen-core relaxed density   ... done
Constructing the G(H) operator           ... done
Transforming the G(H) operator           ... done
Calculating the CIS Lagrangian           ... done
Solving the Z-vector equations           ... done
Finalizing the relaxed density           ... done
Storing the relaxed density              ... done
Constructing the G(Z) operator           ... done
Transforming the G(Z) operator           ... done
Making the W-matrix                      ... done
Finalizing the W-matrix                  ... done
Transforming the W-matrix                ... done
Nuclear repulsion gradient               ... done
One-Electron gradient                    ... done
Dispersion correction                    ... done
Prescreening matrices                    ... done
COSX-gradient                            ... done
Coulomb gradient (RI)                    ... done
Exchange-Correlation gradient            ... done

                 ---------------------------
                 EXCITED STATE GRADIENT DONE
                 ---------------------------

------------------
CARTESIAN GRADIENT
------------------

   1   O   :   -0.017310881   -0.087016012   -0.003302913
   2   C   :    0.091646647    0.045936066    0.059010172
   3   C   :   -0.113387589    0.053421850   -0.035506034
   4   H   :    0.018071298    0.010030188   -0.041867071
   5   H   :   -0.004667733    0.000714993   -0.009734523
   6   H   :    0.005396100   -0.005328270    0.024329920
   7   H   :    0.020281875   -0.017775957    0.007079014

Difference to translation invariance:
           :    0.0000297166   -0.0000171422    0.0000085649

Difference to rotation invariance:
           :    0.0001475142   -0.0001041080   -0.0002237044

Norm of the cartesian gradient     ...    0.2063228138
RMS gradient                       ...    0.0450233291
MAX gradient                       ...    0.1133875892

------------------------------------------------------------------------------
                  RELAXED CIS/TDA DENSITY POPULATION ANALYSIS
                                   IROOT 1
------------------------------------------------------------------------------
------------------------------------------------------------------------------
                           ORCA POPULATION ANALYSIS
------------------------------------------------------------------------------
Input electron density              ... ox_es1_A_orca0025.cisp
BaseName (.gbw .S,...)              ... ox_es1_A_orca0025

                    ********************************
                    * MULLIKEN POPULATION ANALYSIS *
                    ********************************

-----------------------
MULLIKEN ATOMIC CHARGES
-----------------------
   0 O :    0.029187
   1 C :    0.213036
   2 C :    0.575451
   3 H :   -0.053648
   4 H :   -0.081750
   5 H :   -0.301586
   6 H :   -0.380691
Sum of atomic charges:   -0.0000000

--------------------------------
MULLIKEN REDUCED ORBITAL CHARGES
--------------------------------
  0 O s       :     3.871164  s :     3.871164
      pz      :     1.206803  p :     4.041515
      px      :     1.460686
      py      :     1.374026
      dz2     :     0.006672  d :     0.055520
      dxz     :     0.004594
      dyz     :     0.010798
      dx2y2   :     0.016708
      dxy     :     0.016749
      f0      :     0.000274  f :     0.002614
      f+1     :     0.000082
      f-1     :     0.000353
      f+2     :     0.000155
      f-2     :     0.000336
      f+3     :     0.000448
      f-3     :     0.000967
  1 C s       :     2.965576  s :     2.965576
      pz      :     1.070127  p :     2.699723
      px      :     0.964361
      py      :     0.665235
      dz2     :     0.010948  d :     0.109196
      dxz     :     0.027554
      dyz     :     0.012892
      dx2y2   :     0.035685
      dxy     :     0.022116
      f0      :     0.001428  f :     0.012469
      f+1     :     0.001437
      f-1     :     0.000749
      f+2     :     0.001261
      f-2     :     0.001378
      f+3     :     0.002514
      f-3     :     0.003701
  2 C s       :     2.740978  s :     2.740978
      pz      :     1.104872  p :     2.566234
      px      :     0.854063
      py      :     0.607299
      dz2     :     0.013421  d :     0.104442
      dxz     :     0.023168
      dyz     :     0.010082
      dx2y2   :     0.032380
      dxy     :     0.025390
      f0      :     0.001349  f :     0.012895
      f+1     :     0.001287
      f-1     :     0.000917
      f+2     :     0.001187
      f-2     :     0.001862
      f+3     :     0.002836
      f-3     :     0.003458
  3 H s       :     1.026648  s :     1.026648
      pz      :     0.015542  p :     0.027000
      px      :     0.007893
      py      :     0.003565
  4 H s       :     1.057590  s :     1.057590
      pz      :     0.015483  p :     0.024160
      px      :     0.006003
      py      :     0.002674
  5 H s       :     1.270999  s :     1.270999
      pz      :     0.017117  p :     0.030587
      px      :     0.009477
      py      :     0.003993
  6 H s       :     1.353953  s :     1.353953
      pz      :     0.015159  p :     0.026738
      px      :     0.007830
      py      :     0.003749


                     *******************************
                     * LOEWDIN POPULATION ANALYSIS *
                     *******************************

----------------------
LOEWDIN ATOMIC CHARGES
----------------------
   0 O :    0.555448
   1 C :   -0.312927
   2 C :   -0.338882
   3 H :    0.064780
   4 H :    0.076506
   5 H :   -0.006650
   6 H :   -0.038275

-------------------------------
LOEWDIN REDUCED ORBITAL CHARGES
-------------------------------
  0 O s       :     3.326084  s :     3.326084
      pz      :     1.122938  p :     3.981862
      px      :     1.389005
      py      :     1.469920
      dz2     :     0.015731  d :     0.126676
      dxz     :     0.013359
      dyz     :     0.022301
      dx2y2   :     0.048343
      dxy     :     0.026941
      f0      :     0.001042  f :     0.009929
      f+1     :     0.000183
      f-1     :     0.000930
      f+2     :     0.000293
      f-2     :     0.001575
      f+3     :     0.001330
      f-3     :     0.004577
  1 C s       :     2.825753  s :     2.825753
      pz      :     1.006147  p :     2.848309
      px      :     1.070796
      py      :     0.771366
      dz2     :     0.091196  d :     0.541686
      dxz     :     0.153512
      dyz     :     0.046860
      dx2y2   :     0.134829
      dxy     :     0.115289
      f0      :     0.011611  f :     0.097179
      f+1     :     0.007785
      f-1     :     0.007909
      f+2     :     0.009252
      f-2     :     0.006643
      f+3     :     0.020316
      f-3     :     0.033663
  2 C s       :     2.885224  s :     2.885224
      pz      :     1.024882  p :     2.860877
      px      :     1.080179
      py      :     0.755816
      dz2     :     0.071594  d :     0.500982
      dxz     :     0.139268
      dyz     :     0.040211
      dx2y2   :     0.120893
      dxy     :     0.129017
      f0      :     0.009253  f :     0.091798
      f+1     :     0.007354
      f-1     :     0.007676
      f+2     :     0.007419
      f-2     :     0.008704
      f+3     :     0.020992
      f-3     :     0.030400
  3 H s       :     0.853902  s :     0.853902
      pz      :     0.047708  p :     0.081318
      px      :     0.022321
      py      :     0.011290
  4 H s       :     0.854484  s :     0.854484
      pz      :     0.046466  p :     0.069010
      px      :     0.015116
      py      :     0.007428
  5 H s       :     0.916951  s :     0.916951
      pz      :     0.053072  p :     0.089700
      px      :     0.025064
      py      :     0.011563
  6 H s       :     0.955952  s :     0.955952
      pz      :     0.050466  p :     0.082323
      px      :     0.020935
      py      :     0.010922


                      *****************************
                      * MAYER POPULATION ANALYSIS *
                      *****************************

  NA   - Mulliken gross atomic population
  ZA   - Total nuclear charge
  QA   - Mulliken gross atomic charge
  VA   - Mayer's total valence
  BVA  - Mayer's bonded valence
  FA   - Mayer's free valence

  ATOM       NA         ZA         QA         VA         BVA        FA
  0 O      7.9708     8.0000     0.0292     2.4561     1.7906     0.6655
  1 C      5.7870     6.0000     0.2130     3.0898     3.2426    -0.1528
  2 C      5.4245     6.0000     0.5755     1.7114     2.1440    -0.4326
  3 H      1.0536     1.0000    -0.0536     1.3072     1.0435     0.2637
  4 H      1.0818     1.0000    -0.0818     1.3015     0.9958     0.3057
  5 H      1.3016     1.0000    -0.3016     1.5209     0.9779     0.5430
  6 H      1.3807     1.0000    -0.3807     1.4573     0.8019     0.6554

  Mayer bond orders larger than 0.100000
B(  0-O ,  1-C ) :   0.9007 B(  0-O ,  2-C ) :   0.8377 B(  1-C ,  2-C ) :   1.1658 
B(  1-C ,  3-H ) :   0.7544 B(  1-C ,  4-H ) :   0.6570 B(  1-C ,  5-H ) :  -0.1011 
B(  1-C ,  6-H ) :  -0.1343 B(  2-C ,  3-H ) :  -0.1280 B(  2-C ,  4-H ) :  -0.1641 
B(  2-C ,  5-H ) :   0.3466 B(  3-H ,  5-H ) :   0.1531 B(  3-H ,  6-H ) :   0.1639 
B(  4-H ,  5-H ) :   0.1580 B(  4-H ,  6-H ) :   0.2488 B(  5-H ,  6-H ) :   0.4087 



-------
TIMINGS
-------

Total TD-DFT gradient time         ...        5.148 sec

Fock matrix formation       ....       0.855 sec  ( 16.6%)
  Coulomb formation         ....       0.694 sec  ( 81.2% of F)
  RI-J                      ....       0.290 sec  ( 34.0% of F)
  Chain of spheres X        ....       0.403 sec  ( 47.2% of F)
  XC integration            ....       0.161 sec  ( 18.8% of F)
Z-vector equation           ....       1.379 sec  ( 26.8%)
One electron gradient       ....       0.032 sec  (  0.6%)
Prescreening matrices       ....       0.159 sec  (  3.1%)
RI-J Coulomb gradient       ....       0.265 sec  (  5.1%)
COSX gradient               ....       0.347 sec  (  6.7%)
XC gradient                 ....       1.796 sec  ( 34.9%)

Maximum memory used throughout the entire SCFGRAD-calculation: 130.3 MB

                            ***************************************
                            *     ORCA property calculations      *
                            ***************************************

                                    ---------------------
                                    Active property flags
                                    ---------------------
   (+) Dipole Moment


------------------------------------------------------------------------------
                       ORCA ELECTRIC PROPERTIES CALCULATION
------------------------------------------------------------------------------

Dipole Moment Calculation                       ... on
Quadrupole Moment Calculation                   ... off
Polarizability Calculation                      ... off
GBWName                                         ... ox_es1_A_orca0025.gbw
Electron density                                ... ox_es1_A_orca0025.scfp
The origin for moment calculation is the CENTER OF MASS  = (-0.095365, -0.136235 -0.016781)

-------------
DIPOLE MOMENT
-------------
                                X             Y             Z
Electronic contribution:     -0.24577       1.74915       0.02297
Nuclear contribution   :      0.24700      -2.34558      -0.04646
                        -----------------------------------------
Total Dipole Moment    :      0.00123      -0.59643      -0.02349
                        -----------------------------------------
Magnitude (a.u.)       :      0.59690
Magnitude (Debye)      :      1.51719



--------------------
Rotational spectrum 
--------------------
 
Rotational constants in cm-1:     0.949300     0.782744     0.515288 
Rotational constants in MHz : 28459.293740 23466.085921 15447.950489 

 Dipole components along the rotational axes: 
x,y,z [a.u.] :    -0.125626    -0.583165    -0.020533 
x,y,z [Debye]:    -0.319315    -1.482289    -0.052190 

 

                        *** CIS RELAXED DENSITY ***

------------------------------------------------------------------------------
                       ORCA ELECTRIC PROPERTIES CALCULATION
------------------------------------------------------------------------------

Dipole Moment Calculation                       ... on
Quadrupole Moment Calculation                   ... off
Polarizability Calculation                      ... off
GBWName                                         ... ox_es1_A_orca0025.gbw
Electron density                                ... ox_es1_A_orca0025.cisp
The origin for moment calculation is the CENTER OF MASS  = (-0.095365, -0.136235 -0.016781)

-------------
DIPOLE MOMENT
-------------
                                X             Y             Z
Electronic contribution:     -1.11599       2.91192      -0.05884
Nuclear contribution   :      0.24700      -2.34558      -0.04646
                        -----------------------------------------
Total Dipole Moment    :     -0.86899       0.56633      -0.10530
                        -----------------------------------------
Magnitude (a.u.)       :      1.04258
Magnitude (Debye)      :      2.65003



--------------------
Rotational spectrum 
--------------------
 
Rotational constants in cm-1:     0.949300     0.782744     0.515288 
Rotational constants in MHz : 28459.293740 23466.085921 15447.950489 

 Dipole components along the rotational axes: 
x,y,z [a.u.] :     0.961612     0.374852    -0.147515 
x,y,z [Debye]:     2.444223     0.952798    -0.374955 

 

Timings for individual modules:

Sum of individual times         ...        7.953 sec (=   0.133 min)
GTO integral calculation        ...        0.319 sec (=   0.005 min)   4.0 %
SCF iterations                  ...        1.199 sec (=   0.020 min)  15.1 %
CIS module                      ...        0.977 sec (=   0.016 min)  12.3 %
SCF Gradient evaluation         ...        5.458 sec (=   0.091 min)  68.6 %
                             ****ORCA TERMINATED NORMALLY****
TOTAL RUN TIME: 0 days 0 hours 0 minutes 8 seconds 378 msec
