
                                 *****************
                                 * O   R   C   A *
                                 *****************

                                            #,                                       
                                            ###                                      
                                            ####                                     
                                            #####                                    
                                            ######                                   
                                           ########,                                 
                                     ,,################,,,,,                         
                               ,,#################################,,                 
                          ,,##########################################,,             
                       ,#########################################, ''#####,          
                    ,#############################################,,   '####,        
                  ,##################################################,,,,####,       
                ,###########''''           ''''###############################       
              ,#####''   ,,,,##########,,,,          '''####'''          '####       
            ,##' ,,,,###########################,,,                        '##       
           ' ,,###''''                  '''############,,,                           
         ,,##''                                '''############,,,,        ,,,,,,###''
      ,#''                                            '''#######################'''  
     '                                                          ''''####''''         
             ,#######,   #######,   ,#######,      ##                                
            ,#'     '#,  ##    ##  ,#'     '#,    #''#        ######   ,####,        
            ##       ##  ##   ,#'  ##            #'  '#       #        #'  '#        
            ##       ##  #######   ##           ,######,      #####,   #    #        
            '#,     ,#'  ##    ##  '#,     ,#' ,#      #,         ##   #,  ,#        
             '#######'   ##     ##  '#######'  #'      '#     #####' # '####'        



                  #######################################################
                  #                        -***-                        #
                  #          Department of theory and spectroscopy      #
                  #    Directorship and core code : Frank Neese         #
                  #        Max Planck Institute fuer Kohlenforschung    #
                  #                Kaiser Wilhelm Platz 1               #
                  #                 D-45470 Muelheim/Ruhr               #
                  #                      Germany                        #
                  #                                                     #
                  #                  All rights reserved                #
                  #                        -***-                        #
                  #######################################################


                         Program Version 5.0.2 -  RELEASE  -


 With contributions from (in alphabetic order):
   Daniel Aravena         : Magnetic Suceptibility
   Michael Atanasov       : Ab Initio Ligand Field Theory (pilot matlab implementation)
   Alexander A. Auer      : GIAO ZORA, VPT2 properties, NMR spectrum
   Ute Becker             : Parallelization
   Giovanni Bistoni       : ED, misc. LED, open-shell LED, HFLD
   Martin Brehm           : Molecular dynamics
   Dmytro Bykov           : SCF Hessian
   Vijay G. Chilkuri      : MRCI spin determinant printing, contributions to CSF-ICE
   Dipayan Datta          : RHF DLPNO-CCSD density
   Achintya Kumar Dutta   : EOM-CC, STEOM-CC
   Dmitry Ganyushin       : Spin-Orbit,Spin-Spin,Magnetic field MRCI
   Miquel Garcia          : C-PCM and meta-GGA Hessian, CC/C-PCM, Gaussian charge scheme
   Yang Guo               : DLPNO-NEVPT2, F12-NEVPT2, CIM, IAO-localization
   Andreas Hansen         : Spin unrestricted coupled pair/coupled cluster methods
   Benjamin Helmich-Paris : MC-RPA, TRAH-SCF, COSX integrals
   Lee Huntington         : MR-EOM, pCC
   Robert Izsak           : Overlap fitted RIJCOSX, COSX-SCS-MP3, EOM
   Marcus Kettner         : VPT2
   Christian Kollmar      : KDIIS, OOCD, Brueckner-CCSD(T), CCSD density, CASPT2, CASPT2-K
   Simone Kossmann        : Meta GGA functionals, TD-DFT gradient, OOMP2, MP2 Hessian
   Martin Krupicka        : Initial AUTO-CI
   Lucas Lang             : DCDCAS
   Marvin Lechner         : AUTO-CI (C++ implementation), FIC-MRCC
   Dagmar Lenk            : GEPOL surface, SMD
   Dimitrios Liakos       : Extrapolation schemes; Compound Job, initial MDCI parallelization
   Dimitrios Manganas     : Further ROCIS development; embedding schemes
   Dimitrios Pantazis     : SARC Basis sets
   Anastasios Papadopoulos: AUTO-CI, single reference methods and gradients
   Taras Petrenko         : DFT Hessian,TD-DFT gradient, ASA, ECA, R-Raman, ABS, FL, XAS/XES, NRVS
   Peter Pinski           : DLPNO-MP2, DLPNO-MP2 Gradient
   Christoph Reimann      : Effective Core Potentials
   Marius Retegan         : Local ZFS, SOC
   Christoph Riplinger    : Optimizer, TS searches, QM/MM, DLPNO-CCSD(T), (RO)-DLPNO pert. Triples
   Tobias Risthaus        : Range-separated hybrids, TD-DFT gradient, RPA, STAB
   Michael Roemelt        : Original ROCIS implementation
   Masaaki Saitow         : Open-shell DLPNO-CCSD energy and density
   Barbara Sandhoefer     : DKH picture change effects
   Avijit Sen             : IP-ROCIS
   Kantharuban Sivalingam : CASSCF convergence, NEVPT2, FIC-MRCI
   Bernardo de Souza      : ESD, SOC TD-DFT
   Georgi Stoychev        : AutoAux, RI-MP2 NMR, DLPNO-MP2 response
   Willem Van den Heuvel  : Paramagnetic NMR
   Boris Wezisla          : Elementary symmetry handling
   Frank Wennmohs         : Technical directorship


 We gratefully acknowledge several colleagues who have allowed us to
 interface, adapt or use parts of their codes:
   Stefan Grimme, W. Hujo, H. Kruse, P. Pracht,  : VdW corrections, initial TS optimization,
                  C. Bannwarth, S. Ehlert          DFT functionals, gCP, sTDA/sTD-DF
   Ed Valeev, F. Pavosevic, A. Kumar             : LibInt (2-el integral package), F12 methods
   Garnet Chan, S. Sharma, J. Yang, R. Olivares  : DMRG
   Ulf Ekstrom                                   : XCFun DFT Library
   Mihaly Kallay                                 : mrcc  (arbitrary order and MRCC methods)
   Jiri Pittner, Ondrej Demel                    : Mk-CCSD
   Frank Weinhold                                : gennbo (NPA and NBO analysis)
   Christopher J. Cramer and Donald G. Truhlar   : smd solvation model
   Lars Goerigk                                  : TD-DFT with DH, B97 family of functionals
   V. Asgeirsson, H. Jonsson                     : NEB implementation
   FAccTs GmbH                                   : IRC, NEB, NEB-TS, DLPNO-Multilevel, CI-OPT
                                                   MM, QMMM, 2- and 3-layer-ONIOM, Crystal-QMMM,
                                                   LR-CPCM, SF, NACMEs, symmetry and pop. for TD-DFT,
                                                   nearIR, NL-DFT gradient (VV10), updates on ESD,
                                                   ML-optimized integration grids
   S Lehtola, MJT Oliveira, MAL Marques          : LibXC Library
   Liviu Ungur et al                             : ANISO software


 Your calculation uses the libint2 library for the computation of 2-el integrals
 For citations please refer to: http://libint.valeyev.net

 Your ORCA version has been built with support for libXC version: 5.1.0
 For citations please refer to: https://tddft.org/programs/libxc/

 This ORCA versions uses:
   CBLAS   interface :  Fast vector & matrix operations
   LAPACKE interface :  Fast linear algebra routines
   SCALAPACK package :  Parallel linear algebra routines
   Shared memory     :  Shared parallel matrices
   BLAS/LAPACK       :  OpenBLAS 0.3.15  USE64BITINT DYNAMIC_ARCH NO_AFFINITY SkylakeX SINGLE_THREADED
        Core in use  :  SkylakeX
   Copyright (c) 2011-2014, The OpenBLAS Project


Your calculation utilizes the atom-pairwise dispersion correction
with the Becke-Johnson damping scheme (D3BJ)
Cite in your paper:
S.Grimme, S.Ehrlich, L.Goerigk, J Comput Chem, (2011), 32, 1456–1465 
S.Grimme, J.Antony, S.Ehrlich and H.Krieg, J.Chem.Phys., 132, (2010), 154104 
   

================================================================================

----- Orbital basis set information -----
Your calculation utilizes the basis: def2-TZVP
   F. Weigend and R. Ahlrichs, Phys. Chem. Chem. Phys. 7, 3297 (2005).

----- AuxJ basis set information -----
Your calculation utilizes the auxiliary basis: def2/J
   F. Weigend, Phys. Chem. Chem. Phys. 8, 1057 (2006).

================================================================================
                                        WARNINGS
                       Please study these warnings very carefully!
================================================================================

INFO   : Checking CIS options ...

WARNING: CIS/ROCIS methods need fully converged wavefunctions
  ===> : Setting SCFConvForced true
         You can overwrite this default with %scf ConvForced false 


INFO   : the flag for use of the SHARK integral package has been found!

================================================================================
                                       INPUT FILE
================================================================================
NAME = ox_es1_G_orca0004.inp
|  1> ! engrad PBE0 D3BJ def2-TZVP  
|  2> %pal nprocs 8 end
|  3> %maxcore 3000
|  4> 
|  5> %tddft
|  6>   nroots 1
|  7>   tda true
|  8>   Iroot 1
|  9>   end 
| 10> *xyz 0 1 
| 11> O   -1.4679348998090112 0.7132660582616868 0.01572356455117074
| 12> C   -0.7890406409918684 -0.4267883448395428 -0.06262274487154919
| 13> C   0.7295215330592146 -0.46334299623576497 -0.02142285887350738
| 14> H   -1.327257190369688 -0.6367768408753428 0.9466667669552008
| 15> H   -1.2818463448513908 -0.6126270566022538 -0.906647639208215
| 16> H   1.3172874827550336 -0.6081637217298597 -0.9025143886885555
| 17> H   1.3687457632332907 -0.6483980873634969 0.945725303821118
| 18> *
| 19> 
| 20>                          ****END OF INPUT****
================================================================================

                     *******************************
                     * Energy+Gradient Calculation *
                     *******************************

---------------------------------
CARTESIAN COORDINATES (ANGSTROEM)
---------------------------------
  O     -1.467935    0.713266    0.015724
  C     -0.789041   -0.426788   -0.062623
  C      0.729522   -0.463343   -0.021423
  H     -1.327257   -0.636777    0.946667
  H     -1.281846   -0.612627   -0.906648
  H      1.317287   -0.608164   -0.902514
  H      1.368746   -0.648398    0.945725

----------------------------
CARTESIAN COORDINATES (A.U.)
----------------------------
  NO LB      ZA    FRAG     MASS         X           Y           Z
   0 O     8.0000    0    15.999   -2.773995    1.347878    0.029713
   1 C     6.0000    0    12.011   -1.491071   -0.806513   -0.118340
   2 C     6.0000    0    12.011    1.378596   -0.875591   -0.040483
   3 H     1.0000    0     1.008   -2.508153   -1.203334    1.788941
   4 H     1.0000    0     1.008   -2.422339   -1.157697   -1.713316
   5 H     1.0000    0     1.008    2.489313   -1.149263   -1.705505
   6 H     1.0000    0     1.008    2.586555   -1.225295    1.787162

--------------------------------
INTERNAL COORDINATES (ANGSTROEM)
--------------------------------
 O      0   0   0     0.000000000000     0.00000000     0.00000000
 C      1   0   0     1.329195095118     0.00000000     0.00000000
 C      2   1   0     1.519560709417   121.96864749     0.00000000
 H      2   1   3     1.162943481505    82.37648558   115.68109042
 H      2   1   3     0.994872610341    87.54817826   234.60809313
 H      3   2   1     1.069001467757   122.03097410   256.75366583
 H      3   2   1     1.173979800421   124.76862391    95.17163140

---------------------------
INTERNAL COORDINATES (A.U.)
---------------------------
 O      0   0   0     0.000000000000     0.00000000     0.00000000
 C      1   0   0     2.511814708324     0.00000000     0.00000000
 C      2   1   0     2.871553584665   121.96864749     0.00000000
 H      2   1   3     2.197644689273    82.37648558   115.68109042
 H      2   1   3     1.880036771683    87.54817826   234.60809313
 H      3   2   1     2.020120010820   122.03097410   256.75366583
 H      3   2   1     2.218500309552   124.76862391    95.17163140

---------------------
BASIS SET INFORMATION
---------------------
There are 3 groups of distinct atoms

 Group   1 Type O   : 11s6p2d1f contracted to 5s3p2d1f pattern {62111/411/11/1}
 Group   2 Type C   : 11s6p2d1f contracted to 5s3p2d1f pattern {62111/411/11/1}
 Group   3 Type H   : 5s1p contracted to 3s1p pattern {311/1}

Atom   0O    basis set group =>   1
Atom   1C    basis set group =>   2
Atom   2C    basis set group =>   2
Atom   3H    basis set group =>   3
Atom   4H    basis set group =>   3
Atom   5H    basis set group =>   3
Atom   6H    basis set group =>   3
---------------------------------
AUXILIARY/J BASIS SET INFORMATION
---------------------------------
There are 3 groups of distinct atoms

 Group   1 Type O   : 12s5p4d2f1g contracted to 6s4p3d1f1g pattern {711111/2111/211/2/1}
 Group   2 Type C   : 12s5p4d2f1g contracted to 6s4p3d1f1g pattern {711111/2111/211/2/1}
 Group   3 Type H   : 5s2p1d contracted to 3s1p1d pattern {311/2/1}

Atom   0O    basis set group =>   1
Atom   1C    basis set group =>   2
Atom   2C    basis set group =>   2
Atom   3H    basis set group =>   3
Atom   4H    basis set group =>   3
Atom   5H    basis set group =>   3
Atom   6H    basis set group =>   3

Checking for AutoStart:
The File: ox_es1_G_orca0004.gbw exists
Trying to determine its content:
     ... Fine, the file contains calculation information
     ... Fine, the calculation information was read
     ... Fine, the file contains a basis set
     ... Fine, the basis set was read
     ... Fine, the file contains a geometry
     ... Fine, the geometry was read
     ... Fine, the file contains a set of orbitals
     ... Fine, the orbitals can be read
     => possible old guess file was deleted
     => GBW file was renamed to GES file
     => GES file is set as startup file
     => Guess is set to MORead
     ... now leaving AutoStart



           ************************************************************
           *        Program running with 8 parallel MPI-processes     *
           *              working on a common directory               *
           ************************************************************
------------------------------------------------------------------------------
                           ORCA GTO INTEGRAL CALCULATION
                           -- RI-GTO INTEGRALS CHOSEN --
------------------------------------------------------------------------------
------------------------------------------------------------------------------
                   ___                                                        
                  /   \      - P O W E R E D   B Y -                         
                 /     \                                                     
                 |  |  |   _    _      __       _____    __    __             
                 |  |  |  | |  | |    /  \     |  _  \  |  |  /  |          
                  \  \/   | |  | |   /    \    | | | |  |  | /  /          
                 / \  \   | |__| |  /  /\  \   | |_| |  |  |/  /          
                |  |  |   |  __  | /  /__\  \  |    /   |      \           
                |  |  |   | |  | | |   __   |  |    \   |  |\   \          
                \     /   | |  | | |  |  |  |  | |\  \  |  | \   \       
                 \___/    |_|  |_| |__|  |__|  |_| \__\ |__|  \__/        
                                                                              
                      - O R C A' S   B I G   F R I E N D -                    
                                      &                                       
                       - I N T E G R A L  F E E D E R -                       
                                                                              
 v1 FN, 2020, v2 2021                                                         
------------------------------------------------------------------------------


Reading SHARK input file ox_es1_G_orca0004.SHARKINP.tmp ... ok
----------------------
SHARK INTEGRAL PACKAGE
----------------------

Number of atoms                             ...      7
Number of basis functions                   ...    117
Number of shells                            ...     49
Maximum angular momentum                    ...      3
Integral batch strategy                     ... SHARK/LIBINT Hybrid
RI-J (if used) integral strategy            ... SPLIT-RIJ (Revised 2003 algorithm where possible)
Printlevel                                  ...      1
Contraction scheme used                     ... SEGMENTED contraction
Coulomb Range Separation                    ... NOT USED
Exchange Range Separation                   ... NOT USED
Finite Nucleus Model                        ... NOT USED
Auxiliary Coulomb fitting basis             ... AVAILABLE
   # of basis functions in Aux-J            ...    191
   # of shells in Aux-J                     ...     65
   Maximum angular momentum in Aux-J        ...      4
Auxiliary J/K fitting basis                 ... NOT available
Auxiliary Correlation fitting basis         ... NOT available
Auxiliary 'external' fitting basis          ... NOT available
Integral threshold                          ...     2.500000e-11
Primitive cut-off                           ...     2.500000e-12
Primitive pair pre-selection threshold      ...     2.500000e-12

Calculating pre-screening integrals         ... done (  0.0 sec) Dimension = 49
Organizing shell pair data                  ... done (  0.0 sec)
Shell pair information
Total number of shell pairs                 ...      1225
Shell pairs after pre-screening             ...      1210
Total number of primitive shell pairs       ...      3648
Primitive shell pairs kept                  ...      3060
          la=0 lb=0:    368 shell pairs
          la=1 lb=0:    348 shell pairs
          la=1 lb=1:     91 shell pairs
          la=2 lb=0:    160 shell pairs
          la=2 lb=1:     78 shell pairs
          la=2 lb=2:     21 shell pairs
          la=3 lb=0:     81 shell pairs
          la=3 lb=1:     39 shell pairs
          la=3 lb=2:     18 shell pairs
          la=3 lb=3:      6 shell pairs

Calculating one electron integrals          ... done (  0.0 sec)
Calculating RI/J V-Matrix + Cholesky decomp.... done (  0.0 sec)
Calculating Nuclear repulsion               ... done (  0.0 sec) ENN=     68.070323572945 Eh

SHARK setup successfully completed in   0.1 seconds

Maximum memory used throughout the entire GTOINT-calculation: 14.9 MB


           ************************************************************
           *        Program running with 8 parallel MPI-processes     *
           *              working on a common directory               *
           ************************************************************
-------------------------------------------------------------------------------
                                 ORCA SCF
-------------------------------------------------------------------------------

------------
SCF SETTINGS
------------
Hamiltonian:
 Density Functional     Method          .... DFT(GTOs)
 Exchange Functional    Exchange        .... PBE
   PBE kappa parameter   XKappa         ....  0.804000
   PBE mue parameter    XMuePBE         ....  0.219520
 Correlation Functional Correlation     .... PBE
   PBE beta parameter  CBetaPBE         ....  0.066725
 LDA part of GGA corr.  LDAOpt          .... PW91-LDA
 Gradients option       PostSCFGGA      .... off
 Hybrid DFT is turned on
   Fraction HF Exchange ScalHFX         ....  0.250000
   Scaling of DF-GGA-X  ScalDFX         ....  0.750000
   Scaling of DF-GGA-C  ScalDFC         ....  1.000000
   Scaling of DF-LDA-C  ScalLDAC        ....  1.000000
   Perturbative correction              ....  0.000000
   Density functional embedding theory  .... OFF
   NL short-range parameter             ....  6.900000
 RI-approximation to the Coulomb term is turned on
   Number of AuxJ basis functions       .... 191
   RIJ-COSX (HFX calculated with COS-X)).... on


General Settings:
 Integral files         IntName         .... ox_es1_G_orca0004
 Hartree-Fock type      HFTyp           .... RHF
 Total Charge           Charge          ....    0
 Multiplicity           Mult            ....    1
 Number of Electrons    NEL             ....   24
 Basis Dimension        Dim             ....  117
 Nuclear Repulsion      ENuc            ....     68.0703235729 Eh

Convergence Acceleration:
 DIIS                   CNVDIIS         .... on
   Start iteration      DIISMaxIt       ....    12
   Startup error        DIISStart       ....  0.200000
   # of expansion vecs  DIISMaxEq       ....     5
   Bias factor          DIISBfac        ....   1.050
   Max. coefficient     DIISMaxC        ....  10.000
 Trust-Rad. Augm. Hess. CNVTRAH         .... auto
   Auto Start mean grad. ratio tolernc. ....  1.125000
   Auto Start start iteration           ....     1
   Auto Start num. interpolation iter.  ....    10
   Max. Number of Micro iterations      ....    16
   Max. Number of Macro iterations      .... Maxiter - #DIIS iter
   Number of Davidson start vectors     ....     2
   Converg. threshold I  (grad. norm)   ....   1.000e-05
   Converg. threshold II (energy diff.) ....   1.000e-08
   Grad. Scal. Fac. for Micro threshold ....   0.100
   Minimum threshold for Micro iter.    ....   0.010
   NR start threshold (gradient norm)   ....   0.001
   Initial trust radius                 ....   0.400
   Minimum AH scaling param. (alpha)    ....   1.000
   Maximum AH scaling param. (alpha)    .... 1000.000
   Orbital update algorithm             .... Taylor
   White noise on init. David. guess    .... on
   Maximum white noise                  ....   0.010
   Quad. conv. algorithm                .... NR
 SOSCF                  CNVSOSCF        .... on
   Start iteration      SOSCFMaxIt      ....   150
   Startup grad/error   SOSCFStart      ....  0.003300
 Level Shifting         CNVShift        .... on
   Level shift para.    LevelShift      ....    0.2500
   Turn off err/grad.   ShiftErr        ....    0.0010
 Zerner damping         CNVZerner       .... off
 Static damping         CNVDamp         .... on
   Fraction old density DampFac         ....    0.7000
   Max. Damping (<1)    DampMax         ....    0.9800
   Min. Damping (>=0)   DampMin         ....    0.0000
   Turn off err/grad.   DampErr         ....    0.1000
 Fernandez-Rico         CNVRico         .... off

SCF Procedure:
 Maximum # iterations   MaxIter         ....   125
 SCF integral mode      SCFMode         .... Direct
   Integral package                     .... SHARK and LIBINT hybrid scheme
 Reset frequency        DirectResetFreq ....    20
 Integral Threshold     Thresh          ....  2.500e-11 Eh
 Primitive CutOff       TCut            ....  2.500e-12 Eh

Convergence Tolerance:
 Convergence Check Mode ConvCheckMode   .... Total+1el-Energy
 Convergence forced     ConvForced      .... 1
 Energy Change          TolE            ....  1.000e-08 Eh
 1-El. energy change                    ....  1.000e-05 Eh
 Orbital Gradient       TolG            ....  1.000e-05
 Orbital Rotation angle TolX            ....  1.000e-05
 DIIS Error             TolErr          ....  5.000e-07


Diagonalization of the overlap matrix:
Smallest eigenvalue                        ... 6.930e-04
Time for diagonalization                   ...    0.001 sec
Threshold for overlap eigenvalues          ... 1.000e-08
Number of eigenvalues below threshold      ... 0
Time for construction of square roots      ...    0.001 sec
Total time needed                          ...    0.003 sec

---------------------
INITIAL GUESS: MOREAD
---------------------
Guess MOs are being read from file: ox_es1_G_orca0004.ges
Input Geometry matches current geometry (good)
Input basis set matches current basis set (good)
MOs were renormalized
MOs were reorthogonalized (Cholesky)
                      ------------------
                      INITIAL GUESS DONE (   0.0 sec)
                      ------------------
-------------------
DFT GRID GENERATION
-------------------

General Integration Accuracy     IntAcc      ... 4.388
Radial Grid Type                 RadialGrid  ... OptM3 with GC (2021)
Angular Grid (max. ang.)         AngularGrid ... 4 (Lebedev-302)
Angular grid pruning method      GridPruning ... 4 (adaptive)
Weight generation scheme         WeightScheme... Becke
Basis function cutoff            BFCut       ... 1.0000e-11
Integration weight cutoff        WCut        ... 1.0000e-14
Angular grids for H and He will be reduced by one unit
Partially contracted basis set               ... off
Rotationally invariant grid construction     ... off

Total number of grid points                  ...    31357
Total number of batches                      ...      493
Average number of points per batch           ...       63
Average number of grid points per atom       ...     4480
Time for grid setup =    0.121 sec

--------------------
COSX GRID GENERATION
--------------------

GRIDX 1
-------
General Integration Accuracy     IntAcc      ... 3.816
Radial Grid Type                 RadialGrid  ... OptM3 with GC (2021)
Angular Grid (max. ang.)         AngularGrid ... 1 (Lebedev-50)
Angular grid pruning method      GridPruning ... 4 (adaptive)
Weight generation scheme         WeightScheme... Becke
Basis function cutoff            BFCut       ... 1.0000e-11
Integration weight cutoff        WCut        ... 1.0000e-14
Angular grids for H and He will be reduced by one unit
Partially contracted basis set               ... on
Rotationally invariant grid construction     ... off

Total number of grid points                  ...     4046
Total number of batches                      ...       67
Average number of points per batch           ...       60
Average number of grid points per atom       ...      578
UseSFitting                                  ... on

GRIDX 2
-------
General Integration Accuracy     IntAcc      ... 4.020
Radial Grid Type                 RadialGrid  ... OptM3 with GC (2021)
Angular Grid (max. ang.)         AngularGrid ... 2 (Lebedev-110)
Angular grid pruning method      GridPruning ... 4 (adaptive)
Weight generation scheme         WeightScheme... Becke
Basis function cutoff            BFCut       ... 1.0000e-11
Integration weight cutoff        WCut        ... 1.0000e-14
Angular grids for H and He will be reduced by one unit
Partially contracted basis set               ... on
Rotationally invariant grid construction     ... off

Total number of grid points                  ...     8742
Total number of batches                      ...      141
Average number of points per batch           ...       62
Average number of grid points per atom       ...     1249
UseSFitting                                  ... on

GRIDX 3
-------
General Integration Accuracy     IntAcc      ... 4.338
Radial Grid Type                 RadialGrid  ... OptM3 with GC (2021)
Angular Grid (max. ang.)         AngularGrid ... 3 (Lebedev-194)
Angular grid pruning method      GridPruning ... 4 (adaptive)
Weight generation scheme         WeightScheme... Becke
Basis function cutoff            BFCut       ... 1.0000e-11
Integration weight cutoff        WCut        ... 1.0000e-14
Angular grids for H and He will be reduced by one unit
Partially contracted basis set               ... on
Rotationally invariant grid construction     ... off

Total number of grid points                  ...    19278
Total number of batches                      ...      305
Average number of points per batch           ...       63
Average number of grid points per atom       ...     2754
UseSFitting                                  ... on

Time for X-Grid setup             =    0.073 sec

--------------
SCF ITERATIONS
--------------
ITER       Energy         Delta-E        Max-DP      RMS-DP      [F,P]     Damp
               ***  Starting incremental Fock matrix formation  ***
                      *** Initiating the SOSCF procedure ***
                      *** Re-Reading the Fockian *** 
                      *** Removing any level shift *** 
ITER      Energy       Delta-E        Grad      Rot      Max-DP    RMS-DP
  0   -153.46037825 -153.4603782512  0.000002  0.000002  0.000002  0.000000
               *** Restarting incremental Fock matrix formation ***
                  ***Gradient check signals convergence***
              ***Rediagonalizing the Fockian in SOSCF/NRSCF***

               *****************************************************
               *                     SUCCESS                       *
               *           SCF CONVERGED AFTER   1 CYCLES          *
               *****************************************************

Old exchange energy                            =     -4.952344705 Eh
New exchange energy                            =     -4.952352921 Eh
Exchange energy change after final integration =     -0.000008216 Eh
Total energy after final integration           =   -153.460386468 Eh
Final COS-X integration done in                =     0.250 sec

----------------
TOTAL SCF ENERGY
----------------

Total Energy       :         -153.46038647 Eh           -4175.86941 eV

Components:
Nuclear Repulsion  :           68.07032357 Eh            1852.28767 eV
Electronic Energy  :         -221.53071004 Eh           -6028.15709 eV
One Electron Energy:         -342.89123663 Eh           -9330.54490 eV
Two Electron Energy:          121.36052659 Eh            3302.38782 eV
Max COSX asymmetry :            0.00000252 Eh               0.00007 eV

Virial components:
Potential Energy   :         -306.44285201 Eh           -8338.73394 eV
Kinetic Energy     :          152.98246554 Eh            4162.86452 eV
Virial Ratio       :            2.00312402


DFT components:
N(Alpha)           :       11.999995535892 electrons
N(Beta)            :       11.999995535892 electrons
N(Total)           :       23.999991071785 electrons
E(X)               :      -14.893729240735 Eh       
E(C)               :       -0.774541056217 Eh       
E(XC)              :      -15.668270296952 Eh       
DFET-embed. en.    :        0.000000000000 Eh       

---------------
SCF CONVERGENCE
---------------

  Last Energy change         ...   -1.3742e-10  Tolerance :   1.0000e-08
  Last MAX-Density change    ...    8.8818e-16  Tolerance :   1.0000e-07
  Last RMS-Density change    ...    1.8261e-17  Tolerance :   5.0000e-09
  Last Orbital Gradient      ...    6.1049e-07  Tolerance :   1.0000e-05
  Last Orbital Rotation      ...    1.1938e-06  Tolerance :   1.0000e-05

             **** THE GBW FILE WAS UPDATED (ox_es1_G_orca0004.gbw) ****
             **** DENSITY ox_es1_G_orca0004.scfp WAS UPDATED ****
             **** ENERGY FILE WAS UPDATED (ox_es1_G_orca0004.en.tmp) ****
             **** THE GBW FILE WAS UPDATED (ox_es1_G_orca0004.gbw) ****
             **** DENSITY ox_es1_G_orca0004.scfp WAS UPDATED ****
----------------
ORBITAL ENERGIES
----------------

  NO   OCC          E(Eh)            E(eV) 
   0   2.0000     -19.175822      -521.8007 
   1   2.0000     -10.298060      -280.2245 
   2   2.0000     -10.283668      -279.8328 
   3   2.0000      -1.033490       -28.1227 
   4   2.0000      -0.756218       -20.5777 
   5   2.0000      -0.615103       -16.7378 
   6   2.0000      -0.534023       -14.5315 
   7   2.0000      -0.480718       -13.0810 
   8   2.0000      -0.435049       -11.8383 
   9   2.0000      -0.405455       -11.0330 
  10   2.0000      -0.251429        -6.8417 
  11   2.0000      -0.221465        -6.0264 
  12   0.0000      -0.157412        -4.2834 
  13   0.0000       0.041562         1.1310 
  14   0.0000       0.073345         1.9958 
  15   0.0000       0.089345         2.4312 
  16   0.0000       0.140207         3.8152 
  17   0.0000       0.148145         4.0312 
  18   0.0000       0.192222         5.2306 
  19   0.0000       0.216720         5.8972 
  20   0.0000       0.225171         6.1272 
  21   0.0000       0.238681         6.4949 
  22   0.0000       0.242804         6.6070 
  23   0.0000       0.330334         8.9889 
  24   0.0000       0.361743         9.8435 
  25   0.0000       0.393215        10.6999 
  26   0.0000       0.402958        10.9650 
  27   0.0000       0.439559        11.9610 
  28   0.0000       0.458973        12.4893 
  29   0.0000       0.459291        12.4979 
  30   0.0000       0.501532        13.6474 
  31   0.0000       0.521038        14.1782 
  32   0.0000       0.549513        14.9530 
  33   0.0000       0.621168        16.9028 
  34   0.0000       0.638811        17.3829 
  35   0.0000       0.743576        20.2337 
  36   0.0000       0.790494        21.5104 
  37   0.0000       0.823575        22.4106 
  38   0.0000       0.898673        24.4541 
  39   0.0000       0.920945        25.0602 
  40   0.0000       0.939606        25.5680 
  41   0.0000       1.001098        27.2412 
  42   0.0000       1.102299        29.9951 
  43   0.0000       1.127229        30.6735 
  44   0.0000       1.214905        33.0593 
  45   0.0000       1.343642        36.5624 
  46   0.0000       1.421930        38.6927 
  47   0.0000       1.436847        39.0986 
  48   0.0000       1.487351        40.4729 
  49   0.0000       1.517242        41.2862 
  50   0.0000       1.538863        41.8746 
  51   0.0000       1.577869        42.9360 
  52   0.0000       1.592842        43.3434 
  53   0.0000       1.623876        44.1879 
  54   0.0000       1.709416        46.5156 
  55   0.0000       1.763577        47.9894 
  56   0.0000       1.806121        49.1471 
  57   0.0000       1.878542        51.1177 
  58   0.0000       1.927525        52.4506 
  59   0.0000       1.937793        52.7300 
  60   0.0000       1.990133        54.1543 
  61   0.0000       2.049699        55.7751 
  62   0.0000       2.083696        56.7002 
  63   0.0000       2.245800        61.1113 
  64   0.0000       2.287797        62.2541 
  65   0.0000       2.332986        63.4838 
  66   0.0000       2.382687        64.8362 
  67   0.0000       2.442247        66.4569 
  68   0.0000       2.501141        68.0595 
  69   0.0000       2.542622        69.1883 
  70   0.0000       2.562161        69.7199 
  71   0.0000       2.617365        71.2221 
  72   0.0000       2.659301        72.3633 
  73   0.0000       2.674860        72.7867 
  74   0.0000       2.759642        75.0937 
  75   0.0000       2.826305        76.9077 
  76   0.0000       2.882373        78.4334 
  77   0.0000       2.991744        81.4095 
  78   0.0000       3.018004        82.1241 
  79   0.0000       3.039402        82.7063 
  80   0.0000       3.052035        83.0501 
  81   0.0000       3.076222        83.7083 
  82   0.0000       3.083648        83.9103 
  83   0.0000       3.132601        85.2424 
  84   0.0000       3.178823        86.5002 
  85   0.0000       3.239533        88.1522 
  86   0.0000       3.314373        90.1887 
  87   0.0000       3.352009        91.2128 
  88   0.0000       3.385688        92.1293 
  89   0.0000       3.457665        94.0879 
  90   0.0000       3.512710        95.5857 
  91   0.0000       3.575948        97.3065 
  92   0.0000       3.720682       101.2449 
  93   0.0000       3.810696       103.6943 
  94   0.0000       4.003664       108.9452 
  95   0.0000       4.090253       111.3014 
  96   0.0000       4.137829       112.5960 
  97   0.0000       4.235723       115.2599 
  98   0.0000       4.254325       115.7661 
  99   0.0000       4.511555       122.7657 
 100   0.0000       4.659499       126.7914 
 101   0.0000       4.733225       128.7976 
 102   0.0000       5.195950       141.3890 
 103   0.0000       5.246991       142.7779 
 104   0.0000       5.487401       149.3198 
 105   0.0000       5.501914       149.7147 
 106   0.0000       5.927005       161.2820 
 107   0.0000       6.012272       163.6022 
 108   0.0000       6.116883       166.4489 
 109   0.0000       6.402390       174.2179 
 110   0.0000       6.411589       174.4682 
 111   0.0000       6.855799       186.5558 
 112   0.0000       6.879506       187.2009 
 113   0.0000       6.975250       189.8062 
 114   0.0000      21.977883       598.0486 
 115   0.0000      22.617058       615.4414 
 116   0.0000      43.843097      1193.0313 

                    ********************************
                    * MULLIKEN POPULATION ANALYSIS *
                    ********************************

-----------------------
MULLIKEN ATOMIC CHARGES
-----------------------
   0 O :   -0.404971
   1 C :   -0.117017
   2 C :   -0.173173
   3 H :    0.243836
   4 H :    0.131902
   5 H :    0.156136
   6 H :    0.163287
Sum of atomic charges:   -0.0000000

--------------------------------
MULLIKEN REDUCED ORBITAL CHARGES
--------------------------------
  0 O s       :     3.882795  s :     3.882795
      pz      :     1.451936  p :     4.490121
      px      :     1.684118
      py      :     1.354067
      dz2     :     0.003287  d :     0.030384
      dxz     :     0.001467
      dyz     :     0.008287
      dx2y2   :     0.007484
      dxy     :     0.009860
      f0      :     0.000164  f :     0.001670
      f+1     :     0.000073
      f-1     :     0.000145
      f+2     :     0.000168
      f-2     :     0.000202
      f+3     :     0.000501
      f-3     :     0.000419
  1 C s       :     3.213831  s :     3.213831
      pz      :     1.003132  p :     2.721848
      px      :     0.877048
      py      :     0.841669
      dz2     :     0.018232  d :     0.167778
      dxz     :     0.027882
      dyz     :     0.035848
      dx2y2   :     0.049854
      dxy     :     0.035962
      f0      :     0.001422  f :     0.013559
      f+1     :     0.001649
      f-1     :     0.000325
      f+2     :     0.001162
      f-2     :     0.001489
      f+3     :     0.002205
      f-3     :     0.005307
  2 C s       :     3.321648  s :     3.321648
      pz      :     1.058506  p :     2.810206
      px      :     0.959274
      py      :     0.792425
      dz2     :     0.004199  d :     0.037811
      dxz     :     0.020425
      dyz     :     0.001601
      dx2y2   :     0.004539
      dxy     :     0.007047
      f0      :     0.000275  f :     0.003509
      f+1     :     0.000973
      f-1     :     0.000095
      f+2     :     0.000659
      f-2     :     0.000047
      f+3     :     0.000651
      f-3     :     0.000810
  3 H s       :     0.730387  s :     0.730387
      pz      :     0.010811  p :     0.025776
      px      :     0.007230
      py      :     0.007735
  4 H s       :     0.839562  s :     0.839562
      pz      :     0.011284  p :     0.028536
      px      :     0.008415
      py      :     0.008837
  5 H s       :     0.820479  s :     0.820479
      pz      :     0.010934  p :     0.023385
      px      :     0.007552
      py      :     0.004900
  6 H s       :     0.816990  s :     0.816990
      pz      :     0.009546  p :     0.019723
      px      :     0.006192
      py      :     0.003985


                     *******************************
                     * LOEWDIN POPULATION ANALYSIS *
                     *******************************

----------------------
LOEWDIN ATOMIC CHARGES
----------------------
   0 O :   -0.051118
   1 C :   -0.496130
   2 C :   -0.067975
   3 H :    0.254847
   4 H :    0.107235
   5 H :    0.111175
   6 H :    0.141967

-------------------------------
LOEWDIN REDUCED ORBITAL CHARGES
-------------------------------
  0 O s       :     3.497993  s :     3.497993
      pz      :     1.383934  p :     4.471233
      px      :     1.642616
      py      :     1.444683
      dz2     :     0.007249  d :     0.076441
      dxz     :     0.004180
      dyz     :     0.022601
      dx2y2   :     0.022454
      dxy     :     0.019957
      f0      :     0.000737  f :     0.005451
      f+1     :     0.000237
      f-1     :     0.000507
      f+2     :     0.000497
      f-2     :     0.000779
      f+3     :     0.001254
      f-3     :     0.001439
  1 C s       :     2.814404  s :     2.814404
      pz      :     1.001309  p :     2.962300
      px      :     1.009942
      py      :     0.951049
      dz2     :     0.090594  d :     0.629487
      dxz     :     0.097374
      dyz     :     0.092151
      dx2y2   :     0.200899
      dxy     :     0.148469
      f0      :     0.009910  f :     0.089939
      f+1     :     0.009402
      f-1     :     0.005745
      f+2     :     0.006792
      f-2     :     0.009913
      f+3     :     0.017393
      f-3     :     0.030784
  2 C s       :     2.970384  s :     2.970384
      pz      :     1.081916  p :     2.893674
      px      :     1.070600
      py      :     0.741158
      dz2     :     0.024553  d :     0.186389
      dxz     :     0.099037
      dyz     :     0.003586
      dx2y2   :     0.031668
      dxy     :     0.027545
      f0      :     0.002186  f :     0.017528
      f+1     :     0.003150
      f-1     :     0.000489
      f+2     :     0.003561
      f-2     :     0.000607
      f+3     :     0.003886
      f-3     :     0.003650
  3 H s       :     0.684188  s :     0.684188
      pz      :     0.027275  p :     0.060965
      px      :     0.016466
      py      :     0.017224
  4 H s       :     0.805502  s :     0.805502
      pz      :     0.035964  p :     0.087263
      px      :     0.023919
      py      :     0.027381
  5 H s       :     0.817105  s :     0.817105
      pz      :     0.034774  p :     0.071720
      px      :     0.022137
      py      :     0.014808
  6 H s       :     0.802224  s :     0.802224
      pz      :     0.028163  p :     0.055810
      px      :     0.016689
      py      :     0.010958


                      *****************************
                      * MAYER POPULATION ANALYSIS *
                      *****************************

  NA   - Mulliken gross atomic population
  ZA   - Total nuclear charge
  QA   - Mulliken gross atomic charge
  VA   - Mayer's total valence
  BVA  - Mayer's bonded valence
  FA   - Mayer's free valence

  ATOM       NA         ZA         QA         VA         BVA        FA
  0 O      8.4050     8.0000    -0.4050     1.8007     1.8007    -0.0000
  1 C      6.1170     6.0000    -0.1170     4.1530     4.1530    -0.0000
  2 C      6.1732     6.0000    -0.1732     3.6443     3.6443     0.0000
  3 H      0.7562     1.0000     0.2438     0.9534     0.9534    -0.0000
  4 H      0.8681     1.0000     0.1319     0.9729     0.9729    -0.0000
  5 H      0.8439     1.0000     0.1561     0.9647     0.9647    -0.0000
  6 H      0.8367     1.0000     0.1633     0.9639     0.9639    -0.0000

  Mayer bond orders larger than 0.100000
B(  0-O ,  1-C ) :   1.1951 B(  0-O ,  2-C ) :   0.5367 B(  1-C ,  2-C ) :   1.1508 
B(  1-C ,  3-H ) :   0.7853 B(  1-C ,  4-H ) :   0.9989 B(  2-C ,  5-H ) :   0.9465 
B(  2-C ,  6-H ) :   0.9338 

-------
TIMINGS
-------

Total SCF time: 0 days 0 hours 0 min 0 sec 

Total time                  ....       0.982 sec
Sum of individual times     ....       0.890 sec  ( 90.6%)

Fock matrix formation       ....       0.684 sec  ( 69.7%)
  Split-RI-J                ....       0.112 sec  ( 16.3% of F)
  Chain of spheres X        ....       0.503 sec  ( 73.5% of F)
  XC integration            ....       0.060 sec  (  8.8% of F)
    Basis function eval.    ....       0.017 sec  ( 28.3% of XC)
    Density eval.           ....       0.013 sec  ( 21.9% of XC)
    XC-Functional eval.     ....       0.004 sec  (  6.2% of XC)
    XC-Potential eval.      ....       0.020 sec  ( 32.6% of XC)
Diagonalization             ....       0.002 sec  (  0.2%)
Density matrix formation    ....       0.000 sec  (  0.0%)
Population analysis         ....       0.003 sec  (  0.3%)
Initial guess               ....       0.004 sec  (  0.4%)
Orbital Transformation      ....       0.000 sec  (  0.0%)
Orbital Orthonormalization  ....       0.001 sec  (  0.1%)
DIIS solution               ....       0.001 sec  (  0.1%)
SOSCF solution              ....       0.002 sec  (  0.2%)
Grid generation             ....       0.193 sec  ( 19.7%)

Maximum memory used throughout the entire SCF-calculation: 61.1 MB


           ************************************************************
           *        Program running with 8 parallel MPI-processes     *
           *              working on a common directory               *
           ************************************************************
------------------------------------------------------------------------------
                        ORCA TD-DFT/TDA CALCULATION
------------------------------------------------------------------------------

Input orbitals are from        ... ox_es1_G_orca0004.gbw
CI-vector output               ... ox_es1_G_orca0004.cis
Tamm-Dancoff approximation     ... operative
CIS-Integral strategy          ... AO-integrals
Integral handling              ... AO integral Direct
Max. core memory used          ... 3000 MB
Reference state                ... RHF
Generation of triplets         ... off
Follow IRoot                   ... off
Number of operators            ... 1
Orbital ranges used for CIS calculation:
 Operator 0:  Orbitals   3... 11  to  12...116
XAS localization array:
 Operator 0:  Orbitals  -1... -1

-------------------
XC-INTEGRATION GRID
-------------------

General Integration Accuracy     IntAcc      ... 3.467
Radial Grid Type                 RadialGrid  ... OptM3 with GC (2021)
Angular Grid (max. ang.)         AngularGrid ... 1 (Lebedev-50)
Angular grid pruning method      GridPruning ... 4 (adaptive)
Weight generation scheme         WeightScheme... Becke
Basis function cutoff            BFCut       ... 1.0000e-11
Integration weight cutoff        WCut        ... 1.0000e-14
Angular grids for H and He will be reduced by one unit
Partially contracted basis set               ... off
Rotationally invariant grid construction     ... off

Total number of grid points                  ...     4555
Total number of batches                      ...       74
Average number of points per batch           ...       61
Average number of grid points per atom       ...      651

---------------------
COSX-INTEGRATION GRID
---------------------

General Integration Accuracy     IntAcc      ... 3.067
Radial Grid Type                 RadialGrid  ... OptM3 with GC (2021)
Angular Grid (max. ang.)         AngularGrid ... 1 (Lebedev-50)
Angular grid pruning method      GridPruning ... 4 (adaptive)
Weight generation scheme         WeightScheme... Becke
Basis function cutoff            BFCut       ... 1.0000e-11
Integration weight cutoff        WCut        ... 1.0000e-14
Angular grids for H and He will be reduced by one unit
Partially contracted basis set               ... on
Rotationally invariant grid construction     ... off

Total number of grid points                  ...     2087
Total number of batches                      ...       36
Average number of points per batch           ...       57
Average number of grid points per atom       ...      298

---------------
TD-DFT XC SETUP
---------------

DFT calculation                         ... on
Name of the grid file                   ... ox_es1_G_orca0004.grid_cis.tmp
Exchange functional (TD-DFT)            ... PBE
   PBE kappa parameter  XKappa (TD-DFT) ...  0.804000
   PBE mue parameter   XMuePBE (TD-DFT) ...  0.219520
Correlation functional (TD-DFT)         ... PBE
   PBE beta parameter CBetaPBE (TD-DFT) ...  0.066725
 LDA part of GGA corr.  LDAOpt (TD-DFT) ... PW91-LDA
Hybrid DFT                              ... on
   Exchange mixing (TD-DFT)             ...  0.250
   GGA exch. scaling (TD-DFT)           ...  0.750
   GGA corr. scaling (TD-DFT)           ...  1.000

Building densities             ... done
Calculating rho(r) on the grid ... done
Building xc-kernel on the grid ... done
                    *** TD-DFT CALCULATION INITIALIZED ***

------------------------
DAVIDSON-DIAGONALIZATION
------------------------

Dimension of the eigenvalue problem            ...    945
Number of roots to be determined               ...      1
Maximum size of the expansion space            ...     10
Maximum number of iterations                   ...    100
Convergence tolerance for the residual         ...    2.500e-07
Convergence tolerance for the energies         ...    2.500e-07
Orthogonality tolerance                        ...    1.000e-14
Level Shift                                    ...    0.000e+00
Constructing the preconditioner                ... o.k.
Building the initial guess                     ... o.k.
Number of trial vectors determined             ...     10


                       ****Iteration    0****

   Memory handling for direct AO based CIS:
   Memory per vector needed      ...     1 MB
   Memory needed                 ...     1 MB
   Memory available              ...  3000 MB
   Number of vectors per batch   ...  3000
   Number of batches             ...     1
   Time for densities:            0.001
   Time for RI-J (Direct):        0.015
   Time for K (COSX):             0.055
   Time for XC-Integration:       0.015
   Time for Sigma-Completion:     0.000
   Size of expansion space: 3
   Lowest Energy          :     0.020454976900
   Maximum Energy change  :     0.020454976900 (vector 0)
   Maximum residual norm  :     0.003880197737

                       ****Iteration    1****
   Time for densities:            0.000
   Time for RI-J (Direct):        0.012
   Time for K (COSX):             0.049
   Time for XC-Integration:       0.006
   Time for Sigma-Completion:     0.000
   Size of expansion space: 4
   Lowest Energy          :     0.017787989076
   Maximum Energy change  :     0.002666987824 (vector 0)
   Maximum residual norm  :     0.000292753437

                       ****Iteration    2****
   Time for densities:            0.000
   Time for RI-J (Direct):        0.012
   Time for K (COSX):             0.049
   Time for XC-Integration:       0.006
   Time for Sigma-Completion:     0.000
   Size of expansion space: 5
   Lowest Energy          :     0.017579694534
   Maximum Energy change  :     0.000208294543 (vector 0)
   Maximum residual norm  :     0.000007784727

                       ****Iteration    3****
   Time for densities:            0.000
   Time for RI-J (Direct):        0.012
   Time for K (COSX):             0.050
   Time for XC-Integration:       0.006
   Time for Sigma-Completion:     0.000
   Size of expansion space: 6
   Lowest Energy          :     0.017574033634
   Maximum Energy change  :     0.000005660899 (vector 0)
   Maximum residual norm  :     0.000000232403

      *** CONVERGENCE OF RESIDUAL NORM REACHED ***

Storing the converged CI vectors               ... ox_es1_G_orca0004.cis1

                 *** DAVIDSON DONE ***

Total time for solving the CIS problem:     0.293sec

------------------------------------
TD-DFT/TDA EXCITED STATES (SINGLETS)
------------------------------------

the weight of the individual excitations are printed if larger than 1.0e-02

STATE  1:  E=   0.017574 au      0.478 eV     3857.1 cm**-1 <S**2> =   0.000000
    10a ->  12a  :     0.981023 (c= -0.99046624)
    11a ->  12a  :     0.014888 (c= -0.12201592)


-----------------------------
TD-DFT/TDA-EXCITATION SPECTRA
-----------------------------

Center of mass = ( -1.0348, -0.0775, -0.0289)
Calculating the Dipole integrals                  ... done
Transforming integrals                            ... done
Calculating the Linear Momentum integrals         ... done
Transforming integrals                            ... done
Calculating angular momentum integrals            ... done
Transforming integrals                            ... done

-----------------------------------------------------------------------------
         ABSORPTION SPECTRUM VIA TRANSITION ELECTRIC DIPOLE MOMENTS
-----------------------------------------------------------------------------
State   Energy    Wavelength  fosc         T2        TX        TY        TZ  
        (cm-1)      (nm)                 (au**2)    (au)      (au)      (au) 
-----------------------------------------------------------------------------
   1    3857.1   2592.7   0.000068315   0.00583   0.02450  -0.03890   0.06097

-----------------------------------------------------------------------------
         ABSORPTION SPECTRUM VIA TRANSITION VELOCITY DIPOLE MOMENTS
-----------------------------------------------------------------------------
State   Energy    Wavelength   fosc        P2         PX        PY        PZ  
        (cm-1)      (nm)                 (au**2)     (au)      (au)      (au) 
-----------------------------------------------------------------------------
   1    3857.1   2592.7   0.105498798   0.00278  -0.00146  -0.05154   0.01109

-------------------------------------------------------------------
                             CD SPECTRUM
-------------------------------------------------------------------
State  Energy     Wavelength     R         MX        MY        MZ   
       (cm-1)       (nm)     (1e40*cgs)   (au)      (au)      (au)  
-------------------------------------------------------------------
   1    3857.1   2592.7     -5.30178  -0.24067   0.28289   0.09272

-------------------------------------------------------------------
         CD SPECTRUM VIA TRANSITION VELOCITY DIPOLE MOMENTS        
-------------------------------------------------------------------
State  Energy     Wavelength     R         MX        MY        MZ   
       (cm-1)       (nm)     (1e40*cgs)   (au)      (au)      (au)  
-------------------------------------------------------------------
   1    3857.1   2592.7    -354.08873  -0.24067   0.28289   0.09272

Total run time:        0.531 sec

           *** ORCA-CIS/TD-DFT FINISHED WITHOUT ERROR ***

Maximum memory used throughout the entire CIS-calculation: 49.4 MB

-----------------------
CIS/TD-DFT TOTAL ENERGY
-----------------------

    E(SCF)  =   -153.460386468 Eh
    DE(CIS) =      0.017574034 Eh (Root  1)
    ----------------------------- ---------
    E(tot)  =   -153.442812434 Eh



-------------------------------------------------------------------------------
                          DFT DISPERSION CORRECTION                            
                                                                               
                              DFTD3 V3.1  Rev 1                                
                          USING Becke-Johnson damping                          
-------------------------------------------------------------------------------
The PBE0 functional is recognized
Active option DFTDOPT                   ...         4   

molecular C6(AA) [au] = 395.118990 


            DFT-D V3
 parameters
 s6 scaling factor         :     1.0000 
 a1 scaling factor         :     0.4145 
 s8 scaling factor         :     1.2177 
 a2 scaling factor         :     4.8593 
 ad hoc parameters k1-k3   :    16.0000     1.3333    -4.0000 

 Edisp/kcal,au: -1.610398434108  -0.002566332986 
 E6   /kcal   :  -1.050035636 
 E8   /kcal   :  -0.560362798 
 % E8         :  34.796531479 

-------------------------   ----------------
Dispersion correction           -0.002566333
-------------------------   ----------------


-------------------------   --------------------
FINAL SINGLE POINT ENERGY      -153.445378767030
-------------------------   --------------------



           ************************************************************
           *        Program running with 8 parallel MPI-processes     *
           *              working on a common directory               *
           ************************************************************
------------------------------------------------------------------------------
                         ORCA SCF GRADIENT CALCULATION
------------------------------------------------------------------------------


------------------------
TD-DFT GRADIENT XC SETUP
------------------------

Building densities                     ... done
Calculating rho(r) on the grid         ... done
Building xc-kernel on the grid         ... done
Building xc 3rd derivative on the grid      ... done
                *** TD-DFT GRADIENT CALCULATION INITIALIZED ***

-------------------
TD-DFT/TDA GRADIENT
-------------------

Reference wavefunction             ... RHF
State of interest                  ... 1
Basis dimension                    ... 117
DFT-XC contribution needed         ... YES
RI-approximation                   ... ON
CIS-vectors being read from        ... ox_es1_G_orca0004.cis

 => Number of Vectors found: 1
 => Orbital Window: 3...11 -> 12...116

Reading the CIS file                     ... done
Norm of the CI vector                    ... 1.000000000
Making the CIS (pseudo)densities         ... done
Making operators G(D) and Q(T)           ... done
Transforming the Fock operators          ... done
Making the frozen-core relaxed density   ... done
Constructing the G(H) operator           ... done
Transforming the G(H) operator           ... done
Calculating the CIS Lagrangian           ... done
Solving the Z-vector equations           ... done
Finalizing the relaxed density           ... done
Storing the relaxed density              ... done
Constructing the G(Z) operator           ... done
Transforming the G(Z) operator           ... done
Making the W-matrix                      ... done
Finalizing the W-matrix                  ... done
Transforming the W-matrix                ... done
Nuclear repulsion gradient               ... done
One-Electron gradient                    ... done
Dispersion correction                    ... done
Prescreening matrices                    ... done
COSX-gradient                            ... done
Coulomb gradient (RI)                    ... done
Exchange-Correlation gradient            ... done

                 ---------------------------
                 EXCITED STATE GRADIENT DONE
                 ---------------------------

------------------
CARTESIAN GRADIENT
------------------

   1   O   :    0.039309220   -0.113004181   -0.002591202
   2   C   :   -0.064207047   -0.008237754   -0.108374390
   3   C   :    0.004419310    0.018253443   -0.040716132
   4   H   :   -0.035081457    0.045500891    0.018888913
   5   H   :    0.016803616    0.061434505    0.085513180
   6   H   :    0.002144890    0.007138947    0.014035555
   7   H   :    0.036644566   -0.011089700    0.033192576

Difference to translation invariance:
           :    0.0000330984   -0.0000038502   -0.0000515000

Difference to rotation invariance:
           :    0.0000088709   -0.0000554778    0.0007747405

Norm of the cartesian gradient     ...    0.2238633937
RMS gradient                       ...    0.0488509975
MAX gradient                       ...    0.1130041813

------------------------------------------------------------------------------
                  RELAXED CIS/TDA DENSITY POPULATION ANALYSIS
                                   IROOT 1
------------------------------------------------------------------------------
------------------------------------------------------------------------------
                           ORCA POPULATION ANALYSIS
------------------------------------------------------------------------------
Input electron density              ... ox_es1_G_orca0004.cisp
BaseName (.gbw .S,...)              ... ox_es1_G_orca0004

                    ********************************
                    * MULLIKEN POPULATION ANALYSIS *
                    ********************************

-----------------------
MULLIKEN ATOMIC CHARGES
-----------------------
   0 O :   -0.340654
   1 C :   -0.075541
   2 C :   -0.257402
   3 H :    0.183681
   4 H :    0.159582
   5 H :    0.160637
   6 H :    0.169697
Sum of atomic charges:   -0.0000000

--------------------------------
MULLIKEN REDUCED ORBITAL CHARGES
--------------------------------
  0 O s       :     3.885665  s :     3.885665
      pz      :     2.075916  p :     4.423431
      px      :     1.310035
      py      :     1.037481
      dz2     :     0.003078  d :     0.030019
      dxz     :     0.001276
      dyz     :     0.007397
      dx2y2   :     0.008262
      dxy     :     0.010006
      f0      :     0.000230  f :     0.001538
      f+1     :     0.000111
      f-1     :     0.000249
      f+2     :     0.000135
      f-2     :     0.000125
      f+3     :     0.000335
      f-3     :     0.000354
  1 C s       :     3.178963  s :     3.178963
      pz      :     1.042336  p :     2.730623
      px      :     0.880318
      py      :     0.807969
      dz2     :     0.010920  d :     0.151587
      dxz     :     0.028183
      dyz     :     0.051701
      dx2y2   :     0.039048
      dxy     :     0.021735
      f0      :     0.002344  f :     0.014368
      f+1     :     0.001313
      f-1     :     0.000565
      f+2     :     0.001538
      f-2     :     0.002609
      f+3     :     0.001940
      f-3     :     0.004059
  2 C s       :     3.339595  s :     3.339595
      pz      :     1.062880  p :     2.874287
      px      :     0.887259
      py      :     0.924148
      dz2     :     0.004617  d :     0.039765
      dxz     :     0.021616
      dyz     :     0.001747
      dx2y2   :     0.004664
      dxy     :     0.007122
      f0      :     0.000284  f :     0.003755
      f+1     :     0.001003
      f-1     :     0.000105
      f+2     :     0.000729
      f-2     :     0.000062
      f+3     :     0.000748
      f-3     :     0.000825
  3 H s       :     0.791450  s :     0.791450
      pz      :     0.010576  p :     0.024869
      px      :     0.006858
      py      :     0.007436
  4 H s       :     0.811360  s :     0.811360
      pz      :     0.011797  p :     0.029058
      px      :     0.008686
      py      :     0.008575
  5 H s       :     0.815584  s :     0.815584
      pz      :     0.010733  p :     0.023779
      px      :     0.007214
      py      :     0.005832
  6 H s       :     0.810250  s :     0.810250
      pz      :     0.009487  p :     0.020053
      px      :     0.005952
      py      :     0.004614


                     *******************************
                     * LOEWDIN POPULATION ANALYSIS *
                     *******************************

----------------------
LOEWDIN ATOMIC CHARGES
----------------------
   0 O :   -0.000993
   1 C :   -0.467805
   2 C :   -0.123364
   3 H :    0.199614
   4 H :    0.135283
   5 H :    0.111928
   6 H :    0.145336

-------------------------------
LOEWDIN REDUCED ORBITAL CHARGES
-------------------------------
  0 O s       :     3.501199  s :     3.501199
      pz      :     1.967894  p :     4.415300
      px      :     1.293991
      py      :     1.153415
      dz2     :     0.006980  d :     0.078997
      dxz     :     0.004740
      dyz     :     0.026391
      dx2y2   :     0.021560
      dxy     :     0.019326
      f0      :     0.000857  f :     0.005496
      f+1     :     0.000212
      f-1     :     0.000601
      f+2     :     0.000547
      f-2     :     0.000894
      f+3     :     0.001050
      f-3     :     0.001335
  1 C s       :     2.809186  s :     2.809186
      pz      :     1.051756  p :     2.978466
      px      :     1.003946
      py      :     0.922765
      dz2     :     0.072691  d :     0.582883
      dxz     :     0.097357
      dyz     :     0.144810
      dx2y2   :     0.146978
      dxy     :     0.121048
      f0      :     0.016382  f :     0.097269
      f+1     :     0.007917
      f-1     :     0.006385
      f+2     :     0.008858
      f-2     :     0.018176
      f+3     :     0.016247
      f-3     :     0.023304
  2 C s       :     2.955878  s :     2.955878
      pz      :     1.083444  p :     2.956735
      px      :     1.010100
      py      :     0.863190
      dz2     :     0.025300  d :     0.192584
      dxz     :     0.104670
      dyz     :     0.003620
      dx2y2   :     0.030961
      dxy     :     0.028033
      f0      :     0.002384  f :     0.018168
      f+1     :     0.003161
      f-1     :     0.000483
      f+2     :     0.003836
      f-2     :     0.000666
      f+3     :     0.004023
      f-3     :     0.003615
  3 H s       :     0.738372  s :     0.738372
      pz      :     0.028040  p :     0.062014
      px      :     0.016088
      py      :     0.017886
  4 H s       :     0.777807  s :     0.777807
      pz      :     0.037044  p :     0.086910
      px      :     0.025500
      py      :     0.024366
  5 H s       :     0.815353  s :     0.815353
      pz      :     0.034328  p :     0.072719
      px      :     0.020659
      py      :     0.017732
  6 H s       :     0.798735  s :     0.798735
      pz      :     0.027882  p :     0.055929
      px      :     0.015455
      py      :     0.012592


                      *****************************
                      * MAYER POPULATION ANALYSIS *
                      *****************************

  NA   - Mulliken gross atomic population
  ZA   - Total nuclear charge
  QA   - Mulliken gross atomic charge
  VA   - Mayer's total valence
  BVA  - Mayer's bonded valence
  FA   - Mayer's free valence

  ATOM       NA         ZA         QA         VA         BVA        FA
  0 O      8.3407     8.0000    -0.3407     1.4944     1.2484     0.2460
  1 C      6.0755     6.0000    -0.0755     4.0763     4.0199     0.0564
  2 C      6.2574     6.0000    -0.2574     3.7864     3.1409     0.6455
  3 H      0.8163     1.0000     0.1837     0.9603     0.9353     0.0249
  4 H      0.8404     1.0000     0.1596     0.9638     0.9470     0.0168
  5 H      0.8394     1.0000     0.1606     0.9598     0.9538     0.0060
  6 H      0.8303     1.0000     0.1697     0.9580     0.9492     0.0088

  Mayer bond orders larger than 0.100000
B(  0-O ,  1-C ) :   1.0916 B(  0-O ,  2-C ) :   0.1286 B(  1-C ,  2-C ) :   1.1062 
B(  1-C ,  3-H ) :   0.8941 B(  1-C ,  4-H ) :   0.9185 B(  2-C ,  5-H ) :   0.9456 
B(  2-C ,  6-H ) :   0.9375 


-------
TIMINGS
-------

Total TD-DFT gradient time         ...        5.937 sec

Fock matrix formation       ....       0.835 sec  ( 14.1%)
  Coulomb formation         ....       0.683 sec  ( 81.8% of F)
  RI-J                      ....       0.288 sec  ( 34.5% of F)
  Chain of spheres X        ....       0.394 sec  ( 47.2% of F)
  XC integration            ....       0.152 sec  ( 18.2% of F)
Z-vector equation           ....       2.256 sec  ( 38.0%)
One electron gradient       ....       0.031 sec  (  0.5%)
Prescreening matrices       ....       0.151 sec  (  2.5%)
RI-J Coulomb gradient       ....       0.245 sec  (  4.1%)
COSX gradient               ....       0.354 sec  (  6.0%)
XC gradient                 ....       1.763 sec  ( 29.7%)

Maximum memory used throughout the entire SCFGRAD-calculation: 130.2 MB

                            ***************************************
                            *     ORCA property calculations      *
                            ***************************************

                                    ---------------------
                                    Active property flags
                                    ---------------------
   (+) Dipole Moment


------------------------------------------------------------------------------
                       ORCA ELECTRIC PROPERTIES CALCULATION
------------------------------------------------------------------------------

Dipole Moment Calculation                       ... on
Quadrupole Moment Calculation                   ... off
Polarizability Calculation                      ... off
GBWName                                         ... ox_es1_G_orca0004.gbw
Electron density                                ... ox_es1_G_orca0004.scfp
The origin for moment calculation is the CENTER OF MASS  = (-1.034789, -0.077464 -0.028913)

-------------
DIPOLE MOMENT
-------------
                                X             Y             Z
Electronic contribution:     -1.23858       1.24479      -0.10151
Nuclear contribution   :      2.11349      -2.18605       0.13596
                        -----------------------------------------
Total Dipole Moment    :      0.87491      -0.94126       0.03445
                        -----------------------------------------
Magnitude (a.u.)       :      1.28555
Magnitude (Debye)      :      3.26760



--------------------
Rotational spectrum 
--------------------
 
Rotational constants in cm-1:     1.829624     0.310074     0.297505 
Rotational constants in MHz : 54850.758310  9295.799081  8918.966877 

 Dipole components along the rotational axes: 
x,y,z [a.u.] :     1.198772    -0.452161    -0.105462 
x,y,z [Debye]:     3.047036    -1.149302    -0.268063 

 

                        *** CIS RELAXED DENSITY ***

------------------------------------------------------------------------------
                       ORCA ELECTRIC PROPERTIES CALCULATION
------------------------------------------------------------------------------

Dipole Moment Calculation                       ... on
Quadrupole Moment Calculation                   ... off
Polarizability Calculation                      ... off
GBWName                                         ... ox_es1_G_orca0004.gbw
Electron density                                ... ox_es1_G_orca0004.cisp
The origin for moment calculation is the CENTER OF MASS  = (-1.034789, -0.077464 -0.028913)

-------------
DIPOLE MOMENT
-------------
                                X             Y             Z
Electronic contribution:     -1.37311       1.41878      -0.17062
Nuclear contribution   :      2.11349      -2.18605       0.13596
                        -----------------------------------------
Total Dipole Moment    :      0.74039      -0.76727      -0.03466
                        -----------------------------------------
Magnitude (a.u.)       :      1.06681
Magnitude (Debye)      :      2.71161



--------------------
Rotational spectrum 
--------------------
 
Rotational constants in cm-1:     1.829624     0.310074     0.297505 
Rotational constants in MHz : 54850.758310  9295.799081  8918.966877 

 Dipole components along the rotational axes: 
x,y,z [a.u.] :     1.002285    -0.364694    -0.022469 
x,y,z [Debye]:     2.547606    -0.926979    -0.057111 

 

Timings for individual modules:

Sum of individual times         ...        8.240 sec (=   0.137 min)
GTO integral calculation        ...        0.268 sec (=   0.004 min)   3.2 %
SCF iterations                  ...        1.144 sec (=   0.019 min)  13.9 %
CIS module                      ...        0.720 sec (=   0.012 min)   8.7 %
SCF Gradient evaluation         ...        6.108 sec (=   0.102 min)  74.1 %
                             ****ORCA TERMINATED NORMALLY****
TOTAL RUN TIME: 0 days 0 hours 0 minutes 8 seconds 549 msec
