
                                 *****************
                                 * O   R   C   A *
                                 *****************

                                            #,                                       
                                            ###                                      
                                            ####                                     
                                            #####                                    
                                            ######                                   
                                           ########,                                 
                                     ,,################,,,,,                         
                               ,,#################################,,                 
                          ,,##########################################,,             
                       ,#########################################, ''#####,          
                    ,#############################################,,   '####,        
                  ,##################################################,,,,####,       
                ,###########''''           ''''###############################       
              ,#####''   ,,,,##########,,,,          '''####'''          '####       
            ,##' ,,,,###########################,,,                        '##       
           ' ,,###''''                  '''############,,,                           
         ,,##''                                '''############,,,,        ,,,,,,###''
      ,#''                                            '''#######################'''  
     '                                                          ''''####''''         
             ,#######,   #######,   ,#######,      ##                                
            ,#'     '#,  ##    ##  ,#'     '#,    #''#        ######   ,####,        
            ##       ##  ##   ,#'  ##            #'  '#       #        #'  '#        
            ##       ##  #######   ##           ,######,      #####,   #    #        
            '#,     ,#'  ##    ##  '#,     ,#' ,#      #,         ##   #,  ,#        
             '#######'   ##     ##  '#######'  #'      '#     #####' # '####'        



                  #######################################################
                  #                        -***-                        #
                  #          Department of theory and spectroscopy      #
                  #    Directorship and core code : Frank Neese         #
                  #        Max Planck Institute fuer Kohlenforschung    #
                  #                Kaiser Wilhelm Platz 1               #
                  #                 D-45470 Muelheim/Ruhr               #
                  #                      Germany                        #
                  #                                                     #
                  #                  All rights reserved                #
                  #                        -***-                        #
                  #######################################################


                         Program Version 5.0.2 -  RELEASE  -


 With contributions from (in alphabetic order):
   Daniel Aravena         : Magnetic Suceptibility
   Michael Atanasov       : Ab Initio Ligand Field Theory (pilot matlab implementation)
   Alexander A. Auer      : GIAO ZORA, VPT2 properties, NMR spectrum
   Ute Becker             : Parallelization
   Giovanni Bistoni       : ED, misc. LED, open-shell LED, HFLD
   Martin Brehm           : Molecular dynamics
   Dmytro Bykov           : SCF Hessian
   Vijay G. Chilkuri      : MRCI spin determinant printing, contributions to CSF-ICE
   Dipayan Datta          : RHF DLPNO-CCSD density
   Achintya Kumar Dutta   : EOM-CC, STEOM-CC
   Dmitry Ganyushin       : Spin-Orbit,Spin-Spin,Magnetic field MRCI
   Miquel Garcia          : C-PCM and meta-GGA Hessian, CC/C-PCM, Gaussian charge scheme
   Yang Guo               : DLPNO-NEVPT2, F12-NEVPT2, CIM, IAO-localization
   Andreas Hansen         : Spin unrestricted coupled pair/coupled cluster methods
   Benjamin Helmich-Paris : MC-RPA, TRAH-SCF, COSX integrals
   Lee Huntington         : MR-EOM, pCC
   Robert Izsak           : Overlap fitted RIJCOSX, COSX-SCS-MP3, EOM
   Marcus Kettner         : VPT2
   Christian Kollmar      : KDIIS, OOCD, Brueckner-CCSD(T), CCSD density, CASPT2, CASPT2-K
   Simone Kossmann        : Meta GGA functionals, TD-DFT gradient, OOMP2, MP2 Hessian
   Martin Krupicka        : Initial AUTO-CI
   Lucas Lang             : DCDCAS
   Marvin Lechner         : AUTO-CI (C++ implementation), FIC-MRCC
   Dagmar Lenk            : GEPOL surface, SMD
   Dimitrios Liakos       : Extrapolation schemes; Compound Job, initial MDCI parallelization
   Dimitrios Manganas     : Further ROCIS development; embedding schemes
   Dimitrios Pantazis     : SARC Basis sets
   Anastasios Papadopoulos: AUTO-CI, single reference methods and gradients
   Taras Petrenko         : DFT Hessian,TD-DFT gradient, ASA, ECA, R-Raman, ABS, FL, XAS/XES, NRVS
   Peter Pinski           : DLPNO-MP2, DLPNO-MP2 Gradient
   Christoph Reimann      : Effective Core Potentials
   Marius Retegan         : Local ZFS, SOC
   Christoph Riplinger    : Optimizer, TS searches, QM/MM, DLPNO-CCSD(T), (RO)-DLPNO pert. Triples
   Tobias Risthaus        : Range-separated hybrids, TD-DFT gradient, RPA, STAB
   Michael Roemelt        : Original ROCIS implementation
   Masaaki Saitow         : Open-shell DLPNO-CCSD energy and density
   Barbara Sandhoefer     : DKH picture change effects
   Avijit Sen             : IP-ROCIS
   Kantharuban Sivalingam : CASSCF convergence, NEVPT2, FIC-MRCI
   Bernardo de Souza      : ESD, SOC TD-DFT
   Georgi Stoychev        : AutoAux, RI-MP2 NMR, DLPNO-MP2 response
   Willem Van den Heuvel  : Paramagnetic NMR
   Boris Wezisla          : Elementary symmetry handling
   Frank Wennmohs         : Technical directorship


 We gratefully acknowledge several colleagues who have allowed us to
 interface, adapt or use parts of their codes:
   Stefan Grimme, W. Hujo, H. Kruse, P. Pracht,  : VdW corrections, initial TS optimization,
                  C. Bannwarth, S. Ehlert          DFT functionals, gCP, sTDA/sTD-DF
   Ed Valeev, F. Pavosevic, A. Kumar             : LibInt (2-el integral package), F12 methods
   Garnet Chan, S. Sharma, J. Yang, R. Olivares  : DMRG
   Ulf Ekstrom                                   : XCFun DFT Library
   Mihaly Kallay                                 : mrcc  (arbitrary order and MRCC methods)
   Jiri Pittner, Ondrej Demel                    : Mk-CCSD
   Frank Weinhold                                : gennbo (NPA and NBO analysis)
   Christopher J. Cramer and Donald G. Truhlar   : smd solvation model
   Lars Goerigk                                  : TD-DFT with DH, B97 family of functionals
   V. Asgeirsson, H. Jonsson                     : NEB implementation
   FAccTs GmbH                                   : IRC, NEB, NEB-TS, DLPNO-Multilevel, CI-OPT
                                                   MM, QMMM, 2- and 3-layer-ONIOM, Crystal-QMMM,
                                                   LR-CPCM, SF, NACMEs, symmetry and pop. for TD-DFT,
                                                   nearIR, NL-DFT gradient (VV10), updates on ESD,
                                                   ML-optimized integration grids
   S Lehtola, MJT Oliveira, MAL Marques          : LibXC Library
   Liviu Ungur et al                             : ANISO software


 Your calculation uses the libint2 library for the computation of 2-el integrals
 For citations please refer to: http://libint.valeyev.net

 Your ORCA version has been built with support for libXC version: 5.1.0
 For citations please refer to: https://tddft.org/programs/libxc/

 This ORCA versions uses:
   CBLAS   interface :  Fast vector & matrix operations
   LAPACKE interface :  Fast linear algebra routines
   SCALAPACK package :  Parallel linear algebra routines
   Shared memory     :  Shared parallel matrices
   BLAS/LAPACK       :  OpenBLAS 0.3.15  USE64BITINT DYNAMIC_ARCH NO_AFFINITY SkylakeX SINGLE_THREADED
        Core in use  :  SkylakeX
   Copyright (c) 2011-2014, The OpenBLAS Project


Your calculation utilizes the atom-pairwise dispersion correction
with the Becke-Johnson damping scheme (D3BJ)
Cite in your paper:
S.Grimme, S.Ehrlich, L.Goerigk, J Comput Chem, (2011), 32, 1456–1465 
S.Grimme, J.Antony, S.Ehrlich and H.Krieg, J.Chem.Phys., 132, (2010), 154104 
   

================================================================================

----- Orbital basis set information -----
Your calculation utilizes the basis: def2-TZVP
   F. Weigend and R. Ahlrichs, Phys. Chem. Chem. Phys. 7, 3297 (2005).

----- AuxJ basis set information -----
Your calculation utilizes the auxiliary basis: def2/J
   F. Weigend, Phys. Chem. Chem. Phys. 8, 1057 (2006).

================================================================================
                                        WARNINGS
                       Please study these warnings very carefully!
================================================================================

INFO   : Checking CIS options ...

WARNING: CIS/ROCIS methods need fully converged wavefunctions
  ===> : Setting SCFConvForced true
         You can overwrite this default with %scf ConvForced false 


INFO   : the flag for use of the SHARK integral package has been found!

================================================================================
                                       INPUT FILE
================================================================================
NAME = ox_es1_C_orca0000.inp
|  1> ! engrad PBE0 D3BJ def2-TZVP  
|  2> %pal nprocs 8 end
|  3> %maxcore 3000
|  4> 
|  5> %tddft
|  6>   nroots 1
|  7>   tda true
|  8>   Iroot 1
|  9>   end 
| 10> *xyz 0 1 
| 11> O   -0.5305756929175096 1.0358662647002923 -0.05709122020413681
| 12> C   -0.6933518464970363 -0.4214729579886196 0.05745147170727597
| 13> C   0.7019665286797279 -0.4838527442827509 -0.0037998241324467283
| 14> H   -1.2213820388901715 -0.6357816454035848 0.8914156360250105
| 15> H   -1.309530686377666 -0.674446898766428 -0.9058945442151969
| 16> H   1.3036034174247428 -0.6593011392460592 -0.8598758776866517
| 17> H   1.2824136424160617 -0.6827749889387956 0.9391547181038161
| 18> *
| 19> 
| 20>                          ****END OF INPUT****
================================================================================

                     *******************************
                     * Energy+Gradient Calculation *
                     *******************************

---------------------------------
CARTESIAN COORDINATES (ANGSTROEM)
---------------------------------
  O     -0.530576    1.035866   -0.057091
  C     -0.693352   -0.421473    0.057451
  C      0.701967   -0.483853   -0.003800
  H     -1.221382   -0.635782    0.891416
  H     -1.309531   -0.674447   -0.905895
  H      1.303603   -0.659301   -0.859876
  H      1.282414   -0.682775    0.939155

----------------------------
CARTESIAN COORDINATES (A.U.)
----------------------------
  NO LB      ZA    FRAG     MASS         X           Y           Z
   0 O     8.0000    0    15.999   -1.002643    1.957504   -0.107887
   1 C     6.0000    0    12.011   -1.310245   -0.796468    0.108568
   2 C     6.0000    0    12.011    1.326524   -0.914349   -0.007181
   3 H     1.0000    0     1.008   -2.308078   -1.201453    1.684531
   4 H     1.0000    0     1.008   -2.474654   -1.274520   -1.711893
   5 H     1.0000    0     1.008    2.463453   -1.245899   -1.624930
   6 H     1.0000    0     1.008    2.423411   -1.290258    1.774745

--------------------------------
INTERNAL COORDINATES (ANGSTROEM)
--------------------------------
 O      0   0   0     0.000000000000     0.00000000     0.00000000
 C      1   0   0     1.470868353875     0.00000000     0.00000000
 C      2   1   0     1.398054479298    86.00592335     0.00000000
 H      2   1   3     1.010069465406   109.41270777   123.93960108
 H      2   1   3     1.171199267342   102.01559148   241.54447908
 H      3   2   1     1.060950184817   127.49513027   264.15130115
 H      3   2   1     1.125012079930   119.08491198   104.42862723

---------------------------
INTERNAL COORDINATES (A.U.)
---------------------------
 O      0   0   0     0.000000000000     0.00000000     0.00000000
 C      1   0   0     2.779538367876     0.00000000     0.00000000
 C      2   1   0     2.641940086176    86.00592335     0.00000000
 H      2   1   3     1.908754665854   109.41270777   123.93960108
 H      2   1   3     2.213245863526   102.01559148   241.54447908
 H      3   2   1     2.004905291037   127.49513027   264.15130115
 H      3   2   1     2.125964728420   119.08491198   104.42862723

---------------------
BASIS SET INFORMATION
---------------------
There are 3 groups of distinct atoms

 Group   1 Type O   : 11s6p2d1f contracted to 5s3p2d1f pattern {62111/411/11/1}
 Group   2 Type C   : 11s6p2d1f contracted to 5s3p2d1f pattern {62111/411/11/1}
 Group   3 Type H   : 5s1p contracted to 3s1p pattern {311/1}

Atom   0O    basis set group =>   1
Atom   1C    basis set group =>   2
Atom   2C    basis set group =>   2
Atom   3H    basis set group =>   3
Atom   4H    basis set group =>   3
Atom   5H    basis set group =>   3
Atom   6H    basis set group =>   3
---------------------------------
AUXILIARY/J BASIS SET INFORMATION
---------------------------------
There are 3 groups of distinct atoms

 Group   1 Type O   : 12s5p4d2f1g contracted to 6s4p3d1f1g pattern {711111/2111/211/2/1}
 Group   2 Type C   : 12s5p4d2f1g contracted to 6s4p3d1f1g pattern {711111/2111/211/2/1}
 Group   3 Type H   : 5s2p1d contracted to 3s1p1d pattern {311/2/1}

Atom   0O    basis set group =>   1
Atom   1C    basis set group =>   2
Atom   2C    basis set group =>   2
Atom   3H    basis set group =>   3
Atom   4H    basis set group =>   3
Atom   5H    basis set group =>   3
Atom   6H    basis set group =>   3

Checking for AutoStart:
The File: ox_es1_C_orca0000.gbw exists
Trying to determine its content:
     ... Fine, the file contains calculation information
     ... Fine, the calculation information was read
     ... Fine, the file contains a basis set
     ... Fine, the basis set was read
     ... Fine, the file contains a geometry
     ... Fine, the geometry was read
     ... Fine, the file contains a set of orbitals
     ... Fine, the orbitals can be read
     => possible old guess file was deleted
     => GBW file was renamed to GES file
     => GES file is set as startup file
     => Guess is set to MORead
     ... now leaving AutoStart



           ************************************************************
           *        Program running with 8 parallel MPI-processes     *
           *              working on a common directory               *
           ************************************************************
------------------------------------------------------------------------------
                           ORCA GTO INTEGRAL CALCULATION
                           -- RI-GTO INTEGRALS CHOSEN --
------------------------------------------------------------------------------
------------------------------------------------------------------------------
                   ___                                                        
                  /   \      - P O W E R E D   B Y -                         
                 /     \                                                     
                 |  |  |   _    _      __       _____    __    __             
                 |  |  |  | |  | |    /  \     |  _  \  |  |  /  |          
                  \  \/   | |  | |   /    \    | | | |  |  | /  /          
                 / \  \   | |__| |  /  /\  \   | |_| |  |  |/  /          
                |  |  |   |  __  | /  /__\  \  |    /   |      \           
                |  |  |   | |  | | |   __   |  |    \   |  |\   \          
                \     /   | |  | | |  |  |  |  | |\  \  |  | \   \       
                 \___/    |_|  |_| |__|  |__|  |_| \__\ |__|  \__/        
                                                                              
                      - O R C A' S   B I G   F R I E N D -                    
                                      &                                       
                       - I N T E G R A L  F E E D E R -                       
                                                                              
 v1 FN, 2020, v2 2021                                                         
------------------------------------------------------------------------------


Reading SHARK input file ox_es1_C_orca0000.SHARKINP.tmp ... ok
----------------------
SHARK INTEGRAL PACKAGE
----------------------

Number of atoms                             ...      7
Number of basis functions                   ...    117
Number of shells                            ...     49
Maximum angular momentum                    ...      3
Integral batch strategy                     ... SHARK/LIBINT Hybrid
RI-J (if used) integral strategy            ... SPLIT-RIJ (Revised 2003 algorithm where possible)
Printlevel                                  ...      1
Contraction scheme used                     ... SEGMENTED contraction
Coulomb Range Separation                    ... NOT USED
Exchange Range Separation                   ... NOT USED
Finite Nucleus Model                        ... NOT USED
Auxiliary Coulomb fitting basis             ... AVAILABLE
   # of basis functions in Aux-J            ...    191
   # of shells in Aux-J                     ...     65
   Maximum angular momentum in Aux-J        ...      4
Auxiliary J/K fitting basis                 ... NOT available
Auxiliary Correlation fitting basis         ... NOT available
Auxiliary 'external' fitting basis          ... NOT available
Integral threshold                          ...     2.500000e-11
Primitive cut-off                           ...     2.500000e-12
Primitive pair pre-selection threshold      ...     2.500000e-12

Calculating pre-screening integrals         ... done (  0.0 sec) Dimension = 49
Organizing shell pair data                  ... done (  0.0 sec)
Shell pair information
Total number of shell pairs                 ...      1225
Shell pairs after pre-screening             ...      1217
Total number of primitive shell pairs       ...      3648
Primitive shell pairs kept                  ...      3105
          la=0 lb=0:    370 shell pairs
          la=1 lb=0:    351 shell pairs
          la=1 lb=1:     91 shell pairs
          la=2 lb=0:    162 shell pairs
          la=2 lb=1:     78 shell pairs
          la=2 lb=2:     21 shell pairs
          la=3 lb=0:     81 shell pairs
          la=3 lb=1:     39 shell pairs
          la=3 lb=2:     18 shell pairs
          la=3 lb=3:      6 shell pairs

Calculating one electron integrals          ... done (  0.0 sec)
Calculating RI/J V-Matrix + Cholesky decomp.... done (  0.0 sec)
Calculating Nuclear repulsion               ... done (  0.0 sec) ENN=     70.016044217573 Eh

SHARK setup successfully completed in   0.1 seconds

Maximum memory used throughout the entire GTOINT-calculation: 14.9 MB


           ************************************************************
           *        Program running with 8 parallel MPI-processes     *
           *              working on a common directory               *
           ************************************************************
-------------------------------------------------------------------------------
                                 ORCA SCF
-------------------------------------------------------------------------------

------------
SCF SETTINGS
------------
Hamiltonian:
 Density Functional     Method          .... DFT(GTOs)
 Exchange Functional    Exchange        .... PBE
   PBE kappa parameter   XKappa         ....  0.804000
   PBE mue parameter    XMuePBE         ....  0.219520
 Correlation Functional Correlation     .... PBE
   PBE beta parameter  CBetaPBE         ....  0.066725
 LDA part of GGA corr.  LDAOpt          .... PW91-LDA
 Gradients option       PostSCFGGA      .... off
 Hybrid DFT is turned on
   Fraction HF Exchange ScalHFX         ....  0.250000
   Scaling of DF-GGA-X  ScalDFX         ....  0.750000
   Scaling of DF-GGA-C  ScalDFC         ....  1.000000
   Scaling of DF-LDA-C  ScalLDAC        ....  1.000000
   Perturbative correction              ....  0.000000
   Density functional embedding theory  .... OFF
   NL short-range parameter             ....  6.900000
 RI-approximation to the Coulomb term is turned on
   Number of AuxJ basis functions       .... 191
   RIJ-COSX (HFX calculated with COS-X)).... on


General Settings:
 Integral files         IntName         .... ox_es1_C_orca0000
 Hartree-Fock type      HFTyp           .... RHF
 Total Charge           Charge          ....    0
 Multiplicity           Mult            ....    1
 Number of Electrons    NEL             ....   24
 Basis Dimension        Dim             ....  117
 Nuclear Repulsion      ENuc            ....     70.0160442176 Eh

Convergence Acceleration:
 DIIS                   CNVDIIS         .... on
   Start iteration      DIISMaxIt       ....    12
   Startup error        DIISStart       ....  0.200000
   # of expansion vecs  DIISMaxEq       ....     5
   Bias factor          DIISBfac        ....   1.050
   Max. coefficient     DIISMaxC        ....  10.000
 Trust-Rad. Augm. Hess. CNVTRAH         .... auto
   Auto Start mean grad. ratio tolernc. ....  1.125000
   Auto Start start iteration           ....     1
   Auto Start num. interpolation iter.  ....    10
   Max. Number of Micro iterations      ....    16
   Max. Number of Macro iterations      .... Maxiter - #DIIS iter
   Number of Davidson start vectors     ....     2
   Converg. threshold I  (grad. norm)   ....   1.000e-05
   Converg. threshold II (energy diff.) ....   1.000e-08
   Grad. Scal. Fac. for Micro threshold ....   0.100
   Minimum threshold for Micro iter.    ....   0.010
   NR start threshold (gradient norm)   ....   0.001
   Initial trust radius                 ....   0.400
   Minimum AH scaling param. (alpha)    ....   1.000
   Maximum AH scaling param. (alpha)    .... 1000.000
   Orbital update algorithm             .... Taylor
   White noise on init. David. guess    .... on
   Maximum white noise                  ....   0.010
   Quad. conv. algorithm                .... NR
 SOSCF                  CNVSOSCF        .... on
   Start iteration      SOSCFMaxIt      ....   150
   Startup grad/error   SOSCFStart      ....  0.003300
 Level Shifting         CNVShift        .... on
   Level shift para.    LevelShift      ....    0.2500
   Turn off err/grad.   ShiftErr        ....    0.0010
 Zerner damping         CNVZerner       .... off
 Static damping         CNVDamp         .... on
   Fraction old density DampFac         ....    0.7000
   Max. Damping (<1)    DampMax         ....    0.9800
   Min. Damping (>=0)   DampMin         ....    0.0000
   Turn off err/grad.   DampErr         ....    0.1000
 Fernandez-Rico         CNVRico         .... off

SCF Procedure:
 Maximum # iterations   MaxIter         ....   125
 SCF integral mode      SCFMode         .... Direct
   Integral package                     .... SHARK and LIBINT hybrid scheme
 Reset frequency        DirectResetFreq ....    20
 Integral Threshold     Thresh          ....  2.500e-11 Eh
 Primitive CutOff       TCut            ....  2.500e-12 Eh

Convergence Tolerance:
 Convergence Check Mode ConvCheckMode   .... Total+1el-Energy
 Convergence forced     ConvForced      .... 1
 Energy Change          TolE            ....  1.000e-08 Eh
 1-El. energy change                    ....  1.000e-05 Eh
 Orbital Gradient       TolG            ....  1.000e-05
 Orbital Rotation angle TolX            ....  1.000e-05
 DIIS Error             TolErr          ....  5.000e-07


Diagonalization of the overlap matrix:
Smallest eigenvalue                        ... 2.964e-04
Time for diagonalization                   ...    0.001 sec
Threshold for overlap eigenvalues          ... 1.000e-08
Number of eigenvalues below threshold      ... 0
Time for construction of square roots      ...    0.001 sec
Total time needed                          ...    0.003 sec

---------------------
INITIAL GUESS: MOREAD
---------------------
Guess MOs are being read from file: ox_es1_C_orca0000.ges
Input Geometry matches current geometry (good)
Input basis set matches current basis set (good)
MOs were renormalized
MOs were reorthogonalized (Cholesky)
                      ------------------
                      INITIAL GUESS DONE (   0.0 sec)
                      ------------------
-------------------
DFT GRID GENERATION
-------------------

General Integration Accuracy     IntAcc      ... 4.388
Radial Grid Type                 RadialGrid  ... OptM3 with GC (2021)
Angular Grid (max. ang.)         AngularGrid ... 4 (Lebedev-302)
Angular grid pruning method      GridPruning ... 4 (adaptive)
Weight generation scheme         WeightScheme... Becke
Basis function cutoff            BFCut       ... 1.0000e-11
Integration weight cutoff        WCut        ... 1.0000e-14
Angular grids for H and He will be reduced by one unit
Partially contracted basis set               ... off
Rotationally invariant grid construction     ... off

Total number of grid points                  ...    31310
Total number of batches                      ...      494
Average number of points per batch           ...       63
Average number of grid points per atom       ...     4473
Time for grid setup =    0.120 sec

--------------------
COSX GRID GENERATION
--------------------

GRIDX 1
-------
General Integration Accuracy     IntAcc      ... 3.816
Radial Grid Type                 RadialGrid  ... OptM3 with GC (2021)
Angular Grid (max. ang.)         AngularGrid ... 1 (Lebedev-50)
Angular grid pruning method      GridPruning ... 4 (adaptive)
Weight generation scheme         WeightScheme... Becke
Basis function cutoff            BFCut       ... 1.0000e-11
Integration weight cutoff        WCut        ... 1.0000e-14
Angular grids for H and He will be reduced by one unit
Partially contracted basis set               ... on
Rotationally invariant grid construction     ... off

Total number of grid points                  ...     4038
Total number of batches                      ...       67
Average number of points per batch           ...       60
Average number of grid points per atom       ...      577
UseSFitting                                  ... on

GRIDX 2
-------
General Integration Accuracy     IntAcc      ... 4.020
Radial Grid Type                 RadialGrid  ... OptM3 with GC (2021)
Angular Grid (max. ang.)         AngularGrid ... 2 (Lebedev-110)
Angular grid pruning method      GridPruning ... 4 (adaptive)
Weight generation scheme         WeightScheme... Becke
Basis function cutoff            BFCut       ... 1.0000e-11
Integration weight cutoff        WCut        ... 1.0000e-14
Angular grids for H and He will be reduced by one unit
Partially contracted basis set               ... on
Rotationally invariant grid construction     ... off

Total number of grid points                  ...     8729
Total number of batches                      ...      140
Average number of points per batch           ...       62
Average number of grid points per atom       ...     1247
UseSFitting                                  ... on

GRIDX 3
-------
General Integration Accuracy     IntAcc      ... 4.338
Radial Grid Type                 RadialGrid  ... OptM3 with GC (2021)
Angular Grid (max. ang.)         AngularGrid ... 3 (Lebedev-194)
Angular grid pruning method      GridPruning ... 4 (adaptive)
Weight generation scheme         WeightScheme... Becke
Basis function cutoff            BFCut       ... 1.0000e-11
Integration weight cutoff        WCut        ... 1.0000e-14
Angular grids for H and He will be reduced by one unit
Partially contracted basis set               ... on
Rotationally invariant grid construction     ... off

Total number of grid points                  ...    19242
Total number of batches                      ...      305
Average number of points per batch           ...       63
Average number of grid points per atom       ...     2749
UseSFitting                                  ... on

Time for X-Grid setup             =    0.072 sec

--------------
SCF ITERATIONS
--------------
ITER       Energy         Delta-E        Max-DP      RMS-DP      [F,P]     Damp
               ***  Starting incremental Fock matrix formation  ***
                      *** Initiating the SOSCF procedure ***
                      *** Re-Reading the Fockian *** 
                      *** Removing any level shift *** 
ITER      Energy       Delta-E        Grad      Rot      Max-DP    RMS-DP
  0   -153.58878182 -153.5887818241  0.000002  0.000002  0.000004  0.000000
               *** Restarting incremental Fock matrix formation ***
                 **** Energy Check signals convergence ****
              ***Rediagonalizing the Fockian in SOSCF/NRSCF***

               *****************************************************
               *                     SUCCESS                       *
               *           SCF CONVERGED AFTER   1 CYCLES          *
               *****************************************************

Old exchange energy                            =     -4.964370776 Eh
New exchange energy                            =     -4.964369581 Eh
Exchange energy change after final integration =      0.000001195 Eh
Total energy after final integration           =   -153.588780629 Eh
Final COS-X integration done in                =     0.250 sec

----------------
TOTAL SCF ENERGY
----------------

Total Energy       :         -153.58878063 Eh           -4179.36320 eV

Components:
Nuclear Repulsion  :           70.01604422 Eh            1905.23342 eV
Electronic Energy  :         -223.60482485 Eh           -6084.59662 eV
One Electron Energy:         -346.86533050 Eh           -9438.68550 eV
Two Electron Energy:          123.26050566 Eh            3354.08888 eV
Max COSX asymmetry :            0.00000120 Eh               0.00003 eV

Virial components:
Potential Energy   :         -306.37902693 Eh           -8336.99717 eV
Kinetic Energy     :          152.79024630 Eh            4157.63397 eV
Virial Ratio       :            2.00522634


DFT components:
N(Alpha)           :       11.999999583542 electrons
N(Beta)            :       11.999999583542 electrons
N(Total)           :       23.999999167084 electrons
E(X)               :      -14.894204291731 Eh       
E(C)               :       -0.775110961731 Eh       
E(XC)              :      -15.669315253462 Eh       
DFET-embed. en.    :        0.000000000000 Eh       

---------------
SCF CONVERGENCE
---------------

  Last Energy change         ...   -1.1994e-10  Tolerance :   1.0000e-08
  Last MAX-Density change    ...    5.5511e-16  Tolerance :   1.0000e-07
  Last RMS-Density change    ...    1.5843e-17  Tolerance :   5.0000e-09
  Last Orbital Gradient      ...    1.6317e-06  Tolerance :   1.0000e-05
  Last Orbital Rotation      ...    7.6167e-06  Tolerance :   1.0000e-05

             **** THE GBW FILE WAS UPDATED (ox_es1_C_orca0000.gbw) ****
             **** DENSITY ox_es1_C_orca0000.scfp WAS UPDATED ****
             **** ENERGY FILE WAS UPDATED (ox_es1_C_orca0000.en.tmp) ****
             **** THE GBW FILE WAS UPDATED (ox_es1_C_orca0000.gbw) ****
             **** DENSITY ox_es1_C_orca0000.scfp WAS UPDATED ****
----------------
ORBITAL ENERGIES
----------------

  NO   OCC          E(Eh)            E(eV) 
   0   2.0000     -19.209869      -522.7271 
   1   2.0000     -10.306794      -280.4621 
   2   2.0000     -10.271872      -279.5118 
   3   2.0000      -0.998375       -27.1672 
   4   2.0000      -0.767378       -20.8814 
   5   2.0000      -0.640037       -17.4163 
   6   2.0000      -0.515085       -14.0162 
   7   2.0000      -0.499191       -13.5837 
   8   2.0000      -0.403315       -10.9748 
   9   2.0000      -0.395063       -10.7502 
  10   2.0000      -0.301826        -8.2131 
  11   2.0000      -0.267944        -7.2911 
  12   0.0000      -0.087601        -2.3837 
  13   0.0000       0.059369         1.6155 
  14   0.0000       0.074876         2.0375 
  15   0.0000       0.089328         2.4307 
  16   0.0000       0.110494         3.0067 
  17   0.0000       0.151328         4.1178 
  18   0.0000       0.183174         4.9844 
  19   0.0000       0.211940         5.7672 
  20   0.0000       0.235315         6.4033 
  21   0.0000       0.258167         7.0251 
  22   0.0000       0.266629         7.2553 
  23   0.0000       0.315777         8.5927 
  24   0.0000       0.378168        10.2905 
  25   0.0000       0.396565        10.7911 
  26   0.0000       0.421839        11.4788 
  27   0.0000       0.422912        11.5080 
  28   0.0000       0.445976        12.1356 
  29   0.0000       0.491738        13.3809 
  30   0.0000       0.519735        14.1427 
  31   0.0000       0.525842        14.3089 
  32   0.0000       0.552771        15.0417 
  33   0.0000       0.637492        17.3470 
  34   0.0000       0.649625        17.6772 
  35   0.0000       0.765127        20.8202 
  36   0.0000       0.810200        22.0467 
  37   0.0000       0.832334        22.6490 
  38   0.0000       0.852145        23.1881 
  39   0.0000       0.940698        25.5977 
  40   0.0000       0.953237        25.9389 
  41   0.0000       1.035858        28.1871 
  42   0.0000       1.072695        29.1895 
  43   0.0000       1.104002        30.0414 
  44   0.0000       1.190164        32.3860 
  45   0.0000       1.343220        36.5509 
  46   0.0000       1.389173        37.8013 
  47   0.0000       1.469707        39.9927 
  48   0.0000       1.504262        40.9331 
  49   0.0000       1.545989        42.0685 
  50   0.0000       1.563460        42.5439 
  51   0.0000       1.602655        43.6105 
  52   0.0000       1.660457        45.1833 
  53   0.0000       1.683905        45.8214 
  54   0.0000       1.697116        46.1809 
  55   0.0000       1.775079        48.3024 
  56   0.0000       1.830787        49.8182 
  57   0.0000       1.849872        50.3376 
  58   0.0000       1.900349        51.7111 
  59   0.0000       1.920181        52.2508 
  60   0.0000       1.998428        54.3800 
  61   0.0000       2.093697        56.9724 
  62   0.0000       2.135049        58.0976 
  63   0.0000       2.227012        60.6001 
  64   0.0000       2.310213        62.8641 
  65   0.0000       2.329349        63.3848 
  66   0.0000       2.412582        65.6497 
  67   0.0000       2.443527        66.4918 
  68   0.0000       2.494583        67.8811 
  69   0.0000       2.536267        69.0153 
  70   0.0000       2.562554        69.7306 
  71   0.0000       2.659323        72.3638 
  72   0.0000       2.712871        73.8210 
  73   0.0000       2.729113        74.2629 
  74   0.0000       2.760258        75.1104 
  75   0.0000       2.795980        76.0825 
  76   0.0000       2.825421        76.8836 
  77   0.0000       2.871802        78.1457 
  78   0.0000       2.962468        80.6128 
  79   0.0000       2.990707        81.3813 
  80   0.0000       3.049616        82.9843 
  81   0.0000       3.086986        84.0012 
  82   0.0000       3.099541        84.3428 
  83   0.0000       3.130964        85.1979 
  84   0.0000       3.158911        85.9583 
  85   0.0000       3.226375        87.7941 
  86   0.0000       3.346440        91.0613 
  87   0.0000       3.404993        92.6546 
  88   0.0000       3.446909        93.7952 
  89   0.0000       3.503084        95.3238 
  90   0.0000       3.559019        96.8458 
  91   0.0000       3.709795       100.9486 
  92   0.0000       3.725755       101.3829 
  93   0.0000       3.927998       106.8863 
  94   0.0000       4.117620       112.0461 
  95   0.0000       4.176629       113.6519 
  96   0.0000       4.213842       114.6645 
  97   0.0000       4.290494       116.7503 
  98   0.0000       4.426417       120.4489 
  99   0.0000       4.522120       123.0531 
 100   0.0000       4.616277       125.6153 
 101   0.0000       4.836124       131.5976 
 102   0.0000       5.229525       142.3026 
 103   0.0000       5.257036       143.0512 
 104   0.0000       5.348863       145.5500 
 105   0.0000       5.376443       146.3005 
 106   0.0000       5.687662       154.7692 
 107   0.0000       5.713063       155.4603 
 108   0.0000       5.891963       160.3285 
 109   0.0000       6.391672       173.9262 
 110   0.0000       6.466624       175.9658 
 111   0.0000       6.733954       183.2402 
 112   0.0000       6.857125       186.5919 
 113   0.0000       6.983911       190.0419 
 114   0.0000      22.168550       603.2369 
 115   0.0000      22.522924       612.8799 
 116   0.0000      43.668503      1188.2804 

                    ********************************
                    * MULLIKEN POPULATION ANALYSIS *
                    ********************************

-----------------------
MULLIKEN ATOMIC CHARGES
-----------------------
   0 O :   -0.374794
   1 C :   -0.024961
   2 C :   -0.129155
   3 H :    0.119539
   4 H :    0.100380
   5 H :    0.161380
   6 H :    0.147611
Sum of atomic charges:   -0.0000000

--------------------------------
MULLIKEN REDUCED ORBITAL CHARGES
--------------------------------
  0 O s       :     3.918162  s :     3.918162
      pz      :     1.907281  p :     4.432596
      px      :     1.360409
      py      :     1.164906
      dz2     :     0.003367  d :     0.022845
      dxz     :     0.000466
      dyz     :     0.004455
      dx2y2   :     0.007542
      dxy     :     0.007016
      f0      :     0.000133  f :     0.001192
      f+1     :     0.000062
      f-1     :     0.000300
      f+2     :     0.000127
      f-2     :     0.000036
      f+3     :     0.000261
      f-3     :     0.000273
  1 C s       :     3.176243  s :     3.176243
      pz      :     1.050084  p :     2.695911
      px      :     0.921577
      py      :     0.724249
      dz2     :     0.008542  d :     0.143069
      dxz     :     0.021409
      dyz     :     0.040967
      dx2y2   :     0.026890
      dxy     :     0.045260
      f0      :     0.001454  f :     0.009739
      f+1     :     0.001107
      f-1     :     0.000815
      f+2     :     0.002721
      f-2     :     0.000231
      f+3     :     0.001410
      f-3     :     0.001999
  2 C s       :     3.281660  s :     3.281660
      pz      :     1.057827  p :     2.778713
      px      :     0.986901
      py      :     0.733985
      dz2     :     0.005701  d :     0.062972
      dxz     :     0.025025
      dyz     :     0.007731
      dx2y2   :     0.009386
      dxy     :     0.015128
      f0      :     0.000562  f :     0.005809
      f+1     :     0.001045
      f-1     :     0.000158
      f+2     :     0.001009
      f-2     :     0.000375
      f+3     :     0.001146
      f-3     :     0.001514
  3 H s       :     0.857396  s :     0.857396
      pz      :     0.010708  p :     0.023065
      px      :     0.007655
      py      :     0.004701
  4 H s       :     0.881523  s :     0.881523
      pz      :     0.009197  p :     0.018097
      px      :     0.005673
      py      :     0.003227
  5 H s       :     0.815496  s :     0.815496
      pz      :     0.010924  p :     0.023124
      px      :     0.007991
      py      :     0.004210
  6 H s       :     0.831484  s :     0.831484
      pz      :     0.010752  p :     0.020906
      px      :     0.006554
      py      :     0.003600


                     *******************************
                     * LOEWDIN POPULATION ANALYSIS *
                     *******************************

----------------------
LOEWDIN ATOMIC CHARGES
----------------------
   0 O :   -0.072174
   1 C :   -0.382255
   2 C :   -0.046272
   3 H :    0.100053
   4 H :    0.135676
   5 H :    0.123144
   6 H :    0.141828

-------------------------------
LOEWDIN REDUCED ORBITAL CHARGES
-------------------------------
  0 O s       :     3.586127  s :     3.586127
      pz      :     1.840321  p :     4.434877
      px      :     1.320017
      py      :     1.274539
      dz2     :     0.007235  d :     0.048146
      dxz     :     0.000860
      dyz     :     0.010415
      dx2y2   :     0.016468
      dxy     :     0.013169
      f0      :     0.000273  f :     0.003024
      f+1     :     0.000085
      f-1     :     0.000570
      f+2     :     0.000471
      f-2     :     0.000085
      f+3     :     0.000828
      f-3     :     0.000712
  1 C s       :     2.812884  s :     2.812884
      pz      :     1.048783  p :     2.925267
      px      :     1.070243
      py      :     0.806240
      dz2     :     0.059473  d :     0.575102
      dxz     :     0.124417
      dyz     :     0.108703
      dx2y2   :     0.135202
      dxy     :     0.147306
      f0      :     0.008949  f :     0.069003
      f+1     :     0.005715
      f-1     :     0.007091
      f+2     :     0.015535
      f-2     :     0.001804
      f+3     :     0.010980
      f-3     :     0.018928
  2 C s       :     2.879539  s :     2.879539
      pz      :     1.066512  p :     2.855363
      px      :     1.112024
      py      :     0.676827
      dz2     :     0.031718  d :     0.280284
      dxz     :     0.130556
      dyz     :     0.016341
      dx2y2   :     0.048197
      dxy     :     0.053472
      f0      :     0.003898  f :     0.031087
      f+1     :     0.004154
      f-1     :     0.001418
      f+2     :     0.005804
      f-2     :     0.001366
      f+3     :     0.006042
      f-3     :     0.008404
  3 H s       :     0.826852  s :     0.826852
      pz      :     0.035803  p :     0.073095
      px      :     0.022340
      py      :     0.014953
  4 H s       :     0.816616  s :     0.816616
      pz      :     0.025590  p :     0.047708
      px      :     0.013670
      py      :     0.008448
  5 H s       :     0.808076  s :     0.808076
      pz      :     0.034441  p :     0.068780
      px      :     0.022145
      py      :     0.012194
  6 H s       :     0.800142  s :     0.800142
      pz      :     0.031274  p :     0.058029
      px      :     0.017030
      py      :     0.009725


                      *****************************
                      * MAYER POPULATION ANALYSIS *
                      *****************************

  NA   - Mulliken gross atomic population
  ZA   - Total nuclear charge
  QA   - Mulliken gross atomic charge
  VA   - Mayer's total valence
  BVA  - Mayer's bonded valence
  FA   - Mayer's free valence

  ATOM       NA         ZA         QA         VA         BVA        FA
  0 O      8.3748     8.0000    -0.3748     1.8534     1.8534    -0.0000
  1 C      6.0250     6.0000    -0.0250     4.0327     4.0327    -0.0000
  2 C      6.1292     6.0000    -0.1292     3.8810     3.8810    -0.0000
  3 H      0.8805     1.0000     0.1195     0.9506     0.9506     0.0000
  4 H      0.8996     1.0000     0.1004     0.9634     0.9634     0.0000
  5 H      0.8386     1.0000     0.1614     0.9537     0.9537     0.0000
  6 H      0.8524     1.0000     0.1476     0.9594     0.9594     0.0000

  Mayer bond orders larger than 0.100000
B(  0-O ,  1-C ) :   0.9884 B(  0-O ,  2-C ) :   0.8594 B(  1-C ,  2-C ) :   1.1221 
B(  1-C ,  3-H ) :   0.9578 B(  1-C ,  4-H ) :   0.9527 B(  2-C ,  5-H ) :   0.9438 
B(  2-C ,  6-H ) :   0.9441 

-------
TIMINGS
-------

Total SCF time: 0 days 0 hours 0 min 1 sec 

Total time                  ....       1.001 sec
Sum of individual times     ....       0.897 sec  ( 89.6%)

Fock matrix formation       ....       0.690 sec  ( 68.9%)
  Split-RI-J                ....       0.115 sec  ( 16.7% of F)
  Chain of spheres X        ....       0.503 sec  ( 73.0% of F)
  XC integration            ....       0.061 sec  (  8.9% of F)
    Basis function eval.    ....       0.017 sec  ( 28.3% of XC)
    Density eval.           ....       0.013 sec  ( 21.8% of XC)
    XC-Functional eval.     ....       0.004 sec  (  6.0% of XC)
    XC-Potential eval.      ....       0.020 sec  ( 33.3% of XC)
Diagonalization             ....       0.002 sec  (  0.2%)
Density matrix formation    ....       0.000 sec  (  0.0%)
Population analysis         ....       0.003 sec  (  0.3%)
Initial guess               ....       0.007 sec  (  0.7%)
Orbital Transformation      ....       0.000 sec  (  0.0%)
Orbital Orthonormalization  ....       0.001 sec  (  0.1%)
DIIS solution               ....       0.001 sec  (  0.1%)
SOSCF solution              ....       0.002 sec  (  0.2%)
Grid generation             ....       0.192 sec  ( 19.1%)

Maximum memory used throughout the entire SCF-calculation: 61.1 MB


           ************************************************************
           *        Program running with 8 parallel MPI-processes     *
           *              working on a common directory               *
           ************************************************************
------------------------------------------------------------------------------
                        ORCA TD-DFT/TDA CALCULATION
------------------------------------------------------------------------------

Input orbitals are from        ... ox_es1_C_orca0000.gbw
CI-vector output               ... ox_es1_C_orca0000.cis
Tamm-Dancoff approximation     ... operative
CIS-Integral strategy          ... AO-integrals
Integral handling              ... AO integral Direct
Max. core memory used          ... 3000 MB
Reference state                ... RHF
Generation of triplets         ... off
Follow IRoot                   ... off
Number of operators            ... 1
Orbital ranges used for CIS calculation:
 Operator 0:  Orbitals   3... 11  to  12...116
XAS localization array:
 Operator 0:  Orbitals  -1... -1

-------------------
XC-INTEGRATION GRID
-------------------

General Integration Accuracy     IntAcc      ... 3.467
Radial Grid Type                 RadialGrid  ... OptM3 with GC (2021)
Angular Grid (max. ang.)         AngularGrid ... 1 (Lebedev-50)
Angular grid pruning method      GridPruning ... 4 (adaptive)
Weight generation scheme         WeightScheme... Becke
Basis function cutoff            BFCut       ... 1.0000e-11
Integration weight cutoff        WCut        ... 1.0000e-14
Angular grids for H and He will be reduced by one unit
Partially contracted basis set               ... off
Rotationally invariant grid construction     ... off

Total number of grid points                  ...     4540
Total number of batches                      ...       75
Average number of points per batch           ...       60
Average number of grid points per atom       ...      649

---------------------
COSX-INTEGRATION GRID
---------------------

General Integration Accuracy     IntAcc      ... 3.067
Radial Grid Type                 RadialGrid  ... OptM3 with GC (2021)
Angular Grid (max. ang.)         AngularGrid ... 1 (Lebedev-50)
Angular grid pruning method      GridPruning ... 4 (adaptive)
Weight generation scheme         WeightScheme... Becke
Basis function cutoff            BFCut       ... 1.0000e-11
Integration weight cutoff        WCut        ... 1.0000e-14
Angular grids for H and He will be reduced by one unit
Partially contracted basis set               ... on
Rotationally invariant grid construction     ... off

Total number of grid points                  ...     2087
Total number of batches                      ...       38
Average number of points per batch           ...       54
Average number of grid points per atom       ...      298

---------------
TD-DFT XC SETUP
---------------

DFT calculation                         ... on
Name of the grid file                   ... ox_es1_C_orca0000.grid_cis.tmp
Exchange functional (TD-DFT)            ... PBE
   PBE kappa parameter  XKappa (TD-DFT) ...  0.804000
   PBE mue parameter   XMuePBE (TD-DFT) ...  0.219520
Correlation functional (TD-DFT)         ... PBE
   PBE beta parameter CBetaPBE (TD-DFT) ...  0.066725
 LDA part of GGA corr.  LDAOpt (TD-DFT) ... PW91-LDA
Hybrid DFT                              ... on
   Exchange mixing (TD-DFT)             ...  0.250
   GGA exch. scaling (TD-DFT)           ...  0.750
   GGA corr. scaling (TD-DFT)           ...  1.000

Building densities             ... done
Calculating rho(r) on the grid ... done
Building xc-kernel on the grid ... done
                    *** TD-DFT CALCULATION INITIALIZED ***

------------------------
DAVIDSON-DIAGONALIZATION
------------------------

Dimension of the eigenvalue problem            ...    945
Number of roots to be determined               ...      1
Maximum size of the expansion space            ...     10
Maximum number of iterations                   ...    100
Convergence tolerance for the residual         ...    2.500e-07
Convergence tolerance for the energies         ...    2.500e-07
Orthogonality tolerance                        ...    1.000e-14
Level Shift                                    ...    0.000e+00
Constructing the preconditioner                ... o.k.
Building the initial guess                     ... o.k.
Number of trial vectors determined             ...     10


                       ****Iteration    0****

   Memory handling for direct AO based CIS:
   Memory per vector needed      ...     1 MB
   Memory needed                 ...     1 MB
   Memory available              ...  3000 MB
   Number of vectors per batch   ...  3000
   Number of batches             ...     1
   Time for densities:            0.001
   Time for RI-J (Direct):        0.015
   Time for K (COSX):             0.054
   Time for XC-Integration:       0.015
   Time for Sigma-Completion:     0.000
   Size of expansion space: 3
   Lowest Energy          :     0.096970817044
   Maximum Energy change  :     0.096970817044 (vector 0)
   Maximum residual norm  :     0.003161540305

                       ****Iteration    1****
   Time for densities:            0.000
   Time for RI-J (Direct):        0.012
   Time for K (COSX):             0.048
   Time for XC-Integration:       0.006
   Time for Sigma-Completion:     0.000
   Size of expansion space: 4
   Lowest Energy          :     0.094588854764
   Maximum Energy change  :     0.002381962280 (vector 0)
   Maximum residual norm  :     0.000085659188

                       ****Iteration    2****
   Time for densities:            0.000
   Time for RI-J (Direct):        0.012
   Time for K (COSX):             0.048
   Time for XC-Integration:       0.006
   Time for Sigma-Completion:     0.000
   Size of expansion space: 5
   Lowest Energy          :     0.094519399352
   Maximum Energy change  :     0.000069455412 (vector 0)
   Maximum residual norm  :     0.000005367962

                       ****Iteration    3****
   Time for densities:            0.000
   Time for RI-J (Direct):        0.012
   Time for K (COSX):             0.048
   Time for XC-Integration:       0.006
   Time for Sigma-Completion:     0.000
   Size of expansion space: 6
   Lowest Energy          :     0.094514583904
   Maximum Energy change  :     0.000004815447 (vector 0)
   Maximum residual norm  :     0.000000376398

                       ****Iteration    4****
   Time for densities:            0.000
   Time for RI-J (Direct):        0.012
   Time for K (COSX):             0.048
   Time for XC-Integration:       0.006
   Time for Sigma-Completion:     0.000
   Size of expansion space: 7
   Lowest Energy          :     0.094514245181
   Maximum Energy change  :     0.000000338723 (vector 0)
   Maximum residual norm  :     0.000000019087

      *** CONVERGENCE OF RESIDUAL NORM REACHED ***

Storing the converged CI vectors               ... ox_es1_C_orca0000.cis1

                 *** DAVIDSON DONE ***

Total time for solving the CIS problem:     0.356sec

------------------------------------
TD-DFT/TDA EXCITED STATES (SINGLETS)
------------------------------------

the weight of the individual excitations are printed if larger than 1.0e-02

STATE  1:  E=   0.094514 au      2.572 eV    20743.5 cm**-1 <S**2> =   0.000000
    11a ->  12a  :     0.986110 (c=  0.99303071)


-----------------------------
TD-DFT/TDA-EXCITATION SPECTRA
-----------------------------

Center of mass = ( -0.3573,  0.1298, -0.0087)
Calculating the Dipole integrals                  ... done
Transforming integrals                            ... done
Calculating the Linear Momentum integrals         ... done
Transforming integrals                            ... done
Calculating angular momentum integrals            ... done
Transforming integrals                            ... done

-----------------------------------------------------------------------------
         ABSORPTION SPECTRUM VIA TRANSITION ELECTRIC DIPOLE MOMENTS
-----------------------------------------------------------------------------
State   Energy    Wavelength  fosc         T2        TX        TY        TZ  
        (cm-1)      (nm)                 (au**2)    (au)      (au)      (au) 
-----------------------------------------------------------------------------
   1   20743.5    482.1   0.000372545   0.00591   0.00080   0.01055  -0.07616

-----------------------------------------------------------------------------
         ABSORPTION SPECTRUM VIA TRANSITION VELOCITY DIPOLE MOMENTS
-----------------------------------------------------------------------------
State   Energy    Wavelength   fosc        P2         PX        PY        PZ  
        (cm-1)      (nm)                 (au**2)     (au)      (au)      (au) 
-----------------------------------------------------------------------------
   1   20743.5    482.1   0.010878887   0.00154  -0.00021   0.00940   0.03813

-------------------------------------------------------------------
                             CD SPECTRUM
-------------------------------------------------------------------
State  Energy     Wavelength     R         MX        MY        MZ   
       (cm-1)       (nm)     (1e40*cgs)   (au)      (au)      (au)  
-------------------------------------------------------------------
   1   20743.5    482.1      1.63427   0.06362   0.24706  -0.01063

-------------------------------------------------------------------
         CD SPECTRUM VIA TRANSITION VELOCITY DIPOLE MOMENTS        
-------------------------------------------------------------------
State  Energy     Wavelength     R         MX        MY        MZ   
       (cm-1)       (nm)     (1e40*cgs)   (au)      (au)      (au)  
-------------------------------------------------------------------
   1   20743.5    482.1      9.49018   0.06362   0.24706  -0.01063

Total run time:        0.625 sec

           *** ORCA-CIS/TD-DFT FINISHED WITHOUT ERROR ***

Maximum memory used throughout the entire CIS-calculation: 49.4 MB

-----------------------
CIS/TD-DFT TOTAL ENERGY
-----------------------

    E(SCF)  =   -153.588780629 Eh
    DE(CIS) =      0.094514245 Eh (Root  1)
    ----------------------------- ---------
    E(tot)  =   -153.494266384 Eh



-------------------------------------------------------------------------------
                          DFT DISPERSION CORRECTION                            
                                                                               
                              DFTD3 V3.1  Rev 1                                
                          USING Becke-Johnson damping                          
-------------------------------------------------------------------------------
The PBE0 functional is recognized
Active option DFTDOPT                   ...         4   

molecular C6(AA) [au] = 389.169979 


            DFT-D V3
 parameters
 s6 scaling factor         :     1.0000 
 a1 scaling factor         :     0.4145 
 s8 scaling factor         :     1.2177 
 a2 scaling factor         :     4.8593 
 ad hoc parameters k1-k3   :    16.0000     1.3333    -4.0000 

 Edisp/kcal,au: -1.643335936327  -0.002618822231 
 E6   /kcal   :  -1.073291210 
 E8   /kcal   :  -0.570044726 
 % E8         :  34.688265116 

-------------------------   ----------------
Dispersion correction           -0.002618822
-------------------------   ----------------


-------------------------   --------------------
FINAL SINGLE POINT ENERGY      -153.496885206508
-------------------------   --------------------



           ************************************************************
           *        Program running with 8 parallel MPI-processes     *
           *              working on a common directory               *
           ************************************************************
------------------------------------------------------------------------------
                         ORCA SCF GRADIENT CALCULATION
------------------------------------------------------------------------------


------------------------
TD-DFT GRADIENT XC SETUP
------------------------

Building densities                     ... done
Calculating rho(r) on the grid         ... done
Building xc-kernel on the grid         ... done
Building xc 3rd derivative on the grid      ... done
                *** TD-DFT GRADIENT CALCULATION INITIALIZED ***

-------------------
TD-DFT/TDA GRADIENT
-------------------

Reference wavefunction             ... RHF
State of interest                  ... 1
Basis dimension                    ... 117
DFT-XC contribution needed         ... YES
RI-approximation                   ... ON
CIS-vectors being read from        ... ox_es1_C_orca0000.cis

 => Number of Vectors found: 1
 => Orbital Window: 3...11 -> 12...116

Reading the CIS file                     ... done
Norm of the CI vector                    ... 1.000000000
Making the CIS (pseudo)densities         ... done
Making operators G(D) and Q(T)           ... done
Transforming the Fock operators          ... done
Making the frozen-core relaxed density   ... done
Constructing the G(H) operator           ... done
Transforming the G(H) operator           ... done
Calculating the CIS Lagrangian           ... done
Solving the Z-vector equations           ... done
Finalizing the relaxed density           ... done
Storing the relaxed density              ... done
Constructing the G(Z) operator           ... done
Transforming the G(Z) operator           ... done
Making the W-matrix                      ... done
Finalizing the W-matrix                  ... done
Transforming the W-matrix                ... done
Nuclear repulsion gradient               ... done
One-Electron gradient                    ... done
Dispersion correction                    ... done
Prescreening matrices                    ... done
COSX-gradient                            ... done
Coulomb gradient (RI)                    ... done
Exchange-Correlation gradient            ... done

                 ---------------------------
                 EXCITED STATE GRADIENT DONE
                 ---------------------------

------------------
CARTESIAN GRADIENT
------------------

   1   O   :    0.046840802   -0.002291282   -0.004272089
   2   C   :   -0.013975233   -0.071386720    0.097341943
   3   C   :   -0.067677519    0.071866975   -0.044261959
   4   H   :    0.035924446    0.018004003   -0.055039499
   5   H   :   -0.016093825   -0.002645950   -0.029547651
   6   H   :    0.000852027   -0.002921620    0.018641865
   7   H   :    0.014155441   -0.010549525    0.017177684

Difference to translation invariance:
           :    0.0000261403    0.0000758811    0.0000402947

Difference to rotation invariance:
           :    0.0001119384   -0.0000148208    0.0006674027

Norm of the cartesian gradient     ...    0.1882425857
RMS gradient                       ...    0.0410778999
MAX gradient                       ...    0.0973419433

------------------------------------------------------------------------------
                  RELAXED CIS/TDA DENSITY POPULATION ANALYSIS
                                   IROOT 1
------------------------------------------------------------------------------
------------------------------------------------------------------------------
                           ORCA POPULATION ANALYSIS
------------------------------------------------------------------------------
Input electron density              ... ox_es1_C_orca0000.cisp
BaseName (.gbw .S,...)              ... ox_es1_C_orca0000

                    ********************************
                    * MULLIKEN POPULATION ANALYSIS *
                    ********************************

-----------------------
MULLIKEN ATOMIC CHARGES
-----------------------
   0 O :   -0.185883
   1 C :   -0.068784
   2 C :   -0.321449
   3 H :    0.150664
   4 H :    0.150075
   5 H :    0.146350
   6 H :    0.129027
Sum of atomic charges:   -0.0000000

--------------------------------
MULLIKEN REDUCED ORBITAL CHARGES
--------------------------------
  0 O s       :     3.897206  s :     3.897206
      pz      :     1.074462  p :     4.266548
      px      :     1.871683
      py      :     1.320403
      dz2     :     0.002718  d :     0.021362
      dxz     :     0.000491
      dyz     :     0.004736
      dx2y2   :     0.007282
      dxy     :     0.006135
      f0      :    -0.000002  f :     0.000767
      f+1     :    -0.000053
      f-1     :     0.000076
      f+2     :     0.000153
      f-2     :     0.000008
      f+3     :     0.000298
      f-3     :     0.000288
  1 C s       :     3.179150  s :     3.179150
      pz      :     1.034972  p :     2.752267
      px      :     0.990341
      py      :     0.726954
      dz2     :     0.008277  d :     0.127789
      dxz     :     0.024726
      dyz     :     0.018083
      dx2y2   :     0.028716
      dxy     :     0.047988
      f0      :     0.000829  f :     0.009578
      f+1     :     0.001174
      f-1     :     0.000611
      f+2     :     0.001510
      f-2     :     0.000217
      f+3     :     0.002697
      f-3     :     0.002541
  2 C s       :     3.284590  s :     3.284590
      pz      :     1.045757  p :     2.978272
      px      :     0.920711
      py      :     1.011804
      dz2     :     0.004766  d :     0.052977
      dxz     :     0.016484
      dyz     :     0.002176
      dx2y2   :     0.013133
      dxy     :     0.016418
      f0      :     0.000493  f :     0.005610
      f+1     :     0.000892
      f-1     :     0.000262
      f+2     :     0.000966
      f-2     :     0.000224
      f+3     :     0.001395
      f-3     :     0.001378
  3 H s       :     0.825966  s :     0.825966
      pz      :     0.011009  p :     0.023370
      px      :     0.007767
      py      :     0.004594
  4 H s       :     0.831389  s :     0.831389
      pz      :     0.009441  p :     0.018537
      px      :     0.005913
      py      :     0.003184
  5 H s       :     0.828878  s :     0.828878
      pz      :     0.009922  p :     0.024772
      px      :     0.007632
      py      :     0.007218
  6 H s       :     0.848752  s :     0.848752
      pz      :     0.009690  p :     0.022221
      px      :     0.006240
      py      :     0.006291


                     *******************************
                     * LOEWDIN POPULATION ANALYSIS *
                     *******************************

----------------------
LOEWDIN ATOMIC CHARGES
----------------------
   0 O :    0.082882
   1 C :   -0.354957
   2 C :   -0.257178
   3 H :    0.120431
   4 H :    0.173238
   5 H :    0.109542
   6 H :    0.126042

-------------------------------
LOEWDIN REDUCED ORBITAL CHARGES
-------------------------------
  0 O s       :     3.603395  s :     3.603395
      pz      :     1.047178  p :     4.259091
      px      :     1.804458
      py      :     1.407455
      dz2     :     0.007980  d :     0.051870
      dxz     :     0.000932
      dyz     :     0.010086
      dx2y2   :     0.015437
      dxy     :     0.017434
      f0      :     0.000264  f :     0.002763
      f+1     :     0.000030
      f-1     :     0.000372
      f+2     :     0.000411
      f-2     :     0.000056
      f+3     :     0.000944
      f-3     :     0.000685
  1 C s       :     2.817336  s :     2.817336
      pz      :     1.014768  p :     2.938225
      px      :     1.109364
      py      :     0.814093
      dz2     :     0.057976  d :     0.524383
      dxz     :     0.124110
      dyz     :     0.051979
      dx2y2   :     0.153942
      dxy     :     0.136376
      f0      :     0.005984  f :     0.075013
      f+1     :     0.005584
      f-1     :     0.006742
      f+2     :     0.010345
      f-2     :     0.001870
      f+3     :     0.021217
      f-3     :     0.023271
  2 C s       :     2.885308  s :     2.885308
      pz      :     1.059738  p :     3.046876
      px      :     1.080311
      py      :     0.906828
      dz2     :     0.036446  d :     0.292253
      dxz     :     0.119514
      dyz     :     0.008720
      dx2y2   :     0.053010
      dxy     :     0.074564
      f0      :     0.003777  f :     0.032741
      f+1     :     0.004511
      f-1     :     0.002043
      f+2     :     0.005308
      f-2     :     0.001067
      f+3     :     0.008012
      f-3     :     0.008024
  3 H s       :     0.805696  s :     0.805696
      pz      :     0.036297  p :     0.073873
      px      :     0.022790
      py      :     0.014786
  4 H s       :     0.778233  s :     0.778233
      pz      :     0.025952  p :     0.048528
      px      :     0.014304
      py      :     0.008272
  5 H s       :     0.817090  s :     0.817090
      pz      :     0.031516  p :     0.073368
      px      :     0.021098
      py      :     0.020753
  6 H s       :     0.812364  s :     0.812364
      pz      :     0.028373  p :     0.061594
      px      :     0.016106
      py      :     0.017115


                      *****************************
                      * MAYER POPULATION ANALYSIS *
                      *****************************

  NA   - Mulliken gross atomic population
  ZA   - Total nuclear charge
  QA   - Mulliken gross atomic charge
  VA   - Mayer's total valence
  BVA  - Mayer's bonded valence
  FA   - Mayer's free valence

  ATOM       NA         ZA         QA         VA         BVA        FA
  0 O      8.1859     8.0000    -0.1859     1.9175     1.0871     0.8304
  1 C      6.0688     6.0000    -0.0688     4.0323     3.9591     0.0732
  2 C      6.3214     6.0000    -0.3214     3.9156     3.1422     0.7734
  3 H      0.8493     1.0000     0.1507     0.9584     0.9295     0.0289
  4 H      0.8499     1.0000     0.1501     0.9588     0.8974     0.0614
  5 H      0.8537     1.0000     0.1463     0.9727     0.9661     0.0066
  6 H      0.8710     1.0000     0.1290     0.9754     0.9670     0.0084

  Mayer bond orders larger than 0.100000
B(  0-O ,  1-C ) :   1.0025 B(  1-C ,  2-C ) :   1.1453 B(  1-C ,  3-H ) :   0.9277 
B(  1-C ,  4-H ) :   0.8802 B(  2-C ,  5-H ) :   0.9592 B(  2-C ,  6-H ) :   0.9568 



-------
TIMINGS
-------

Total TD-DFT gradient time         ...        5.200 sec

Fock matrix formation       ....       0.819 sec  ( 15.8%)
  Coulomb formation         ....       0.669 sec  ( 81.6% of F)
  RI-J                      ....       0.295 sec  ( 35.9% of F)
  Chain of spheres X        ....       0.374 sec  ( 45.6% of F)
  XC integration            ....       0.150 sec  ( 18.4% of F)
Z-vector equation           ....       1.708 sec  ( 32.8%)
One electron gradient       ....       0.032 sec  (  0.6%)
Prescreening matrices       ....       0.153 sec  (  2.9%)
RI-J Coulomb gradient       ....       0.249 sec  (  4.8%)
COSX gradient               ....       0.337 sec  (  6.5%)
XC gradient                 ....       1.583 sec  ( 30.4%)

Maximum memory used throughout the entire SCFGRAD-calculation: 130.2 MB

                            ***************************************
                            *     ORCA property calculations      *
                            ***************************************

                                    ---------------------
                                    Active property flags
                                    ---------------------
   (+) Dipole Moment


------------------------------------------------------------------------------
                       ORCA ELECTRIC PROPERTIES CALCULATION
------------------------------------------------------------------------------

Dipole Moment Calculation                       ... on
Quadrupole Moment Calculation                   ... off
Polarizability Calculation                      ... off
GBWName                                         ... ox_es1_C_orca0000.gbw
Electron density                                ... ox_es1_C_orca0000.scfp
The origin for moment calculation is the CENTER OF MASS  = (-0.357315,  0.129781 -0.008737)

-------------
DIPOLE MOMENT
-------------
                                X             Y             Z
Electronic contribution:     -0.32160       1.52973       0.01619
Nuclear contribution   :      0.75622      -2.73175       0.07737
                        -----------------------------------------
Total Dipole Moment    :      0.43461      -1.20202       0.09356
                        -----------------------------------------
Magnitude (a.u.)       :      1.28160
Magnitude (Debye)      :      3.25757



--------------------
Rotational spectrum 
--------------------
 
Rotational constants in cm-1:     1.002344     0.485728     0.374696 
Rotational constants in MHz : 30049.529019 14561.749765 11233.107451 

 Dipole components along the rotational axes: 
x,y,z [a.u.] :    -1.195080    -0.462545     0.018410 
x,y,z [Debye]:    -3.037652    -1.175696     0.046794 

 

                        *** CIS RELAXED DENSITY ***

------------------------------------------------------------------------------
                       ORCA ELECTRIC PROPERTIES CALCULATION
------------------------------------------------------------------------------

Dipole Moment Calculation                       ... on
Quadrupole Moment Calculation                   ... off
Polarizability Calculation                      ... off
GBWName                                         ... ox_es1_C_orca0000.gbw
Electron density                                ... ox_es1_C_orca0000.cisp
The origin for moment calculation is the CENTER OF MASS  = (-0.357315,  0.129781 -0.008737)

-------------
DIPOLE MOMENT
-------------
                                X             Y             Z
Electronic contribution:     -0.98376       1.97049      -0.03044
Nuclear contribution   :      0.75622      -2.73175       0.07737
                        -----------------------------------------
Total Dipole Moment    :     -0.22755      -0.76126       0.04693
                        -----------------------------------------
Magnitude (a.u.)       :      0.79593
Magnitude (Debye)      :      2.02309



--------------------
Rotational spectrum 
--------------------
 
Rotational constants in cm-1:     1.002344     0.485728     0.374696 
Rotational constants in MHz : 30049.529019 14561.749765 11233.107451 

 Dipole components along the rotational axes: 
x,y,z [a.u.] :    -0.426923    -0.671565    -0.015433 
x,y,z [Debye]:    -1.085152    -1.706982    -0.039227 

 

Timings for individual modules:

Sum of individual times         ...        7.592 sec (=   0.127 min)
GTO integral calculation        ...        0.252 sec (=   0.004 min)   3.3 %
SCF iterations                  ...        1.162 sec (=   0.019 min)  15.3 %
CIS module                      ...        0.813 sec (=   0.014 min)  10.7 %
SCF Gradient evaluation         ...        5.366 sec (=   0.089 min)  70.7 %
                             ****ORCA TERMINATED NORMALLY****
TOTAL RUN TIME: 0 days 0 hours 0 minutes 7 seconds 952 msec
