
                                 *****************
                                 * O   R   C   A *
                                 *****************

                                            #,                                       
                                            ###                                      
                                            ####                                     
                                            #####                                    
                                            ######                                   
                                           ########,                                 
                                     ,,################,,,,,                         
                               ,,#################################,,                 
                          ,,##########################################,,             
                       ,#########################################, ''#####,          
                    ,#############################################,,   '####,        
                  ,##################################################,,,,####,       
                ,###########''''           ''''###############################       
              ,#####''   ,,,,##########,,,,          '''####'''          '####       
            ,##' ,,,,###########################,,,                        '##       
           ' ,,###''''                  '''############,,,                           
         ,,##''                                '''############,,,,        ,,,,,,###''
      ,#''                                            '''#######################'''  
     '                                                          ''''####''''         
             ,#######,   #######,   ,#######,      ##                                
            ,#'     '#,  ##    ##  ,#'     '#,    #''#        ######   ,####,        
            ##       ##  ##   ,#'  ##            #'  '#       #        #'  '#        
            ##       ##  #######   ##           ,######,      #####,   #    #        
            '#,     ,#'  ##    ##  '#,     ,#' ,#      #,         ##   #,  ,#        
             '#######'   ##     ##  '#######'  #'      '#     #####' # '####'        



                  #######################################################
                  #                        -***-                        #
                  #          Department of theory and spectroscopy      #
                  #    Directorship and core code : Frank Neese         #
                  #        Max Planck Institute fuer Kohlenforschung    #
                  #                Kaiser Wilhelm Platz 1               #
                  #                 D-45470 Muelheim/Ruhr               #
                  #                      Germany                        #
                  #                                                     #
                  #                  All rights reserved                #
                  #                        -***-                        #
                  #######################################################


                         Program Version 5.0.2 -  RELEASE  -


 With contributions from (in alphabetic order):
   Daniel Aravena         : Magnetic Suceptibility
   Michael Atanasov       : Ab Initio Ligand Field Theory (pilot matlab implementation)
   Alexander A. Auer      : GIAO ZORA, VPT2 properties, NMR spectrum
   Ute Becker             : Parallelization
   Giovanni Bistoni       : ED, misc. LED, open-shell LED, HFLD
   Martin Brehm           : Molecular dynamics
   Dmytro Bykov           : SCF Hessian
   Vijay G. Chilkuri      : MRCI spin determinant printing, contributions to CSF-ICE
   Dipayan Datta          : RHF DLPNO-CCSD density
   Achintya Kumar Dutta   : EOM-CC, STEOM-CC
   Dmitry Ganyushin       : Spin-Orbit,Spin-Spin,Magnetic field MRCI
   Miquel Garcia          : C-PCM and meta-GGA Hessian, CC/C-PCM, Gaussian charge scheme
   Yang Guo               : DLPNO-NEVPT2, F12-NEVPT2, CIM, IAO-localization
   Andreas Hansen         : Spin unrestricted coupled pair/coupled cluster methods
   Benjamin Helmich-Paris : MC-RPA, TRAH-SCF, COSX integrals
   Lee Huntington         : MR-EOM, pCC
   Robert Izsak           : Overlap fitted RIJCOSX, COSX-SCS-MP3, EOM
   Marcus Kettner         : VPT2
   Christian Kollmar      : KDIIS, OOCD, Brueckner-CCSD(T), CCSD density, CASPT2, CASPT2-K
   Simone Kossmann        : Meta GGA functionals, TD-DFT gradient, OOMP2, MP2 Hessian
   Martin Krupicka        : Initial AUTO-CI
   Lucas Lang             : DCDCAS
   Marvin Lechner         : AUTO-CI (C++ implementation), FIC-MRCC
   Dagmar Lenk            : GEPOL surface, SMD
   Dimitrios Liakos       : Extrapolation schemes; Compound Job, initial MDCI parallelization
   Dimitrios Manganas     : Further ROCIS development; embedding schemes
   Dimitrios Pantazis     : SARC Basis sets
   Anastasios Papadopoulos: AUTO-CI, single reference methods and gradients
   Taras Petrenko         : DFT Hessian,TD-DFT gradient, ASA, ECA, R-Raman, ABS, FL, XAS/XES, NRVS
   Peter Pinski           : DLPNO-MP2, DLPNO-MP2 Gradient
   Christoph Reimann      : Effective Core Potentials
   Marius Retegan         : Local ZFS, SOC
   Christoph Riplinger    : Optimizer, TS searches, QM/MM, DLPNO-CCSD(T), (RO)-DLPNO pert. Triples
   Tobias Risthaus        : Range-separated hybrids, TD-DFT gradient, RPA, STAB
   Michael Roemelt        : Original ROCIS implementation
   Masaaki Saitow         : Open-shell DLPNO-CCSD energy and density
   Barbara Sandhoefer     : DKH picture change effects
   Avijit Sen             : IP-ROCIS
   Kantharuban Sivalingam : CASSCF convergence, NEVPT2, FIC-MRCI
   Bernardo de Souza      : ESD, SOC TD-DFT
   Georgi Stoychev        : AutoAux, RI-MP2 NMR, DLPNO-MP2 response
   Willem Van den Heuvel  : Paramagnetic NMR
   Boris Wezisla          : Elementary symmetry handling
   Frank Wennmohs         : Technical directorship


 We gratefully acknowledge several colleagues who have allowed us to
 interface, adapt or use parts of their codes:
   Stefan Grimme, W. Hujo, H. Kruse, P. Pracht,  : VdW corrections, initial TS optimization,
                  C. Bannwarth, S. Ehlert          DFT functionals, gCP, sTDA/sTD-DF
   Ed Valeev, F. Pavosevic, A. Kumar             : LibInt (2-el integral package), F12 methods
   Garnet Chan, S. Sharma, J. Yang, R. Olivares  : DMRG
   Ulf Ekstrom                                   : XCFun DFT Library
   Mihaly Kallay                                 : mrcc  (arbitrary order and MRCC methods)
   Jiri Pittner, Ondrej Demel                    : Mk-CCSD
   Frank Weinhold                                : gennbo (NPA and NBO analysis)
   Christopher J. Cramer and Donald G. Truhlar   : smd solvation model
   Lars Goerigk                                  : TD-DFT with DH, B97 family of functionals
   V. Asgeirsson, H. Jonsson                     : NEB implementation
   FAccTs GmbH                                   : IRC, NEB, NEB-TS, DLPNO-Multilevel, CI-OPT
                                                   MM, QMMM, 2- and 3-layer-ONIOM, Crystal-QMMM,
                                                   LR-CPCM, SF, NACMEs, symmetry and pop. for TD-DFT,
                                                   nearIR, NL-DFT gradient (VV10), updates on ESD,
                                                   ML-optimized integration grids
   S Lehtola, MJT Oliveira, MAL Marques          : LibXC Library
   Liviu Ungur et al                             : ANISO software


 Your calculation uses the libint2 library for the computation of 2-el integrals
 For citations please refer to: http://libint.valeyev.net

 Your ORCA version has been built with support for libXC version: 5.1.0
 For citations please refer to: https://tddft.org/programs/libxc/

 This ORCA versions uses:
   CBLAS   interface :  Fast vector & matrix operations
   LAPACKE interface :  Fast linear algebra routines
   SCALAPACK package :  Parallel linear algebra routines
   Shared memory     :  Shared parallel matrices
   BLAS/LAPACK       :  OpenBLAS 0.3.15  USE64BITINT DYNAMIC_ARCH NO_AFFINITY SkylakeX SINGLE_THREADED
        Core in use  :  SkylakeX
   Copyright (c) 2011-2014, The OpenBLAS Project


Your calculation utilizes the atom-pairwise dispersion correction
with the Becke-Johnson damping scheme (D3BJ)
Cite in your paper:
S.Grimme, S.Ehrlich, L.Goerigk, J Comput Chem, (2011), 32, 1456–1465 
S.Grimme, J.Antony, S.Ehrlich and H.Krieg, J.Chem.Phys., 132, (2010), 154104 
   

================================================================================

----- Orbital basis set information -----
Your calculation utilizes the basis: def2-TZVP
   F. Weigend and R. Ahlrichs, Phys. Chem. Chem. Phys. 7, 3297 (2005).

----- AuxJ basis set information -----
Your calculation utilizes the auxiliary basis: def2/J
   F. Weigend, Phys. Chem. Chem. Phys. 8, 1057 (2006).

================================================================================
                                        WARNINGS
                       Please study these warnings very carefully!
================================================================================


INFO   : the flag for use of the SHARK integral package has been found!

================================================================================
                                       INPUT FILE
================================================================================
NAME = ox_gs_E_orca0007.inp
|  1> ! engrad PBE0 D3BJ def2-TZVP  
|  2> %pal nprocs 8 end
|  3> %maxcore 3000
|  4>  
|  5> *xyz 0 1 
|  6> O   -0.9720642135052606 1.0336636943516813 -0.029304202515011677
|  7> C   -0.7473255550960107 -0.547893472121608 -0.002815920167265067
|  8> C   0.7977210328529762 -0.45946670354499464 -0.0795783903989652
|  9> H   -1.3536037655378748 -0.7293974173636603 0.9178510624101837
| 10> H   -1.2144657683553732 -0.7207085992371328 -0.8810982708147088
| 11> H   1.3120554328370384 -0.6506988044171761 -0.9947967974298769
| 12> H   1.2630774172247485 -0.7101075273864327 0.8911740299132366
| 13> *
| 14> 
| 15>                          ****END OF INPUT****
================================================================================

                     *******************************
                     * Energy+Gradient Calculation *
                     *******************************

---------------------------------
CARTESIAN COORDINATES (ANGSTROEM)
---------------------------------
  O     -0.972064    1.033664   -0.029304
  C     -0.747326   -0.547893   -0.002816
  C      0.797721   -0.459467   -0.079578
  H     -1.353604   -0.729397    0.917851
  H     -1.214466   -0.720709   -0.881098
  H      1.312055   -0.650699   -0.994797
  H      1.263077   -0.710108    0.891174

----------------------------
CARTESIAN COORDINATES (A.U.)
----------------------------
  NO LB      ZA    FRAG     MASS         X           Y           Z
   0 O     8.0000    0    15.999   -1.836935    1.953341   -0.055377
   1 C     6.0000    0    12.011   -1.412241   -1.035369   -0.005321
   2 C     6.0000    0    12.011    1.507474   -0.868266   -0.150381
   3 H     1.0000    0     1.008   -2.557940   -1.378361    1.734487
   4 H     1.0000    0     1.008   -2.295008   -1.361942   -1.665034
   5 H     1.0000    0     1.008    2.479425   -1.229643   -1.879894
   6 H     1.0000    0     1.008    2.386870   -1.341909    1.684075

--------------------------------
INTERNAL COORDINATES (ANGSTROEM)
--------------------------------
 O      0   0   0     0.000000000000     0.00000000     0.00000000
 C      1   0   0     1.597664597000     0.00000000     0.00000000
 C      2   1   0     1.549477566527    94.75814999     0.00000000
 H      2   1   3     1.117203939934    95.63271302   127.18225882
 H      2   1   3     1.009685562174    95.15953612   243.97561490
 H      3   2   1     1.067114953498   120.85516823   257.27559572
 H      3   2   1     1.105322418389   111.30668832   106.78496867

---------------------------
INTERNAL COORDINATES (A.U.)
---------------------------
 O      0   0   0     0.000000000000     0.00000000     0.00000000
 C      1   0   0     3.019148542192     0.00000000     0.00000000
 C      2   1   0     2.928088251390    94.75814999     0.00000000
 H      2   1   3     2.111209482212    95.63271302   127.18225882
 H      2   1   3     1.908029193883    95.15953612   243.97561490
 H      3   2   1     2.016555015523   120.85516823   257.27559572
 H      3   2   1     2.088756660439   111.30668832   106.78496867

---------------------
BASIS SET INFORMATION
---------------------
There are 3 groups of distinct atoms

 Group   1 Type O   : 11s6p2d1f contracted to 5s3p2d1f pattern {62111/411/11/1}
 Group   2 Type C   : 11s6p2d1f contracted to 5s3p2d1f pattern {62111/411/11/1}
 Group   3 Type H   : 5s1p contracted to 3s1p pattern {311/1}

Atom   0O    basis set group =>   1
Atom   1C    basis set group =>   2
Atom   2C    basis set group =>   2
Atom   3H    basis set group =>   3
Atom   4H    basis set group =>   3
Atom   5H    basis set group =>   3
Atom   6H    basis set group =>   3
---------------------------------
AUXILIARY/J BASIS SET INFORMATION
---------------------------------
There are 3 groups of distinct atoms

 Group   1 Type O   : 12s5p4d2f1g contracted to 6s4p3d1f1g pattern {711111/2111/211/2/1}
 Group   2 Type C   : 12s5p4d2f1g contracted to 6s4p3d1f1g pattern {711111/2111/211/2/1}
 Group   3 Type H   : 5s2p1d contracted to 3s1p1d pattern {311/2/1}

Atom   0O    basis set group =>   1
Atom   1C    basis set group =>   2
Atom   2C    basis set group =>   2
Atom   3H    basis set group =>   3
Atom   4H    basis set group =>   3
Atom   5H    basis set group =>   3
Atom   6H    basis set group =>   3


           ************************************************************
           *        Program running with 8 parallel MPI-processes     *
           *              working on a common directory               *
           ************************************************************
------------------------------------------------------------------------------
                           ORCA GTO INTEGRAL CALCULATION
                           -- RI-GTO INTEGRALS CHOSEN --
------------------------------------------------------------------------------
------------------------------------------------------------------------------
                   ___                                                        
                  /   \      - P O W E R E D   B Y -                         
                 /     \                                                     
                 |  |  |   _    _      __       _____    __    __             
                 |  |  |  | |  | |    /  \     |  _  \  |  |  /  |          
                  \  \/   | |  | |   /    \    | | | |  |  | /  /          
                 / \  \   | |__| |  /  /\  \   | |_| |  |  |/  /          
                |  |  |   |  __  | /  /__\  \  |    /   |      \           
                |  |  |   | |  | | |   __   |  |    \   |  |\   \          
                \     /   | |  | | |  |  |  |  | |\  \  |  | \   \       
                 \___/    |_|  |_| |__|  |__|  |_| \__\ |__|  \__/        
                                                                              
                      - O R C A' S   B I G   F R I E N D -                    
                                      &                                       
                       - I N T E G R A L  F E E D E R -                       
                                                                              
 v1 FN, 2020, v2 2021                                                         
------------------------------------------------------------------------------


Reading SHARK input file ox_gs_E_orca0007.SHARKINP.tmp ... ok
----------------------
SHARK INTEGRAL PACKAGE
----------------------

Number of atoms                             ...      7
Number of basis functions                   ...    117
Number of shells                            ...     49
Maximum angular momentum                    ...      3
Integral batch strategy                     ... SHARK/LIBINT Hybrid
RI-J (if used) integral strategy            ... SPLIT-RIJ (Revised 2003 algorithm where possible)
Printlevel                                  ...      1
Contraction scheme used                     ... SEGMENTED contraction
Coulomb Range Separation                    ... NOT USED
Exchange Range Separation                   ... NOT USED
Finite Nucleus Model                        ... NOT USED
Auxiliary Coulomb fitting basis             ... AVAILABLE
   # of basis functions in Aux-J            ...    191
   # of shells in Aux-J                     ...     65
   Maximum angular momentum in Aux-J        ...      4
Auxiliary J/K fitting basis                 ... NOT available
Auxiliary Correlation fitting basis         ... NOT available
Auxiliary 'external' fitting basis          ... NOT available
Integral threshold                          ...     2.500000e-11
Primitive cut-off                           ...     2.500000e-12
Primitive pair pre-selection threshold      ...     2.500000e-12

Calculating pre-screening integrals         ... done (  0.0 sec) Dimension = 49
Organizing shell pair data                  ... done (  0.0 sec)
Shell pair information
Total number of shell pairs                 ...      1225
Shell pairs after pre-screening             ...      1213
Total number of primitive shell pairs       ...      3648
Primitive shell pairs kept                  ...      3071
          la=0 lb=0:    367 shell pairs
          la=1 lb=0:    351 shell pairs
          la=1 lb=1:     91 shell pairs
          la=2 lb=0:    161 shell pairs
          la=2 lb=1:     78 shell pairs
          la=2 lb=2:     21 shell pairs
          la=3 lb=0:     81 shell pairs
          la=3 lb=1:     39 shell pairs
          la=3 lb=2:     18 shell pairs
          la=3 lb=3:      6 shell pairs

Calculating one electron integrals          ... done (  0.0 sec)
Calculating RI/J V-Matrix + Cholesky decomp.... done (  0.0 sec)
Calculating Nuclear repulsion               ... done (  0.0 sec) ENN=     64.991842893664 Eh

SHARK setup successfully completed in   0.1 seconds

Maximum memory used throughout the entire GTOINT-calculation: 14.9 MB


           ************************************************************
           *        Program running with 8 parallel MPI-processes     *
           *              working on a common directory               *
           ************************************************************
-------------------------------------------------------------------------------
                                 ORCA SCF
-------------------------------------------------------------------------------

------------
SCF SETTINGS
------------
Hamiltonian:
 Density Functional     Method          .... DFT(GTOs)
 Exchange Functional    Exchange        .... PBE
   PBE kappa parameter   XKappa         ....  0.804000
   PBE mue parameter    XMuePBE         ....  0.219520
 Correlation Functional Correlation     .... PBE
   PBE beta parameter  CBetaPBE         ....  0.066725
 LDA part of GGA corr.  LDAOpt          .... PW91-LDA
 Gradients option       PostSCFGGA      .... off
 Hybrid DFT is turned on
   Fraction HF Exchange ScalHFX         ....  0.250000
   Scaling of DF-GGA-X  ScalDFX         ....  0.750000
   Scaling of DF-GGA-C  ScalDFC         ....  1.000000
   Scaling of DF-LDA-C  ScalLDAC        ....  1.000000
   Perturbative correction              ....  0.000000
   Density functional embedding theory  .... OFF
   NL short-range parameter             ....  6.900000
 RI-approximation to the Coulomb term is turned on
   Number of AuxJ basis functions       .... 191
   RIJ-COSX (HFX calculated with COS-X)).... on


General Settings:
 Integral files         IntName         .... ox_gs_E_orca0007
 Hartree-Fock type      HFTyp           .... RHF
 Total Charge           Charge          ....    0
 Multiplicity           Mult            ....    1
 Number of Electrons    NEL             ....   24
 Basis Dimension        Dim             ....  117
 Nuclear Repulsion      ENuc            ....     64.9918428937 Eh

Convergence Acceleration:
 DIIS                   CNVDIIS         .... on
   Start iteration      DIISMaxIt       ....    12
   Startup error        DIISStart       ....  0.200000
   # of expansion vecs  DIISMaxEq       ....     5
   Bias factor          DIISBfac        ....   1.050
   Max. coefficient     DIISMaxC        ....  10.000
 Trust-Rad. Augm. Hess. CNVTRAH         .... auto
   Auto Start mean grad. ratio tolernc. ....  1.125000
   Auto Start start iteration           ....    20
   Auto Start num. interpolation iter.  ....    10
   Max. Number of Micro iterations      ....    16
   Max. Number of Macro iterations      .... Maxiter - #DIIS iter
   Number of Davidson start vectors     ....     2
   Converg. threshold I  (grad. norm)   ....   1.000e-05
   Converg. threshold II (energy diff.) ....   1.000e-08
   Grad. Scal. Fac. for Micro threshold ....   0.100
   Minimum threshold for Micro iter.    ....   0.010
   NR start threshold (gradient norm)   ....   0.001
   Initial trust radius                 ....   0.400
   Minimum AH scaling param. (alpha)    ....   1.000
   Maximum AH scaling param. (alpha)    .... 1000.000
   Orbital update algorithm             .... Taylor
   White noise on init. David. guess    .... on
   Maximum white noise                  ....   0.010
   Quad. conv. algorithm                .... NR
 SOSCF                  CNVSOSCF        .... on
   Start iteration      SOSCFMaxIt      ....   150
   Startup grad/error   SOSCFStart      ....  0.003300
 Level Shifting         CNVShift        .... on
   Level shift para.    LevelShift      ....    0.2500
   Turn off err/grad.   ShiftErr        ....    0.0010
 Zerner damping         CNVZerner       .... off
 Static damping         CNVDamp         .... on
   Fraction old density DampFac         ....    0.7000
   Max. Damping (<1)    DampMax         ....    0.9800
   Min. Damping (>=0)   DampMin         ....    0.0000
   Turn off err/grad.   DampErr         ....    0.1000
 Fernandez-Rico         CNVRico         .... off

SCF Procedure:
 Maximum # iterations   MaxIter         ....   125
 SCF integral mode      SCFMode         .... Direct
   Integral package                     .... SHARK and LIBINT hybrid scheme
 Reset frequency        DirectResetFreq ....    20
 Integral Threshold     Thresh          ....  2.500e-11 Eh
 Primitive CutOff       TCut            ....  2.500e-12 Eh

Convergence Tolerance:
 Convergence Check Mode ConvCheckMode   .... Total+1el-Energy
 Convergence forced     ConvForced      .... 0
 Energy Change          TolE            ....  1.000e-08 Eh
 1-El. energy change                    ....  1.000e-05 Eh
 Orbital Gradient       TolG            ....  1.000e-05
 Orbital Rotation angle TolX            ....  1.000e-05
 DIIS Error             TolErr          ....  5.000e-07


Diagonalization of the overlap matrix:
Smallest eigenvalue                        ... 7.662e-04
Time for diagonalization                   ...    0.001 sec
Threshold for overlap eigenvalues          ... 1.000e-08
Number of eigenvalues below threshold      ... 0
Time for construction of square roots      ...    0.001 sec
Total time needed                          ...    0.003 sec

Time for model grid setup =    0.024 sec

------------------------------
INITIAL GUESS: MODEL POTENTIAL
------------------------------
Loading Hartree-Fock densities                     ... done
Calculating cut-offs                               ... done
Initializing the effective Hamiltonian             ... done
Setting up the integral package (SHARK)            ... done
Starting the Coulomb interaction                   ... done (   0.0 sec)
Reading the grid                                   ... done
Mapping shells                                     ... done
Starting the XC term evaluation                    ... done (   0.0 sec)
  promolecular density results
     # of electrons  =     23.998279348
     EX              =    -19.399366613
     EC              =     -0.755455815
     EX+EC           =    -20.154822429
Transforming the Hamiltonian                       ... done (   0.0 sec)
Diagonalizing the Hamiltonian                      ... done (   0.0 sec)
Back transforming the eigenvectors                 ... done (   0.0 sec)
Now organizing SCF variables                       ... done
                      ------------------
                      INITIAL GUESS DONE (   0.0 sec)
                      ------------------
-------------------
DFT GRID GENERATION
-------------------

General Integration Accuracy     IntAcc      ... 4.388
Radial Grid Type                 RadialGrid  ... OptM3 with GC (2021)
Angular Grid (max. ang.)         AngularGrid ... 4 (Lebedev-302)
Angular grid pruning method      GridPruning ... 4 (adaptive)
Weight generation scheme         WeightScheme... Becke
Basis function cutoff            BFCut       ... 1.0000e-11
Integration weight cutoff        WCut        ... 1.0000e-14
Angular grids for H and He will be reduced by one unit
Partially contracted basis set               ... off
Rotationally invariant grid construction     ... off

Total number of grid points                  ...    31346
Total number of batches                      ...      493
Average number of points per batch           ...       63
Average number of grid points per atom       ...     4478
Time for grid setup =    0.110 sec

--------------------
COSX GRID GENERATION
--------------------

GRIDX 1
-------
General Integration Accuracy     IntAcc      ... 3.816
Radial Grid Type                 RadialGrid  ... OptM3 with GC (2021)
Angular Grid (max. ang.)         AngularGrid ... 1 (Lebedev-50)
Angular grid pruning method      GridPruning ... 4 (adaptive)
Weight generation scheme         WeightScheme... Becke
Basis function cutoff            BFCut       ... 1.0000e-11
Integration weight cutoff        WCut        ... 1.0000e-14
Angular grids for H and He will be reduced by one unit
Partially contracted basis set               ... on
Rotationally invariant grid construction     ... off

Total number of grid points                  ...     4039
Total number of batches                      ...       68
Average number of points per batch           ...       59
Average number of grid points per atom       ...      577
UseSFitting                                  ... on

GRIDX 2
-------
General Integration Accuracy     IntAcc      ... 4.020
Radial Grid Type                 RadialGrid  ... OptM3 with GC (2021)
Angular Grid (max. ang.)         AngularGrid ... 2 (Lebedev-110)
Angular grid pruning method      GridPruning ... 4 (adaptive)
Weight generation scheme         WeightScheme... Becke
Basis function cutoff            BFCut       ... 1.0000e-11
Integration weight cutoff        WCut        ... 1.0000e-14
Angular grids for H and He will be reduced by one unit
Partially contracted basis set               ... on
Rotationally invariant grid construction     ... off

Total number of grid points                  ...     8738
Total number of batches                      ...      140
Average number of points per batch           ...       62
Average number of grid points per atom       ...     1248
UseSFitting                                  ... on

GRIDX 3
-------
General Integration Accuracy     IntAcc      ... 4.338
Radial Grid Type                 RadialGrid  ... OptM3 with GC (2021)
Angular Grid (max. ang.)         AngularGrid ... 3 (Lebedev-194)
Angular grid pruning method      GridPruning ... 4 (adaptive)
Weight generation scheme         WeightScheme... Becke
Basis function cutoff            BFCut       ... 1.0000e-11
Integration weight cutoff        WCut        ... 1.0000e-14
Angular grids for H and He will be reduced by one unit
Partially contracted basis set               ... on
Rotationally invariant grid construction     ... off

Total number of grid points                  ...    19287
Total number of batches                      ...      307
Average number of points per batch           ...       62
Average number of grid points per atom       ...     2755
UseSFitting                                  ... on

Time for X-Grid setup             =    0.077 sec

--------------
SCF ITERATIONS
--------------
ITER       Energy         Delta-E        Max-DP      RMS-DP      [F,P]     Damp
               ***  Starting incremental Fock matrix formation  ***
  0   -153.3306478784   0.000000000000 0.10139010  0.00274436  0.3483990 0.7000
  1   -153.4379332546  -0.107285376280 0.05798228  0.00137784  0.0748147 0.7000
                               ***Turning on DIIS***
  2   -153.4460543538  -0.008121099181 0.05504672  0.00196103  0.0858187 0.0000
  3   -153.5136875281  -0.067633174317 0.01957822  0.00089195  0.0464566 0.0000
  4   -153.5181511810  -0.004463652840 0.00779202  0.00029259  0.0354019 0.0000
  5   -153.5196997343  -0.001548553312 0.00312811  0.00011035  0.0090831 0.0000
                      *** Initiating the SOSCF procedure ***
                           *** Shutting down DIIS ***
                      *** Re-Reading the Fockian *** 
                      *** Removing any level shift *** 
ITER      Energy       Delta-E        Grad      Rot      Max-DP    RMS-DP
  6   -153.51984640  -0.0001466664  0.001098  0.001098  0.000808  0.000040
               *** Restarting incremental Fock matrix formation ***
  7   -153.51986145  -0.0000150512  0.000720  0.003215  0.000975  0.000039
  8   -153.51986804  -0.0000065841  0.000400  0.003942  0.001745  0.000061
  9   -153.51985797   0.0000100676  0.001382  0.002546  0.001266  0.000039
 10   -153.51986932  -0.0000113468  0.000154  0.000740  0.000370  0.000016
 11   -153.51986907   0.0000002500  0.000185  0.000457  0.000215  0.000009
 12   -153.51986975  -0.0000006887  0.000008  0.000017  0.000018  0.000001
 13   -153.51986975   0.0000000001  0.000006  0.000005  0.000007  0.000000
                 **** Energy Check signals convergence ****
              ***Rediagonalizing the Fockian in SOSCF/NRSCF***

               *****************************************************
               *                     SUCCESS                       *
               *           SCF CONVERGED AFTER  14 CYCLES          *
               *****************************************************

Old exchange energy                            =     -4.931106622 Eh
New exchange energy                            =     -4.931110194 Eh
Exchange energy change after final integration =     -0.000003572 Eh
Total energy after final integration           =   -153.519873327 Eh
Final COS-X integration done in                =     0.306 sec

----------------
TOTAL SCF ENERGY
----------------

Total Energy       :         -153.51987333 Eh           -4177.48813 eV

Components:
Nuclear Repulsion  :           64.99184289 Eh            1768.51795 eV
Electronic Energy  :         -218.51171622 Eh           -5946.00609 eV
One Electron Energy:         -336.93538300 Eh           -9168.47789 eV
Two Electron Energy:          118.42366678 Eh            3222.47180 eV
Max COSX asymmetry :            0.00000129 Eh               0.00004 eV

Virial components:
Potential Energy   :         -306.00358397 Eh           -8326.78085 eV
Kinetic Energy     :          152.48371064 Eh            4149.29271 eV
Virial Ratio       :            2.00679524


DFT components:
N(Alpha)           :       12.000002060986 electrons
N(Beta)            :       12.000002060986 electrons
N(Total)           :       24.000004121972 electrons
E(X)               :      -14.821897416012 Eh       
E(C)               :       -0.762644996224 Eh       
E(XC)              :      -15.584542412235 Eh       
DFET-embed. en.    :        0.000000000000 Eh       

---------------
SCF CONVERGENCE
---------------

  Last Energy change         ...   -1.5973e-09  Tolerance :   1.0000e-08
  Last MAX-Density change    ...    1.1102e-15  Tolerance :   1.0000e-07
  Last RMS-Density change    ...    2.2023e-17  Tolerance :   5.0000e-09
  Last Orbital Gradient      ...    5.2637e-07  Tolerance :   1.0000e-05
  Last Orbital Rotation      ...    2.5756e-06  Tolerance :   1.0000e-05

             **** THE GBW FILE WAS UPDATED (ox_gs_E_orca0007.gbw) ****
             **** DENSITY ox_gs_E_orca0007.scfp WAS UPDATED ****
             **** ENERGY FILE WAS UPDATED (ox_gs_E_orca0007.en.tmp) ****
             **** THE GBW FILE WAS UPDATED (ox_gs_E_orca0007.gbw) ****
             **** DENSITY ox_gs_E_orca0007.scfp WAS UPDATED ****
----------------
ORBITAL ENERGIES
----------------

  NO   OCC          E(Eh)            E(eV) 
   0   2.0000     -19.203758      -522.5608 
   1   2.0000     -10.328505      -281.0529 
   2   2.0000     -10.281524      -279.7745 
   3   2.0000      -0.939397       -25.5623 
   4   2.0000      -0.767511       -20.8850 
   5   2.0000      -0.643511       -17.5108 
   6   2.0000      -0.518659       -14.1134 
   7   2.0000      -0.461454       -12.5568 
   8   2.0000      -0.430614       -11.7176 
   9   2.0000      -0.367927       -10.0118 
  10   2.0000      -0.272812        -7.4236 
  11   2.0000      -0.261239        -7.1087 
  12   0.0000      -0.143918        -3.9162 
  13   0.0000       0.051264         1.3950 
  14   0.0000       0.066152         1.8001 
  15   0.0000       0.084986         2.3126 
  16   0.0000       0.093850         2.5538 
  17   0.0000       0.143491         3.9046 
  18   0.0000       0.177191         4.8216 
  19   0.0000       0.189893         5.1673 
  20   0.0000       0.226139         6.1536 
  21   0.0000       0.246253         6.7009 
  22   0.0000       0.261943         7.1278 
  23   0.0000       0.295800         8.0491 
  24   0.0000       0.338135         9.2011 
  25   0.0000       0.363573         9.8933 
  26   0.0000       0.399412        10.8686 
  27   0.0000       0.425782        11.5861 
  28   0.0000       0.443216        12.0605 
  29   0.0000       0.472593        12.8599 
  30   0.0000       0.505419        13.7531 
  31   0.0000       0.536895        14.6097 
  32   0.0000       0.561810        15.2876 
  33   0.0000       0.598879        16.2963 
  34   0.0000       0.664832        18.0910 
  35   0.0000       0.699941        19.0464 
  36   0.0000       0.768339        20.9076 
  37   0.0000       0.825914        22.4743 
  38   0.0000       0.879775        23.9399 
  39   0.0000       0.909723        24.7548 
  40   0.0000       0.920675        25.0529 
  41   0.0000       1.017594        27.6901 
  42   0.0000       1.056072        28.7372 
  43   0.0000       1.059993        28.8439 
  44   0.0000       1.148581        31.2545 
  45   0.0000       1.326667        36.1004 
  46   0.0000       1.394837        37.9554 
  47   0.0000       1.448064        39.4038 
  48   0.0000       1.490790        40.5665 
  49   0.0000       1.510054        41.0907 
  50   0.0000       1.569841        42.7176 
  51   0.0000       1.577137        42.9161 
  52   0.0000       1.593263        43.3549 
  53   0.0000       1.677039        45.6346 
  54   0.0000       1.707557        46.4650 
  55   0.0000       1.746027        47.5118 
  56   0.0000       1.778804        48.4037 
  57   0.0000       1.795783        48.8657 
  58   0.0000       1.845093        50.2075 
  59   0.0000       1.859897        50.6104 
  60   0.0000       2.003200        54.5098 
  61   0.0000       2.044773        55.6411 
  62   0.0000       2.121433        57.7271 
  63   0.0000       2.136379        58.1338 
  64   0.0000       2.266586        61.6770 
  65   0.0000       2.312576        62.9284 
  66   0.0000       2.337010        63.5933 
  67   0.0000       2.450676        66.6863 
  68   0.0000       2.481532        67.5259 
  69   0.0000       2.493481        67.8511 
  70   0.0000       2.557408        69.5906 
  71   0.0000       2.563366        69.7527 
  72   0.0000       2.605156        70.8899 
  73   0.0000       2.655705        72.2654 
  74   0.0000       2.727825        74.2279 
  75   0.0000       2.782715        75.7215 
  76   0.0000       2.855100        77.6912 
  77   0.0000       2.911105        79.2152 
  78   0.0000       2.920090        79.4597 
  79   0.0000       2.951999        80.3280 
  80   0.0000       3.044483        82.8446 
  81   0.0000       3.083968        83.9190 
  82   0.0000       3.087101        84.0043 
  83   0.0000       3.117282        84.8256 
  84   0.0000       3.156024        85.8798 
  85   0.0000       3.219215        87.5993 
  86   0.0000       3.262234        88.7699 
  87   0.0000       3.309672        90.0608 
  88   0.0000       3.341902        90.9378 
  89   0.0000       3.411767        92.8389 
  90   0.0000       3.446085        93.7728 
  91   0.0000       3.614755        98.3625 
  92   0.0000       3.644179        99.1632 
  93   0.0000       3.773364       102.6785 
  94   0.0000       3.931437       106.9798 
  95   0.0000       3.985906       108.4620 
  96   0.0000       4.144255       112.7709 
  97   0.0000       4.156717       113.1100 
  98   0.0000       4.386487       119.3624 
  99   0.0000       4.422781       120.3500 
 100   0.0000       4.561465       124.1238 
 101   0.0000       4.707100       128.0867 
 102   0.0000       5.200342       141.5085 
 103   0.0000       5.228374       142.2713 
 104   0.0000       5.279695       143.6678 
 105   0.0000       5.304417       144.3405 
 106   0.0000       5.522841       150.2841 
 107   0.0000       5.525171       150.3475 
 108   0.0000       5.705217       155.2469 
 109   0.0000       6.334888       172.3811 
 110   0.0000       6.358463       173.0226 
 111   0.0000       6.654636       181.0818 
 112   0.0000       6.674239       181.6153 
 113   0.0000       7.002964       190.5603 
 114   0.0000      21.982076       598.1627 
 115   0.0000      22.247911       605.3964 
 116   0.0000      43.591050      1186.1728 

                    ********************************
                    * MULLIKEN POPULATION ANALYSIS *
                    ********************************

-----------------------
MULLIKEN ATOMIC CHARGES
-----------------------
   0 O :   -0.400964
   1 C :   -0.078798
   2 C :   -0.148388
   3 H :    0.154108
   4 H :    0.137015
   5 H :    0.173005
   6 H :    0.164023
Sum of atomic charges:    0.0000000

--------------------------------
MULLIKEN REDUCED ORBITAL CHARGES
--------------------------------
  0 O s       :     3.939548  s :     3.939548
      pz      :     1.950510  p :     4.446043
      px      :     1.233447
      py      :     1.262086
      dz2     :     0.002245  d :     0.014651
      dxz     :     0.000084
      dyz     :     0.002988
      dx2y2   :     0.005793
      dxy     :     0.003541
      f0      :     0.000083  f :     0.000722
      f+1     :     0.000040
      f-1     :     0.000191
      f+2     :     0.000075
      f-2     :     0.000016
      f+3     :     0.000141
      f-3     :     0.000176
  1 C s       :     3.212795  s :     3.212795
      pz      :     1.088898  p :     2.736224
      px      :     0.902391
      py      :     0.744935
      dz2     :     0.012241  d :     0.122685
      dxz     :     0.016564
      dyz     :     0.030832
      dx2y2   :     0.020205
      dxy     :     0.042843
      f0      :     0.001127  f :     0.007093
      f+1     :     0.001183
      f-1     :     0.000517
      f+2     :     0.001724
      f-2     :     0.000149
      f+3     :     0.001885
      f-3     :     0.000508
  2 C s       :     3.317906  s :     3.317906
      pz      :     1.044797  p :     2.782668
      px      :     0.995024
      py      :     0.742847
      dz2     :     0.006154  d :     0.043919
      dxz     :     0.018691
      dyz     :     0.003251
      dx2y2   :     0.005134
      dxy     :     0.010689
      f0      :     0.000527  f :     0.003895
      f+1     :     0.001053
      f-1     :     0.000108
      f+2     :     0.000536
      f-2     :     0.000139
      f+3     :     0.000680
      f-3     :     0.000852
  3 H s       :     0.825233  s :     0.825233
      pz      :     0.009848  p :     0.020659
      px      :     0.006711
      py      :     0.004100
  4 H s       :     0.839026  s :     0.839026
      pz      :     0.011391  p :     0.023959
      px      :     0.006952
      py      :     0.005616
  5 H s       :     0.803349  s :     0.803349
      pz      :     0.011919  p :     0.023646
      px      :     0.007137
      py      :     0.004591
  6 H s       :     0.813495  s :     0.813495
      pz      :     0.011964  p :     0.022482
      px      :     0.006080
      py      :     0.004439


                     *******************************
                     * LOEWDIN POPULATION ANALYSIS *
                     *******************************

----------------------
LOEWDIN ATOMIC CHARGES
----------------------
   0 O :   -0.181832
   1 C :   -0.299235
   2 C :   -0.013411
   3 H :    0.133914
   4 H :    0.099899
   5 H :    0.123193
   6 H :    0.137473

-------------------------------
LOEWDIN REDUCED ORBITAL CHARGES
-------------------------------
  0 O s       :     3.694979  s :     3.694979
      pz      :     1.905557  p :     4.453542
      px      :     1.204669
      py      :     1.343316
      dz2     :     0.004873  d :     0.031618
      dxz     :     0.000072
      dyz     :     0.006907
      dx2y2   :     0.012733
      dxy     :     0.007033
      f0      :     0.000154  f :     0.001693
      f+1     :     0.000049
      f-1     :     0.000347
      f+2     :     0.000274
      f-2     :     0.000015
      f+3     :     0.000422
      f-3     :     0.000432
  1 C s       :     2.870432  s :     2.870432
      pz      :     1.096357  p :     2.944280
      px      :     1.029826
      py      :     0.818097
      dz2     :     0.060554  d :     0.441326
      dxz     :     0.084432
      dyz     :     0.075168
      dx2y2   :     0.102270
      dxy     :     0.118902
      f0      :     0.006047  f :     0.043198
      f+1     :     0.005014
      f-1     :     0.004536
      f+2     :     0.008715
      f-2     :     0.001382
      f+3     :     0.011045
      f-3     :     0.006458
  2 C s       :     2.940893  s :     2.940893
      pz      :     1.087504  p :     2.867179
      px      :     1.091583
      py      :     0.688092
      dz2     :     0.031374  d :     0.186912
      dxz     :     0.083915
      dyz     :     0.008811
      dx2y2   :     0.032417
      dxy     :     0.030395
      f0      :     0.003093  f :     0.018427
      f+1     :     0.002912
      f-1     :     0.000952
      f+2     :     0.003008
      f-2     :     0.001267
      f+3     :     0.003549
      f-3     :     0.003648
  3 H s       :     0.806525  s :     0.806525
      pz      :     0.029680  p :     0.059561
      px      :     0.018562
      py      :     0.011319
  4 H s       :     0.822599  s :     0.822599
      pz      :     0.038389  p :     0.077502
      px      :     0.021792
      py      :     0.017322
  5 H s       :     0.805650  s :     0.805650
      pz      :     0.037319  p :     0.071158
      px      :     0.020694
      py      :     0.013145
  6 H s       :     0.798235  s :     0.798235
      pz      :     0.035352  p :     0.064292
      px      :     0.016718
      py      :     0.012222


                      *****************************
                      * MAYER POPULATION ANALYSIS *
                      *****************************

  NA   - Mulliken gross atomic population
  ZA   - Total nuclear charge
  QA   - Mulliken gross atomic charge
  VA   - Mayer's total valence
  BVA  - Mayer's bonded valence
  FA   - Mayer's free valence

  ATOM       NA         ZA         QA         VA         BVA        FA
  0 O      8.4010     8.0000    -0.4010     1.7395     1.7395     0.0000
  1 C      6.0788     6.0000    -0.0788     3.9513     3.9513     0.0000
  2 C      6.1484     6.0000    -0.1484     3.8057     3.8057     0.0000
  3 H      0.8459     1.0000     0.1541     0.9690     0.9690     0.0000
  4 H      0.8630     1.0000     0.1370     0.9818     0.9818     0.0000
  5 H      0.8270     1.0000     0.1730     0.9558     0.9558    -0.0000
  6 H      0.8360     1.0000     0.1640     0.9597     0.9597     0.0000

  Mayer bond orders larger than 0.100000
B(  0-O ,  1-C ) :   0.9074 B(  0-O ,  2-C ) :   0.8245 B(  1-C ,  2-C ) :   1.0948 
B(  1-C ,  3-H ) :   0.9594 B(  1-C ,  4-H ) :   0.9812 B(  2-C ,  5-H ) :   0.9391 
B(  2-C ,  6-H ) :   0.9466 

-------
TIMINGS
-------

Total SCF time: 0 days 0 hours 0 min 3 sec 

Total time                  ....       3.669 sec
Sum of individual times     ....       3.268 sec  ( 89.1%)

Fock matrix formation       ....       2.981 sec  ( 81.3%)
  Split-RI-J                ....       0.304 sec  ( 10.2% of F)
  Chain of spheres X        ....       2.086 sec  ( 70.0% of F)
  XC integration            ....       0.558 sec  ( 18.7% of F)
    Basis function eval.    ....       0.155 sec  ( 27.7% of XC)
    Density eval.           ....       0.113 sec  ( 20.3% of XC)
    XC-Functional eval.     ....       0.034 sec  (  6.2% of XC)
    XC-Potential eval.      ....       0.188 sec  ( 33.7% of XC)
Diagonalization             ....       0.019 sec  (  0.5%)
Density matrix formation    ....       0.002 sec  (  0.1%)
Population analysis         ....       0.003 sec  (  0.1%)
Initial guess               ....       0.017 sec  (  0.5%)
Orbital Transformation      ....       0.000 sec  (  0.0%)
Orbital Orthonormalization  ....       0.000 sec  (  0.0%)
DIIS solution               ....       0.015 sec  (  0.4%)
SOSCF solution              ....       0.020 sec  (  0.6%)
Grid generation             ....       0.211 sec  (  5.7%)

Maximum memory used throughout the entire SCF-calculation: 61.0 MB


-------------------------------------------------------------------------------
                          DFT DISPERSION CORRECTION                            
                                                                               
                              DFTD3 V3.1  Rev 1                                
                          USING Becke-Johnson damping                          
-------------------------------------------------------------------------------
The PBE0 functional is recognized
Active option DFTDOPT                   ...         4   

molecular C6(AA) [au] = 395.840431 


            DFT-D V3
 parameters
 s6 scaling factor         :     1.0000 
 a1 scaling factor         :     0.4145 
 s8 scaling factor         :     1.2177 
 a2 scaling factor         :     4.8593 
 ad hoc parameters k1-k3   :    16.0000     1.3333    -4.0000 

 Edisp/kcal,au: -1.638102145150  -0.002610481655 
 E6   /kcal   :  -1.067776198 
 E8   /kcal   :  -0.570325947 
 % E8         :  34.816262733 

-------------------------   ----------------
Dispersion correction           -0.002610482
-------------------------   ----------------


-------------------------   --------------------
FINAL SINGLE POINT ENERGY      -153.522483808800
-------------------------   --------------------



           ************************************************************
           *        Program running with 8 parallel MPI-processes     *
           *              working on a common directory               *
           ************************************************************
------------------------------------------------------------------------------
                         ORCA SCF GRADIENT CALCULATION
------------------------------------------------------------------------------

 ... reading COSX grid (gridx3)
Gradient of the Kohn-Sham DFT energy:
Kohn-Sham wavefunction type      ... RKS
Hartree-Fock exchange scaling    ...    0.250
Number of operators              ...    1
Number of atoms                  ...    7
Basis set dimensions             ...  117
Integral neglect threshold       ... 2.5e-11
Integral primitive cutoff        ... 2.5e-12
SHARK Integral package           ... ON

Nuc. rep. gradient       (SHARK) ... done (  0.0 sec)
HCore & Overlap gradient (SHARK) ... done (  0.0 sec)
RI-J gradient            (SHARK) ... done (  0.1 sec)
COSX-gradient                    ... done (  0.4 sec)
Exchange-correlation gradient    ... done
Dispersion correction            ... done

------------------
CARTESIAN GRADIENT
------------------

   1   O   :   -0.067372556    0.054945064   -0.000354953
   2   C   :   -0.029400135   -0.083546463   -0.043727594
   3   C   :    0.101273973    0.011033825   -0.046018332
   4   H   :   -0.025622918    0.019702909    0.013000215
   5   H   :    0.026232550    0.034078688    0.052141015
   6   H   :   -0.002435744   -0.014432233    0.012421910
   7   H   :   -0.002655917   -0.021804069    0.012472454

Difference to translation invariance:
           :    0.0000192530   -0.0000222786   -0.0000652851

Difference to rotation invariance:
           :    0.0000073293   -0.0000429145    0.0001984134

Norm of the cartesian gradient     ...    0.1913085771
RMS gradient                       ...    0.0417469541
MAX gradient                       ...    0.1012739733

-------
TIMINGS
-------

Total SCF gradient time            ...        0.778 sec

One electron gradient       ....       0.010 sec  (  1.3%)
RI-J Coulomb gradient       ....       0.085 sec  ( 10.9%)
COSX gradient               ....       0.362 sec  ( 46.5%)
XC gradient                 ....       0.170 sec  ( 21.9%)

Maximum memory used throughout the entire SCFGRAD-calculation: 35.9 MB

                            ***************************************
                            *     ORCA property calculations      *
                            ***************************************

                                    ---------------------
                                    Active property flags
                                    ---------------------
   (+) Dipole Moment


------------------------------------------------------------------------------
                       ORCA ELECTRIC PROPERTIES CALCULATION
------------------------------------------------------------------------------

Dipole Moment Calculation                       ... on
Quadrupole Moment Calculation                   ... off
Polarizability Calculation                      ... off
GBWName                                         ... ox_gs_E_orca0007.gbw
Electron density                                ... ox_gs_E_orca0007.scfp
The origin for moment calculation is the CENTER OF MASS  = (-0.640860,  0.068840 -0.065455)

-------------
DIPOLE MOMENT
-------------
                                X             Y             Z
Electronic contribution:     -0.56554       1.41014      -0.08390
Nuclear contribution   :      1.26992      -2.75909       0.06733
                        -----------------------------------------
Total Dipole Moment    :      0.70437      -1.34895      -0.01657
                        -----------------------------------------
Magnitude (a.u.)       :      1.52187
Magnitude (Debye)      :      3.86828



--------------------
Rotational spectrum 
--------------------
 
Rotational constants in cm-1:     1.029186     0.360743     0.299283 
Rotational constants in MHz : 30854.225593 10814.809653  8972.266331 

 Dipole components along the rotational axes: 
x,y,z [a.u.] :    -1.400154    -0.595590    -0.030297 
x,y,z [Debye]:    -3.558909    -1.513870    -0.077008 

 

Timings for individual modules:

Sum of individual times         ...        5.089 sec (=   0.085 min)
GTO integral calculation        ...        0.284 sec (=   0.005 min)   5.6 %
SCF iterations                  ...        3.837 sec (=   0.064 min)  75.4 %
SCF Gradient evaluation         ...        0.967 sec (=   0.016 min)  19.0 %
                             ****ORCA TERMINATED NORMALLY****
TOTAL RUN TIME: 0 days 0 hours 0 minutes 5 seconds 410 msec
