
                                 *****************
                                 * O   R   C   A *
                                 *****************

                                            #,                                       
                                            ###                                      
                                            ####                                     
                                            #####                                    
                                            ######                                   
                                           ########,                                 
                                     ,,################,,,,,                         
                               ,,#################################,,                 
                          ,,##########################################,,             
                       ,#########################################, ''#####,          
                    ,#############################################,,   '####,        
                  ,##################################################,,,,####,       
                ,###########''''           ''''###############################       
              ,#####''   ,,,,##########,,,,          '''####'''          '####       
            ,##' ,,,,###########################,,,                        '##       
           ' ,,###''''                  '''############,,,                           
         ,,##''                                '''############,,,,        ,,,,,,###''
      ,#''                                            '''#######################'''  
     '                                                          ''''####''''         
             ,#######,   #######,   ,#######,      ##                                
            ,#'     '#,  ##    ##  ,#'     '#,    #''#        ######   ,####,        
            ##       ##  ##   ,#'  ##            #'  '#       #        #'  '#        
            ##       ##  #######   ##           ,######,      #####,   #    #        
            '#,     ,#'  ##    ##  '#,     ,#' ,#      #,         ##   #,  ,#        
             '#######'   ##     ##  '#######'  #'      '#     #####' # '####'        



                  #######################################################
                  #                        -***-                        #
                  #          Department of theory and spectroscopy      #
                  #    Directorship and core code : Frank Neese         #
                  #        Max Planck Institute fuer Kohlenforschung    #
                  #                Kaiser Wilhelm Platz 1               #
                  #                 D-45470 Muelheim/Ruhr               #
                  #                      Germany                        #
                  #                                                     #
                  #                  All rights reserved                #
                  #                        -***-                        #
                  #######################################################


                         Program Version 5.0.2 -  RELEASE  -


 With contributions from (in alphabetic order):
   Daniel Aravena         : Magnetic Suceptibility
   Michael Atanasov       : Ab Initio Ligand Field Theory (pilot matlab implementation)
   Alexander A. Auer      : GIAO ZORA, VPT2 properties, NMR spectrum
   Ute Becker             : Parallelization
   Giovanni Bistoni       : ED, misc. LED, open-shell LED, HFLD
   Martin Brehm           : Molecular dynamics
   Dmytro Bykov           : SCF Hessian
   Vijay G. Chilkuri      : MRCI spin determinant printing, contributions to CSF-ICE
   Dipayan Datta          : RHF DLPNO-CCSD density
   Achintya Kumar Dutta   : EOM-CC, STEOM-CC
   Dmitry Ganyushin       : Spin-Orbit,Spin-Spin,Magnetic field MRCI
   Miquel Garcia          : C-PCM and meta-GGA Hessian, CC/C-PCM, Gaussian charge scheme
   Yang Guo               : DLPNO-NEVPT2, F12-NEVPT2, CIM, IAO-localization
   Andreas Hansen         : Spin unrestricted coupled pair/coupled cluster methods
   Benjamin Helmich-Paris : MC-RPA, TRAH-SCF, COSX integrals
   Lee Huntington         : MR-EOM, pCC
   Robert Izsak           : Overlap fitted RIJCOSX, COSX-SCS-MP3, EOM
   Marcus Kettner         : VPT2
   Christian Kollmar      : KDIIS, OOCD, Brueckner-CCSD(T), CCSD density, CASPT2, CASPT2-K
   Simone Kossmann        : Meta GGA functionals, TD-DFT gradient, OOMP2, MP2 Hessian
   Martin Krupicka        : Initial AUTO-CI
   Lucas Lang             : DCDCAS
   Marvin Lechner         : AUTO-CI (C++ implementation), FIC-MRCC
   Dagmar Lenk            : GEPOL surface, SMD
   Dimitrios Liakos       : Extrapolation schemes; Compound Job, initial MDCI parallelization
   Dimitrios Manganas     : Further ROCIS development; embedding schemes
   Dimitrios Pantazis     : SARC Basis sets
   Anastasios Papadopoulos: AUTO-CI, single reference methods and gradients
   Taras Petrenko         : DFT Hessian,TD-DFT gradient, ASA, ECA, R-Raman, ABS, FL, XAS/XES, NRVS
   Peter Pinski           : DLPNO-MP2, DLPNO-MP2 Gradient
   Christoph Reimann      : Effective Core Potentials
   Marius Retegan         : Local ZFS, SOC
   Christoph Riplinger    : Optimizer, TS searches, QM/MM, DLPNO-CCSD(T), (RO)-DLPNO pert. Triples
   Tobias Risthaus        : Range-separated hybrids, TD-DFT gradient, RPA, STAB
   Michael Roemelt        : Original ROCIS implementation
   Masaaki Saitow         : Open-shell DLPNO-CCSD energy and density
   Barbara Sandhoefer     : DKH picture change effects
   Avijit Sen             : IP-ROCIS
   Kantharuban Sivalingam : CASSCF convergence, NEVPT2, FIC-MRCI
   Bernardo de Souza      : ESD, SOC TD-DFT
   Georgi Stoychev        : AutoAux, RI-MP2 NMR, DLPNO-MP2 response
   Willem Van den Heuvel  : Paramagnetic NMR
   Boris Wezisla          : Elementary symmetry handling
   Frank Wennmohs         : Technical directorship


 We gratefully acknowledge several colleagues who have allowed us to
 interface, adapt or use parts of their codes:
   Stefan Grimme, W. Hujo, H. Kruse, P. Pracht,  : VdW corrections, initial TS optimization,
                  C. Bannwarth, S. Ehlert          DFT functionals, gCP, sTDA/sTD-DF
   Ed Valeev, F. Pavosevic, A. Kumar             : LibInt (2-el integral package), F12 methods
   Garnet Chan, S. Sharma, J. Yang, R. Olivares  : DMRG
   Ulf Ekstrom                                   : XCFun DFT Library
   Mihaly Kallay                                 : mrcc  (arbitrary order and MRCC methods)
   Jiri Pittner, Ondrej Demel                    : Mk-CCSD
   Frank Weinhold                                : gennbo (NPA and NBO analysis)
   Christopher J. Cramer and Donald G. Truhlar   : smd solvation model
   Lars Goerigk                                  : TD-DFT with DH, B97 family of functionals
   V. Asgeirsson, H. Jonsson                     : NEB implementation
   FAccTs GmbH                                   : IRC, NEB, NEB-TS, DLPNO-Multilevel, CI-OPT
                                                   MM, QMMM, 2- and 3-layer-ONIOM, Crystal-QMMM,
                                                   LR-CPCM, SF, NACMEs, symmetry and pop. for TD-DFT,
                                                   nearIR, NL-DFT gradient (VV10), updates on ESD,
                                                   ML-optimized integration grids
   S Lehtola, MJT Oliveira, MAL Marques          : LibXC Library
   Liviu Ungur et al                             : ANISO software


 Your calculation uses the libint2 library for the computation of 2-el integrals
 For citations please refer to: http://libint.valeyev.net

 Your ORCA version has been built with support for libXC version: 5.1.0
 For citations please refer to: https://tddft.org/programs/libxc/

 This ORCA versions uses:
   CBLAS   interface :  Fast vector & matrix operations
   LAPACKE interface :  Fast linear algebra routines
   SCALAPACK package :  Parallel linear algebra routines
   Shared memory     :  Shared parallel matrices
   BLAS/LAPACK       :  OpenBLAS 0.3.15  USE64BITINT DYNAMIC_ARCH NO_AFFINITY SkylakeX SINGLE_THREADED
        Core in use  :  SkylakeX
   Copyright (c) 2011-2014, The OpenBLAS Project


Your calculation utilizes the atom-pairwise dispersion correction
with the Becke-Johnson damping scheme (D3BJ)
Cite in your paper:
S.Grimme, S.Ehrlich, L.Goerigk, J Comput Chem, (2011), 32, 1456–1465 
S.Grimme, J.Antony, S.Ehrlich and H.Krieg, J.Chem.Phys., 132, (2010), 154104 
   

================================================================================

----- Orbital basis set information -----
Your calculation utilizes the basis: def2-TZVP
   F. Weigend and R. Ahlrichs, Phys. Chem. Chem. Phys. 7, 3297 (2005).

----- AuxJ basis set information -----
Your calculation utilizes the auxiliary basis: def2/J
   F. Weigend, Phys. Chem. Chem. Phys. 8, 1057 (2006).

================================================================================
                                        WARNINGS
                       Please study these warnings very carefully!
================================================================================


INFO   : the flag for use of the SHARK integral package has been found!

================================================================================
                                       INPUT FILE
================================================================================
NAME = ox_gs_C_orca0005.inp
|  1> ! engrad PBE0 D3BJ def2-TZVP  
|  2> %pal nprocs 8 end
|  3> %maxcore 3000
|  4>  
|  5> *xyz 0 1 
|  6> O   -0.49567912439635886 0.968883314285978 0.02472700103722382
|  7> C   -0.7421648585418573 -0.45189870041568475 0.04653618112337608
|  8> C   0.7093093936451127 -0.49580046231616354 -0.019138874394888407
|  9> H   -1.2627250469561584 -0.7241527254347637 0.9384276580236208
| 10> H   -1.2626626126450915 -0.6598285948082444 -0.8716420110957446
| 11> H   1.2972177278864423 -0.6573993502811135 -0.8433032083246476
| 12> H   1.2578919217457807 -0.5545010166052085 0.9603003637836399
| 13> *
| 14> 
| 15>                          ****END OF INPUT****
================================================================================

                     *******************************
                     * Energy+Gradient Calculation *
                     *******************************

---------------------------------
CARTESIAN COORDINATES (ANGSTROEM)
---------------------------------
  O     -0.495679    0.968883    0.024727
  C     -0.742165   -0.451899    0.046536
  C      0.709309   -0.495800   -0.019139
  H     -1.262725   -0.724153    0.938428
  H     -1.262663   -0.659829   -0.871642
  H      1.297218   -0.657399   -0.843303
  H      1.257892   -0.554501    0.960300

----------------------------
CARTESIAN COORDINATES (A.U.)
----------------------------
  NO LB      ZA    FRAG     MASS         X           Y           Z
   0 O     8.0000    0    15.999   -0.936698    1.830924    0.046727
   1 C     6.0000    0    12.011   -1.402488   -0.853965    0.087941
   2 C     6.0000    0    12.011    1.340400   -0.936927   -0.036167
   3 H     1.0000    0     1.008   -2.386205   -1.368450    1.773371
   4 H     1.0000    0     1.008   -2.386087   -1.246895   -1.647165
   5 H     1.0000    0     1.008    2.451386   -1.242305   -1.593612
   6 H     1.0000    0     1.008    2.377071   -1.047855    1.814705

--------------------------------
INTERNAL COORDINATES (ANGSTROEM)
--------------------------------
 O      0   0   0     0.000000000000     0.00000000     0.00000000
 C      1   0   0     1.442169334986     0.00000000     0.00000000
 C      2   1   0     1.453622400205    81.86013124     0.00000000
 H      2   1   3     1.067977326758   110.30888387   120.24267659
 H      2   1   3     1.075734142656   105.08276083   245.13580297
 H      3   2   1     1.025181573861   127.85767036   260.27567273
 H      3   2   1     1.124139567178   116.71118815    92.90772073

---------------------------
INTERNAL COORDINATES (A.U.)
---------------------------
 O      0   0   0     0.000000000000     0.00000000     0.00000000
 C      1   0   0     2.725305081862     0.00000000     0.00000000
 C      2   1   0     2.746948238520    81.86013124     0.00000000
 H      2   1   3     2.018184664809   110.30888387   120.24267659
 H      2   1   3     2.032842922528   105.08276083   245.13580297
 H      3   2   1     1.937312412139   127.85767036   260.27567273
 H      3   2   1     2.124315918271   116.71118815    92.90772073

---------------------
BASIS SET INFORMATION
---------------------
There are 3 groups of distinct atoms

 Group   1 Type O   : 11s6p2d1f contracted to 5s3p2d1f pattern {62111/411/11/1}
 Group   2 Type C   : 11s6p2d1f contracted to 5s3p2d1f pattern {62111/411/11/1}
 Group   3 Type H   : 5s1p contracted to 3s1p pattern {311/1}

Atom   0O    basis set group =>   1
Atom   1C    basis set group =>   2
Atom   2C    basis set group =>   2
Atom   3H    basis set group =>   3
Atom   4H    basis set group =>   3
Atom   5H    basis set group =>   3
Atom   6H    basis set group =>   3
---------------------------------
AUXILIARY/J BASIS SET INFORMATION
---------------------------------
There are 3 groups of distinct atoms

 Group   1 Type O   : 12s5p4d2f1g contracted to 6s4p3d1f1g pattern {711111/2111/211/2/1}
 Group   2 Type C   : 12s5p4d2f1g contracted to 6s4p3d1f1g pattern {711111/2111/211/2/1}
 Group   3 Type H   : 5s2p1d contracted to 3s1p1d pattern {311/2/1}

Atom   0O    basis set group =>   1
Atom   1C    basis set group =>   2
Atom   2C    basis set group =>   2
Atom   3H    basis set group =>   3
Atom   4H    basis set group =>   3
Atom   5H    basis set group =>   3
Atom   6H    basis set group =>   3


           ************************************************************
           *        Program running with 8 parallel MPI-processes     *
           *              working on a common directory               *
           ************************************************************
------------------------------------------------------------------------------
                           ORCA GTO INTEGRAL CALCULATION
                           -- RI-GTO INTEGRALS CHOSEN --
------------------------------------------------------------------------------
------------------------------------------------------------------------------
                   ___                                                        
                  /   \      - P O W E R E D   B Y -                         
                 /     \                                                     
                 |  |  |   _    _      __       _____    __    __             
                 |  |  |  | |  | |    /  \     |  _  \  |  |  /  |          
                  \  \/   | |  | |   /    \    | | | |  |  | /  /          
                 / \  \   | |__| |  /  /\  \   | |_| |  |  |/  /          
                |  |  |   |  __  | /  /__\  \  |    /   |      \           
                |  |  |   | |  | | |   __   |  |    \   |  |\   \          
                \     /   | |  | | |  |  |  |  | |\  \  |  | \   \       
                 \___/    |_|  |_| |__|  |__|  |_| \__\ |__|  \__/        
                                                                              
                      - O R C A' S   B I G   F R I E N D -                    
                                      &                                       
                       - I N T E G R A L  F E E D E R -                       
                                                                              
 v1 FN, 2020, v2 2021                                                         
------------------------------------------------------------------------------


Reading SHARK input file ox_gs_C_orca0005.SHARKINP.tmp ... ok
----------------------
SHARK INTEGRAL PACKAGE
----------------------

Number of atoms                             ...      7
Number of basis functions                   ...    117
Number of shells                            ...     49
Maximum angular momentum                    ...      3
Integral batch strategy                     ... SHARK/LIBINT Hybrid
RI-J (if used) integral strategy            ... SPLIT-RIJ (Revised 2003 algorithm where possible)
Printlevel                                  ...      1
Contraction scheme used                     ... SEGMENTED contraction
Coulomb Range Separation                    ... NOT USED
Exchange Range Separation                   ... NOT USED
Finite Nucleus Model                        ... NOT USED
Auxiliary Coulomb fitting basis             ... AVAILABLE
   # of basis functions in Aux-J            ...    191
   # of shells in Aux-J                     ...     65
   Maximum angular momentum in Aux-J        ...      4
Auxiliary J/K fitting basis                 ... NOT available
Auxiliary Correlation fitting basis         ... NOT available
Auxiliary 'external' fitting basis          ... NOT available
Integral threshold                          ...     2.500000e-11
Primitive cut-off                           ...     2.500000e-12
Primitive pair pre-selection threshold      ...     2.500000e-12

Calculating pre-screening integrals         ... done (  0.0 sec) Dimension = 49
Organizing shell pair data                  ... done (  0.0 sec)
Shell pair information
Total number of shell pairs                 ...      1225
Shell pairs after pre-screening             ...      1218
Total number of primitive shell pairs       ...      3648
Primitive shell pairs kept                  ...      3120
          la=0 lb=0:    371 shell pairs
          la=1 lb=0:    351 shell pairs
          la=1 lb=1:     91 shell pairs
          la=2 lb=0:    162 shell pairs
          la=2 lb=1:     78 shell pairs
          la=2 lb=2:     21 shell pairs
          la=3 lb=0:     81 shell pairs
          la=3 lb=1:     39 shell pairs
          la=3 lb=2:     18 shell pairs
          la=3 lb=3:      6 shell pairs

Calculating one electron integrals          ... done (  0.0 sec)
Calculating RI/J V-Matrix + Cholesky decomp.... done (  0.0 sec)
Calculating Nuclear repulsion               ... done (  0.0 sec) ENN=     70.556679255287 Eh

SHARK setup successfully completed in   0.1 seconds

Maximum memory used throughout the entire GTOINT-calculation: 14.9 MB


           ************************************************************
           *        Program running with 8 parallel MPI-processes     *
           *              working on a common directory               *
           ************************************************************
-------------------------------------------------------------------------------
                                 ORCA SCF
-------------------------------------------------------------------------------

------------
SCF SETTINGS
------------
Hamiltonian:
 Density Functional     Method          .... DFT(GTOs)
 Exchange Functional    Exchange        .... PBE
   PBE kappa parameter   XKappa         ....  0.804000
   PBE mue parameter    XMuePBE         ....  0.219520
 Correlation Functional Correlation     .... PBE
   PBE beta parameter  CBetaPBE         ....  0.066725
 LDA part of GGA corr.  LDAOpt          .... PW91-LDA
 Gradients option       PostSCFGGA      .... off
 Hybrid DFT is turned on
   Fraction HF Exchange ScalHFX         ....  0.250000
   Scaling of DF-GGA-X  ScalDFX         ....  0.750000
   Scaling of DF-GGA-C  ScalDFC         ....  1.000000
   Scaling of DF-LDA-C  ScalLDAC        ....  1.000000
   Perturbative correction              ....  0.000000
   Density functional embedding theory  .... OFF
   NL short-range parameter             ....  6.900000
 RI-approximation to the Coulomb term is turned on
   Number of AuxJ basis functions       .... 191
   RIJ-COSX (HFX calculated with COS-X)).... on


General Settings:
 Integral files         IntName         .... ox_gs_C_orca0005
 Hartree-Fock type      HFTyp           .... RHF
 Total Charge           Charge          ....    0
 Multiplicity           Mult            ....    1
 Number of Electrons    NEL             ....   24
 Basis Dimension        Dim             ....  117
 Nuclear Repulsion      ENuc            ....     70.5566792553 Eh

Convergence Acceleration:
 DIIS                   CNVDIIS         .... on
   Start iteration      DIISMaxIt       ....    12
   Startup error        DIISStart       ....  0.200000
   # of expansion vecs  DIISMaxEq       ....     5
   Bias factor          DIISBfac        ....   1.050
   Max. coefficient     DIISMaxC        ....  10.000
 Trust-Rad. Augm. Hess. CNVTRAH         .... auto
   Auto Start mean grad. ratio tolernc. ....  1.125000
   Auto Start start iteration           ....    20
   Auto Start num. interpolation iter.  ....    10
   Max. Number of Micro iterations      ....    16
   Max. Number of Macro iterations      .... Maxiter - #DIIS iter
   Number of Davidson start vectors     ....     2
   Converg. threshold I  (grad. norm)   ....   1.000e-05
   Converg. threshold II (energy diff.) ....   1.000e-08
   Grad. Scal. Fac. for Micro threshold ....   0.100
   Minimum threshold for Micro iter.    ....   0.010
   NR start threshold (gradient norm)   ....   0.001
   Initial trust radius                 ....   0.400
   Minimum AH scaling param. (alpha)    ....   1.000
   Maximum AH scaling param. (alpha)    .... 1000.000
   Orbital update algorithm             .... Taylor
   White noise on init. David. guess    .... on
   Maximum white noise                  ....   0.010
   Quad. conv. algorithm                .... NR
 SOSCF                  CNVSOSCF        .... on
   Start iteration      SOSCFMaxIt      ....   150
   Startup grad/error   SOSCFStart      ....  0.003300
 Level Shifting         CNVShift        .... on
   Level shift para.    LevelShift      ....    0.2500
   Turn off err/grad.   ShiftErr        ....    0.0010
 Zerner damping         CNVZerner       .... off
 Static damping         CNVDamp         .... on
   Fraction old density DampFac         ....    0.7000
   Max. Damping (<1)    DampMax         ....    0.9800
   Min. Damping (>=0)   DampMin         ....    0.0000
   Turn off err/grad.   DampErr         ....    0.1000
 Fernandez-Rico         CNVRico         .... off

SCF Procedure:
 Maximum # iterations   MaxIter         ....   125
 SCF integral mode      SCFMode         .... Direct
   Integral package                     .... SHARK and LIBINT hybrid scheme
 Reset frequency        DirectResetFreq ....    20
 Integral Threshold     Thresh          ....  2.500e-11 Eh
 Primitive CutOff       TCut            ....  2.500e-12 Eh

Convergence Tolerance:
 Convergence Check Mode ConvCheckMode   .... Total+1el-Energy
 Convergence forced     ConvForced      .... 0
 Energy Change          TolE            ....  1.000e-08 Eh
 1-El. energy change                    ....  1.000e-05 Eh
 Orbital Gradient       TolG            ....  1.000e-05
 Orbital Rotation angle TolX            ....  1.000e-05
 DIIS Error             TolErr          ....  5.000e-07


Diagonalization of the overlap matrix:
Smallest eigenvalue                        ... 4.157e-04
Time for diagonalization                   ...    0.001 sec
Threshold for overlap eigenvalues          ... 1.000e-08
Number of eigenvalues below threshold      ... 0
Time for construction of square roots      ...    0.001 sec
Total time needed                          ...    0.003 sec

Time for model grid setup =    0.023 sec

------------------------------
INITIAL GUESS: MODEL POTENTIAL
------------------------------
Loading Hartree-Fock densities                     ... done
Calculating cut-offs                               ... done
Initializing the effective Hamiltonian             ... done
Setting up the integral package (SHARK)            ... done
Starting the Coulomb interaction                   ... done (   0.0 sec)
Reading the grid                                   ... done
Mapping shells                                     ... done
Starting the XC term evaluation                    ... done (   0.0 sec)
  promolecular density results
     # of electrons  =     23.998065824
     EX              =    -19.476548462
     EC              =     -0.770042804
     EX+EC           =    -20.246591266
Transforming the Hamiltonian                       ... done (   0.0 sec)
Diagonalizing the Hamiltonian                      ... done (   0.0 sec)
Back transforming the eigenvectors                 ... done (   0.0 sec)
Now organizing SCF variables                       ... done
                      ------------------
                      INITIAL GUESS DONE (   0.0 sec)
                      ------------------
-------------------
DFT GRID GENERATION
-------------------

General Integration Accuracy     IntAcc      ... 4.388
Radial Grid Type                 RadialGrid  ... OptM3 with GC (2021)
Angular Grid (max. ang.)         AngularGrid ... 4 (Lebedev-302)
Angular grid pruning method      GridPruning ... 4 (adaptive)
Weight generation scheme         WeightScheme... Becke
Basis function cutoff            BFCut       ... 1.0000e-11
Integration weight cutoff        WCut        ... 1.0000e-14
Angular grids for H and He will be reduced by one unit
Partially contracted basis set               ... off
Rotationally invariant grid construction     ... off

Total number of grid points                  ...    31322
Total number of batches                      ...      493
Average number of points per batch           ...       63
Average number of grid points per atom       ...     4475
Time for grid setup =    0.110 sec

--------------------
COSX GRID GENERATION
--------------------

GRIDX 1
-------
General Integration Accuracy     IntAcc      ... 3.816
Radial Grid Type                 RadialGrid  ... OptM3 with GC (2021)
Angular Grid (max. ang.)         AngularGrid ... 1 (Lebedev-50)
Angular grid pruning method      GridPruning ... 4 (adaptive)
Weight generation scheme         WeightScheme... Becke
Basis function cutoff            BFCut       ... 1.0000e-11
Integration weight cutoff        WCut        ... 1.0000e-14
Angular grids for H and He will be reduced by one unit
Partially contracted basis set               ... on
Rotationally invariant grid construction     ... off

Total number of grid points                  ...     4036
Total number of batches                      ...       67
Average number of points per batch           ...       60
Average number of grid points per atom       ...      577
UseSFitting                                  ... on

GRIDX 2
-------
General Integration Accuracy     IntAcc      ... 4.020
Radial Grid Type                 RadialGrid  ... OptM3 with GC (2021)
Angular Grid (max. ang.)         AngularGrid ... 2 (Lebedev-110)
Angular grid pruning method      GridPruning ... 4 (adaptive)
Weight generation scheme         WeightScheme... Becke
Basis function cutoff            BFCut       ... 1.0000e-11
Integration weight cutoff        WCut        ... 1.0000e-14
Angular grids for H and He will be reduced by one unit
Partially contracted basis set               ... on
Rotationally invariant grid construction     ... off

Total number of grid points                  ...     8727
Total number of batches                      ...      139
Average number of points per batch           ...       62
Average number of grid points per atom       ...     1247
UseSFitting                                  ... on

GRIDX 3
-------
General Integration Accuracy     IntAcc      ... 4.338
Radial Grid Type                 RadialGrid  ... OptM3 with GC (2021)
Angular Grid (max. ang.)         AngularGrid ... 3 (Lebedev-194)
Angular grid pruning method      GridPruning ... 4 (adaptive)
Weight generation scheme         WeightScheme... Becke
Basis function cutoff            BFCut       ... 1.0000e-11
Integration weight cutoff        WCut        ... 1.0000e-14
Angular grids for H and He will be reduced by one unit
Partially contracted basis set               ... on
Rotationally invariant grid construction     ... off

Total number of grid points                  ...    19251
Total number of batches                      ...      305
Average number of points per batch           ...       63
Average number of grid points per atom       ...     2750
UseSFitting                                  ... on

Time for X-Grid setup             =    0.073 sec

--------------
SCF ITERATIONS
--------------
ITER       Energy         Delta-E        Max-DP      RMS-DP      [F,P]     Damp
               ***  Starting incremental Fock matrix formation  ***
  0   -153.5238388206   0.000000000000 0.05099177  0.00151769  0.2291563 0.7000
  1   -153.5675834018  -0.043744581160 0.02866595  0.00098678  0.0771241 0.7000
                               ***Turning on DIIS***
  2   -153.5802592990  -0.012675897179 0.03028238  0.00139525  0.0397295 0.0000
  3   -153.6076705168  -0.027411217839 0.02012668  0.00080062  0.0367554 0.0000
  4   -153.6104851487  -0.002814631949 0.00792620  0.00024519  0.0294983 0.0000
                      *** Initiating the SOSCF procedure ***
                           *** Shutting down DIIS ***
                      *** Re-Reading the Fockian *** 
                      *** Removing any level shift *** 
ITER      Energy       Delta-E        Grad      Rot      Max-DP    RMS-DP
  5   -153.61168612  -0.0012009744  0.000587  0.000587  0.001824  0.000057
               *** Restarting incremental Fock matrix formation ***
  6   -153.61171328  -0.0000271521  0.000762  0.003183  0.002006  0.000053
  7   -153.61169647   0.0000168028  0.001927  0.002142  0.001366  0.000037
  8   -153.61171737  -0.0000209008  0.000117  0.000243  0.000374  0.000012
  9   -153.61171725   0.0000001248  0.000113  0.000106  0.000203  0.000007
 10   -153.61171775  -0.0000005062  0.000008  0.000017  0.000014  0.000001
 11   -153.61171775   0.0000000001  0.000007  0.000005  0.000008  0.000000
                  ***Gradient check signals convergence***
              ***Rediagonalizing the Fockian in SOSCF/NRSCF***

               *****************************************************
               *                     SUCCESS                       *
               *           SCF CONVERGED AFTER  12 CYCLES          *
               *****************************************************

Old exchange energy                            =     -4.969823011 Eh
New exchange energy                            =     -4.969830893 Eh
Exchange energy change after final integration =     -0.000007882 Eh
Total energy after final integration           =   -153.611725638 Eh
Final COS-X integration done in                =     0.256 sec

----------------
TOTAL SCF ENERGY
----------------

Total Energy       :         -153.61172564 Eh           -4179.98756 eV

Components:
Nuclear Repulsion  :           70.55667926 Eh            1919.94485 eV
Electronic Energy  :         -224.16840489 Eh           -6099.93241 eV
One Electron Energy:         -347.96740313 Eh           -9468.67442 eV
Two Electron Energy:          123.79899824 Eh            3368.74201 eV
Max COSX asymmetry :            0.00000169 Eh               0.00005 eV

Virial components:
Potential Energy   :         -306.40934661 Eh           -8337.82221 eV
Kinetic Energy     :          152.79762098 Eh            4157.83465 eV
Virial Ratio       :            2.00532799


DFT components:
N(Alpha)           :       12.000005217901 electrons
N(Beta)            :       12.000005217901 electrons
N(Total)           :       24.000010435803 electrons
E(X)               :      -14.905114800573 Eh       
E(C)               :       -0.777175238190 Eh       
E(XC)              :      -15.682290038764 Eh       
DFET-embed. en.    :        0.000000000000 Eh       

---------------
SCF CONVERGENCE
---------------

  Last Energy change         ...   -1.4366e-09  Tolerance :   1.0000e-08
  Last MAX-Density change    ...    4.4409e-16  Tolerance :   1.0000e-07
  Last RMS-Density change    ...    1.6865e-17  Tolerance :   5.0000e-09
  Last Orbital Gradient      ...    8.7872e-07  Tolerance :   1.0000e-05
  Last Orbital Rotation      ...    1.2521e-06  Tolerance :   1.0000e-05

             **** THE GBW FILE WAS UPDATED (ox_gs_C_orca0005.gbw) ****
             **** DENSITY ox_gs_C_orca0005.scfp WAS UPDATED ****
             **** ENERGY FILE WAS UPDATED (ox_gs_C_orca0005.en.tmp) ****
             **** THE GBW FILE WAS UPDATED (ox_gs_C_orca0005.gbw) ****
             **** DENSITY ox_gs_C_orca0005.scfp WAS UPDATED ****
----------------
ORBITAL ENERGIES
----------------

  NO   OCC          E(Eh)            E(eV) 
   0   2.0000     -19.209825      -522.7259 
   1   2.0000     -10.301492      -280.3179 
   2   2.0000     -10.272885      -279.5394 
   3   2.0000      -1.010454       -27.4959 
   4   2.0000      -0.752009       -20.4632 
   5   2.0000      -0.642482       -17.4828 
   6   2.0000      -0.521114       -14.1802 
   7   2.0000      -0.489579       -13.3221 
   8   2.0000      -0.412817       -11.2333 
   9   2.0000      -0.393615       -10.7108 
  10   2.0000      -0.306671        -8.3449 
  11   2.0000      -0.271886        -7.3984 
  12   0.0000      -0.067126        -1.8266 
  13   0.0000       0.061997         1.6870 
  14   0.0000       0.084503         2.2994 
  15   0.0000       0.092394         2.5142 
  16   0.0000       0.111866         3.0440 
  17   0.0000       0.149522         4.0687 
  18   0.0000       0.185116         5.0373 
  19   0.0000       0.204721         5.5707 
  20   0.0000       0.241120         6.5612 
  21   0.0000       0.258715         7.0400 
  22   0.0000       0.275863         7.5066 
  23   0.0000       0.316329         8.6078 
  24   0.0000       0.380566        10.3557 
  25   0.0000       0.409761        11.1502 
  26   0.0000       0.413714        11.2577 
  27   0.0000       0.423963        11.5366 
  28   0.0000       0.454330        12.3630 
  29   0.0000       0.502428        13.6718 
  30   0.0000       0.507557        13.8113 
  31   0.0000       0.521967        14.2035 
  32   0.0000       0.551644        15.0110 
  33   0.0000       0.646272        17.5859 
  34   0.0000       0.655497        17.8370 
  35   0.0000       0.760360        20.6904 
  36   0.0000       0.821393        22.3512 
  37   0.0000       0.831578        22.6284 
  38   0.0000       0.845509        23.0075 
  39   0.0000       0.944243        25.6942 
  40   0.0000       0.962559        26.1925 
  41   0.0000       1.034238        28.1431 
  42   0.0000       1.060568        28.8595 
  43   0.0000       1.076457        29.2919 
  44   0.0000       1.175711        31.9927 
  45   0.0000       1.349487        36.7214 
  46   0.0000       1.400409        38.1071 
  47   0.0000       1.470770        40.0217 
  48   0.0000       1.492436        40.6112 
  49   0.0000       1.530504        41.6471 
  50   0.0000       1.585531        43.1445 
  51   0.0000       1.622369        44.1469 
  52   0.0000       1.667977        45.3880 
  53   0.0000       1.676681        45.6248 
  54   0.0000       1.716017        46.6952 
  55   0.0000       1.764479        48.0139 
  56   0.0000       1.824999        49.6608 
  57   0.0000       1.859409        50.5971 
  58   0.0000       1.904523        51.8247 
  59   0.0000       1.989815        54.1456 
  60   0.0000       2.003309        54.5128 
  61   0.0000       2.121490        57.7287 
  62   0.0000       2.150967        58.5308 
  63   0.0000       2.225746        60.5656 
  64   0.0000       2.309206        62.8367 
  65   0.0000       2.336689        63.5845 
  66   0.0000       2.437037        66.3151 
  67   0.0000       2.457809        66.8804 
  68   0.0000       2.507363        68.2288 
  69   0.0000       2.537627        69.0523 
  70   0.0000       2.581010        70.2328 
  71   0.0000       2.642673        71.9108 
  72   0.0000       2.693207        73.2859 
  73   0.0000       2.744188        74.6732 
  74   0.0000       2.771253        75.4096 
  75   0.0000       2.787249        75.8449 
  76   0.0000       2.847636        77.4881 
  77   0.0000       2.898460        78.8711 
  78   0.0000       2.979788        81.0841 
  79   0.0000       2.997901        81.5770 
  80   0.0000       3.029911        82.4481 
  81   0.0000       3.097089        84.2761 
  82   0.0000       3.104941        84.4897 
  83   0.0000       3.145406        85.5908 
  84   0.0000       3.193679        86.9044 
  85   0.0000       3.250798        88.4587 
  86   0.0000       3.334730        90.7426 
  87   0.0000       3.395240        92.3892 
  88   0.0000       3.466098        94.3173 
  89   0.0000       3.545139        96.4681 
  90   0.0000       3.583978        97.5250 
  91   0.0000       3.679582       100.1265 
  92   0.0000       3.751610       102.0865 
  93   0.0000       3.896359       106.0253 
  94   0.0000       4.087008       111.2131 
  95   0.0000       4.100974       111.5932 
  96   0.0000       4.158785       113.1663 
  97   0.0000       4.294143       116.8496 
  98   0.0000       4.431090       120.5761 
  99   0.0000       4.554098       123.9233 
 100   0.0000       4.614178       125.5582 
 101   0.0000       4.817406       131.0883 
 102   0.0000       5.245048       142.7250 
 103   0.0000       5.263611       143.2301 
 104   0.0000       5.355653       145.7347 
 105   0.0000       5.415275       147.3571 
 106   0.0000       5.738673       156.1572 
 107   0.0000       5.740147       156.1973 
 108   0.0000       5.928557       161.3242 
 109   0.0000       6.414605       174.5503 
 110   0.0000       6.489155       176.5789 
 111   0.0000       6.758026       183.8952 
 112   0.0000       6.910831       188.0533 
 113   0.0000       6.985943       190.0972 
 114   0.0000      22.228767       604.8755 
 115   0.0000      22.479875       611.7085 
 116   0.0000      43.694390      1188.9848 

                    ********************************
                    * MULLIKEN POPULATION ANALYSIS *
                    ********************************

-----------------------
MULLIKEN ATOMIC CHARGES
-----------------------
   0 O :   -0.371672
   1 C :   -0.000543
   2 C :   -0.148175
   3 H :    0.108868
   4 H :    0.101732
   5 H :    0.160215
   6 H :    0.149575
Sum of atomic charges:   -0.0000000

--------------------------------
MULLIKEN REDUCED ORBITAL CHARGES
--------------------------------
  0 O s       :     3.909902  s :     3.909902
      pz      :     1.901667  p :     4.435144
      px      :     1.349931
      py      :     1.183547
      dz2     :     0.003671  d :     0.025329
      dxz     :     0.000640
      dyz     :     0.004687
      dx2y2   :     0.008004
      dxy     :     0.008328
      f0      :     0.000143  f :     0.001297
      f+1     :     0.000077
      f-1     :     0.000329
      f+2     :     0.000122
      f-2     :     0.000044
      f+3     :     0.000313
      f-3     :     0.000269
  1 C s       :     3.182053  s :     3.182053
      pz      :     1.041793  p :     2.668564
      px      :     0.907118
      py      :     0.719653
      dz2     :     0.008337  d :     0.139695
      dxz     :     0.019478
      dyz     :     0.042468
      dx2y2   :     0.027416
      dxy     :     0.041996
      f0      :     0.001564  f :     0.010231
      f+1     :     0.001149
      f-1     :     0.000785
      f+2     :     0.002530
      f-2     :     0.000318
      f+3     :     0.001564
      f-3     :     0.002320
  2 C s       :     3.291123  s :     3.291123
      pz      :     1.060833  p :     2.787047
      px      :     0.966195
      py      :     0.760019
      dz2     :     0.006881  d :     0.063868
      dxz     :     0.023390
      dyz     :     0.008492
      dx2y2   :     0.010530
      dxy     :     0.014574
      f0      :     0.000638  f :     0.006137
      f+1     :     0.001167
      f-1     :     0.000137
      f+2     :     0.000944
      f-2     :     0.000428
      f+3     :     0.001320
      f-3     :     0.001504
  3 H s       :     0.869804  s :     0.869804
      pz      :     0.010683  p :     0.021328
      px      :     0.006539
      py      :     0.004106
  4 H s       :     0.876795  s :     0.876795
      pz      :     0.010970  p :     0.021473
      px      :     0.006372
      py      :     0.004132
  5 H s       :     0.815756  s :     0.815756
      pz      :     0.010922  p :     0.024029
      px      :     0.008348
      py      :     0.004759
  6 H s       :     0.829540  s :     0.829540
      pz      :     0.011454  p :     0.020885
      px      :     0.005988
      py      :     0.003443


                     *******************************
                     * LOEWDIN POPULATION ANALYSIS *
                     *******************************

----------------------
LOEWDIN ATOMIC CHARGES
----------------------
   0 O :   -0.049579
   1 C :   -0.374956
   2 C :   -0.051892
   3 H :    0.112161
   4 H :    0.117368
   5 H :    0.106327
   6 H :    0.140570

-------------------------------
LOEWDIN REDUCED ORBITAL CHARGES
-------------------------------
  0 O s       :     3.555377  s :     3.555377
      pz      :     1.826548  p :     4.436824
      px      :     1.312035
      py      :     1.298240
      dz2     :     0.007829  d :     0.053903
      dxz     :     0.001342
      dyz     :     0.011300
      dx2y2   :     0.017792
      dxy     :     0.015640
      f0      :     0.000321  f :     0.003475
      f+1     :     0.000109
      f-1     :     0.000617
      f+2     :     0.000501
      f-2     :     0.000142
      f+3     :     0.000957
      f-3     :     0.000827
  1 C s       :     2.818651  s :     2.818651
      pz      :     1.055942  p :     2.919394
      px      :     1.047111
      py      :     0.816340
      dz2     :     0.062158  d :     0.565011
      dxz     :     0.111132
      dyz     :     0.116725
      dx2y2   :     0.135101
      dxy     :     0.139895
      f0      :     0.009940  f :     0.071900
      f+1     :     0.005390
      f-1     :     0.007253
      f+2     :     0.014880
      f-2     :     0.001914
      f+3     :     0.011953
      f-3     :     0.020570
  2 C s       :     2.885339  s :     2.885339
      pz      :     1.075825  p :     2.868016
      px      :     1.080446
      py      :     0.711745
      dz2     :     0.035173  d :     0.268898
      dxz     :     0.117047
      dyz     :     0.016255
      dx2y2   :     0.048405
      dxy     :     0.052017
      f0      :     0.003794  f :     0.029639
      f+1     :     0.004091
      f-1     :     0.001437
      f+2     :     0.005273
      f-2     :     0.001171
      f+3     :     0.006024
      f-3     :     0.007849
  3 H s       :     0.824680  s :     0.824680
      pz      :     0.032764  p :     0.063160
      px      :     0.018074
      py      :     0.012322
  4 H s       :     0.820725  s :     0.820725
      pz      :     0.032693  p :     0.061908
      px      :     0.017326
      py      :     0.011888
  5 H s       :     0.818068  s :     0.818068
      pz      :     0.036167  p :     0.075605
      px      :     0.024958
      py      :     0.014479
  6 H s       :     0.800970  s :     0.800970
      pz      :     0.032946  p :     0.058460
      px      :     0.016001
      py      :     0.009512


                      *****************************
                      * MAYER POPULATION ANALYSIS *
                      *****************************

  NA   - Mulliken gross atomic population
  ZA   - Total nuclear charge
  QA   - Mulliken gross atomic charge
  VA   - Mayer's total valence
  BVA  - Mayer's bonded valence
  FA   - Mayer's free valence

  ATOM       NA         ZA         QA         VA         BVA        FA
  0 O      8.3717     8.0000    -0.3717     1.8979     1.8979    -0.0000
  1 C      6.0005     6.0000    -0.0005     4.0305     4.0305     0.0000
  2 C      6.1482     6.0000    -0.1482     3.8701     3.8701    -0.0000
  3 H      0.8911     1.0000     0.1089     0.9511     0.9511    -0.0000
  4 H      0.8983     1.0000     0.1017     0.9603     0.9603    -0.0000
  5 H      0.8398     1.0000     0.1602     0.9554     0.9554    -0.0000
  6 H      0.8504     1.0000     0.1496     0.9623     0.9623    -0.0000

  Mayer bond orders larger than 0.100000
B(  0-O ,  1-C ) :   1.0230 B(  0-O ,  2-C ) :   0.8726 B(  1-C ,  2-C ) :   1.0857 
B(  1-C ,  3-H ) :   0.9490 B(  1-C ,  4-H ) :   0.9632 B(  2-C ,  5-H ) :   0.9469 
B(  2-C ,  6-H ) :   0.9504 

-------
TIMINGS
-------

Total SCF time: 0 days 0 hours 0 min 2 sec 

Total time                  ....       2.884 sec
Sum of individual times     ....       2.579 sec  ( 89.4%)

Fock matrix formation       ....       2.311 sec  ( 80.1%)
  Split-RI-J                ....       0.241 sec  ( 10.4% of F)
  Chain of spheres X        ....       1.586 sec  ( 68.6% of F)
  XC integration            ....       0.418 sec  ( 18.1% of F)
    Basis function eval.    ....       0.113 sec  ( 27.1% of XC)
    Density eval.           ....       0.085 sec  ( 20.4% of XC)
    XC-Functional eval.     ....       0.024 sec  (  5.7% of XC)
    XC-Potential eval.      ....       0.149 sec  ( 35.6% of XC)
Diagonalization             ....       0.014 sec  (  0.5%)
Density matrix formation    ....       0.002 sec  (  0.1%)
Population analysis         ....       0.004 sec  (  0.1%)
Initial guess               ....       0.017 sec  (  0.6%)
Orbital Transformation      ....       0.000 sec  (  0.0%)
Orbital Orthonormalization  ....       0.000 sec  (  0.0%)
DIIS solution               ....       0.011 sec  (  0.4%)
SOSCF solution              ....       0.015 sec  (  0.5%)
Grid generation             ....       0.206 sec  (  7.1%)

Maximum memory used throughout the entire SCF-calculation: 61.0 MB


-------------------------------------------------------------------------------
                          DFT DISPERSION CORRECTION                            
                                                                               
                              DFTD3 V3.1  Rev 1                                
                          USING Becke-Johnson damping                          
-------------------------------------------------------------------------------
The PBE0 functional is recognized
Active option DFTDOPT                   ...         4   

molecular C6(AA) [au] = 382.416465 


            DFT-D V3
 parameters
 s6 scaling factor         :     1.0000 
 a1 scaling factor         :     0.4145 
 s8 scaling factor         :     1.2177 
 a2 scaling factor         :     4.8593 
 ad hoc parameters k1-k3   :    16.0000     1.3333    -4.0000 

 Edisp/kcal,au: -1.623160303265  -0.002586670317 
 E6   /kcal   :  -1.060889085 
 E8   /kcal   :  -0.562271219 
 % E8         :  34.640523035 

-------------------------   ----------------
Dispersion correction           -0.002586670
-------------------------   ----------------


-------------------------   --------------------
FINAL SINGLE POINT ENERGY      -153.614312308253
-------------------------   --------------------



           ************************************************************
           *        Program running with 8 parallel MPI-processes     *
           *              working on a common directory               *
           ************************************************************
------------------------------------------------------------------------------
                         ORCA SCF GRADIENT CALCULATION
------------------------------------------------------------------------------

 ... reading COSX grid (gridx3)
Gradient of the Kohn-Sham DFT energy:
Kohn-Sham wavefunction type      ... RKS
Hartree-Fock exchange scaling    ...    0.250
Number of operators              ...    1
Number of atoms                  ...    7
Basis set dimensions             ...  117
Integral neglect threshold       ... 2.5e-11
Integral primitive cutoff        ... 2.5e-12
SHARK Integral package           ... ON

Nuc. rep. gradient       (SHARK) ... done (  0.0 sec)
HCore & Overlap gradient (SHARK) ... done (  0.0 sec)
RI-J gradient            (SHARK) ... done (  0.1 sec)
COSX-gradient                    ... done (  0.3 sec)
Exchange-correlation gradient    ... done
Dispersion correction            ... done

------------------
CARTESIAN GRADIENT
------------------

   1   O   :   -0.060138126    0.057677366   -0.000670367
   2   C   :    0.006233947   -0.034659873    0.020002774
   3   C   :    0.047012553   -0.041917692   -0.079295124
   4   H   :    0.003533921    0.013818484   -0.011585181
   5   H   :    0.006933274    0.017398716    0.005300844
   6   H   :   -0.016912600   -0.003666778    0.045378283
   7   H   :    0.013355826   -0.008687353    0.020858160

Difference to translation invariance:
           :    0.0000187944   -0.0000371304   -0.0000106122

Difference to rotation invariance:
           :   -0.0000894768   -0.0000308928    0.0002142724

Norm of the cartesian gradient     ...    0.1503433157
RMS gradient                       ...    0.0328076012
MAX gradient                       ...    0.0792951235

-------
TIMINGS
-------

Total SCF gradient time            ...        0.701 sec

One electron gradient       ....       0.010 sec  (  1.4%)
RI-J Coulomb gradient       ....       0.076 sec  ( 10.8%)
COSX gradient               ....       0.305 sec  ( 43.5%)
XC gradient                 ....       0.153 sec  ( 21.8%)

Maximum memory used throughout the entire SCFGRAD-calculation: 35.9 MB

                            ***************************************
                            *     ORCA property calculations      *
                            ***************************************

                                    ---------------------
                                    Active property flags
                                    ---------------------
   (+) Dipole Moment


------------------------------------------------------------------------------
                       ORCA ELECTRIC PROPERTIES CALCULATION
------------------------------------------------------------------------------

Dipole Moment Calculation                       ... on
Quadrupole Moment Calculation                   ... off
Polarizability Calculation                      ... off
GBWName                                         ... ox_gs_C_orca0005.gbw
Electron density                                ... ox_gs_C_orca0005.scfp
The origin for moment calculation is the CENTER OF MASS  = (-0.355829,  0.064418  0.039033)

-------------
DIPOLE MOMENT
-------------
                                X             Y             Z
Electronic contribution:     -0.35119       1.43364      -0.09537
Nuclear contribution   :      0.72996      -2.54949       0.09497
                        -----------------------------------------
Total Dipole Moment    :      0.37877      -1.11585      -0.00041
                        -----------------------------------------
Magnitude (a.u.)       :      1.17838
Magnitude (Debye)      :      2.99521



--------------------
Rotational spectrum 
--------------------
 
Rotational constants in cm-1:     0.951402     0.518307     0.386308 
Rotational constants in MHz : 28522.321360 15538.451800 11581.225116 

 Dipole components along the rotational axes: 
x,y,z [a.u.] :    -1.066013    -0.502174     0.005274 
x,y,z [Debye]:    -2.709589    -1.276425     0.013406 

 

Timings for individual modules:

Sum of individual times         ...        4.260 sec (=   0.071 min)
GTO integral calculation        ...        0.304 sec (=   0.005 min)   7.1 %
SCF iterations                  ...        3.049 sec (=   0.051 min)  71.6 %
SCF Gradient evaluation         ...        0.907 sec (=   0.015 min)  21.3 %
                             ****ORCA TERMINATED NORMALLY****
TOTAL RUN TIME: 0 days 0 hours 0 minutes 4 seconds 592 msec
