
                                 *****************
                                 * O   R   C   A *
                                 *****************

                                            #,                                       
                                            ###                                      
                                            ####                                     
                                            #####                                    
                                            ######                                   
                                           ########,                                 
                                     ,,################,,,,,                         
                               ,,#################################,,                 
                          ,,##########################################,,             
                       ,#########################################, ''#####,          
                    ,#############################################,,   '####,        
                  ,##################################################,,,,####,       
                ,###########''''           ''''###############################       
              ,#####''   ,,,,##########,,,,          '''####'''          '####       
            ,##' ,,,,###########################,,,                        '##       
           ' ,,###''''                  '''############,,,                           
         ,,##''                                '''############,,,,        ,,,,,,###''
      ,#''                                            '''#######################'''  
     '                                                          ''''####''''         
             ,#######,   #######,   ,#######,      ##                                
            ,#'     '#,  ##    ##  ,#'     '#,    #''#        ######   ,####,        
            ##       ##  ##   ,#'  ##            #'  '#       #        #'  '#        
            ##       ##  #######   ##           ,######,      #####,   #    #        
            '#,     ,#'  ##    ##  '#,     ,#' ,#      #,         ##   #,  ,#        
             '#######'   ##     ##  '#######'  #'      '#     #####' # '####'        



                  #######################################################
                  #                        -***-                        #
                  #          Department of theory and spectroscopy      #
                  #    Directorship and core code : Frank Neese         #
                  #        Max Planck Institute fuer Kohlenforschung    #
                  #                Kaiser Wilhelm Platz 1               #
                  #                 D-45470 Muelheim/Ruhr               #
                  #                      Germany                        #
                  #                                                     #
                  #                  All rights reserved                #
                  #                        -***-                        #
                  #######################################################


                         Program Version 5.0.2 -  RELEASE  -


 With contributions from (in alphabetic order):
   Daniel Aravena         : Magnetic Suceptibility
   Michael Atanasov       : Ab Initio Ligand Field Theory (pilot matlab implementation)
   Alexander A. Auer      : GIAO ZORA, VPT2 properties, NMR spectrum
   Ute Becker             : Parallelization
   Giovanni Bistoni       : ED, misc. LED, open-shell LED, HFLD
   Martin Brehm           : Molecular dynamics
   Dmytro Bykov           : SCF Hessian
   Vijay G. Chilkuri      : MRCI spin determinant printing, contributions to CSF-ICE
   Dipayan Datta          : RHF DLPNO-CCSD density
   Achintya Kumar Dutta   : EOM-CC, STEOM-CC
   Dmitry Ganyushin       : Spin-Orbit,Spin-Spin,Magnetic field MRCI
   Miquel Garcia          : C-PCM and meta-GGA Hessian, CC/C-PCM, Gaussian charge scheme
   Yang Guo               : DLPNO-NEVPT2, F12-NEVPT2, CIM, IAO-localization
   Andreas Hansen         : Spin unrestricted coupled pair/coupled cluster methods
   Benjamin Helmich-Paris : MC-RPA, TRAH-SCF, COSX integrals
   Lee Huntington         : MR-EOM, pCC
   Robert Izsak           : Overlap fitted RIJCOSX, COSX-SCS-MP3, EOM
   Marcus Kettner         : VPT2
   Christian Kollmar      : KDIIS, OOCD, Brueckner-CCSD(T), CCSD density, CASPT2, CASPT2-K
   Simone Kossmann        : Meta GGA functionals, TD-DFT gradient, OOMP2, MP2 Hessian
   Martin Krupicka        : Initial AUTO-CI
   Lucas Lang             : DCDCAS
   Marvin Lechner         : AUTO-CI (C++ implementation), FIC-MRCC
   Dagmar Lenk            : GEPOL surface, SMD
   Dimitrios Liakos       : Extrapolation schemes; Compound Job, initial MDCI parallelization
   Dimitrios Manganas     : Further ROCIS development; embedding schemes
   Dimitrios Pantazis     : SARC Basis sets
   Anastasios Papadopoulos: AUTO-CI, single reference methods and gradients
   Taras Petrenko         : DFT Hessian,TD-DFT gradient, ASA, ECA, R-Raman, ABS, FL, XAS/XES, NRVS
   Peter Pinski           : DLPNO-MP2, DLPNO-MP2 Gradient
   Christoph Reimann      : Effective Core Potentials
   Marius Retegan         : Local ZFS, SOC
   Christoph Riplinger    : Optimizer, TS searches, QM/MM, DLPNO-CCSD(T), (RO)-DLPNO pert. Triples
   Tobias Risthaus        : Range-separated hybrids, TD-DFT gradient, RPA, STAB
   Michael Roemelt        : Original ROCIS implementation
   Masaaki Saitow         : Open-shell DLPNO-CCSD energy and density
   Barbara Sandhoefer     : DKH picture change effects
   Avijit Sen             : IP-ROCIS
   Kantharuban Sivalingam : CASSCF convergence, NEVPT2, FIC-MRCI
   Bernardo de Souza      : ESD, SOC TD-DFT
   Georgi Stoychev        : AutoAux, RI-MP2 NMR, DLPNO-MP2 response
   Willem Van den Heuvel  : Paramagnetic NMR
   Boris Wezisla          : Elementary symmetry handling
   Frank Wennmohs         : Technical directorship


 We gratefully acknowledge several colleagues who have allowed us to
 interface, adapt or use parts of their codes:
   Stefan Grimme, W. Hujo, H. Kruse, P. Pracht,  : VdW corrections, initial TS optimization,
                  C. Bannwarth, S. Ehlert          DFT functionals, gCP, sTDA/sTD-DF
   Ed Valeev, F. Pavosevic, A. Kumar             : LibInt (2-el integral package), F12 methods
   Garnet Chan, S. Sharma, J. Yang, R. Olivares  : DMRG
   Ulf Ekstrom                                   : XCFun DFT Library
   Mihaly Kallay                                 : mrcc  (arbitrary order and MRCC methods)
   Jiri Pittner, Ondrej Demel                    : Mk-CCSD
   Frank Weinhold                                : gennbo (NPA and NBO analysis)
   Christopher J. Cramer and Donald G. Truhlar   : smd solvation model
   Lars Goerigk                                  : TD-DFT with DH, B97 family of functionals
   V. Asgeirsson, H. Jonsson                     : NEB implementation
   FAccTs GmbH                                   : IRC, NEB, NEB-TS, DLPNO-Multilevel, CI-OPT
                                                   MM, QMMM, 2- and 3-layer-ONIOM, Crystal-QMMM,
                                                   LR-CPCM, SF, NACMEs, symmetry and pop. for TD-DFT,
                                                   nearIR, NL-DFT gradient (VV10), updates on ESD,
                                                   ML-optimized integration grids
   S Lehtola, MJT Oliveira, MAL Marques          : LibXC Library
   Liviu Ungur et al                             : ANISO software


 Your calculation uses the libint2 library for the computation of 2-el integrals
 For citations please refer to: http://libint.valeyev.net

 Your ORCA version has been built with support for libXC version: 5.1.0
 For citations please refer to: https://tddft.org/programs/libxc/

 This ORCA versions uses:
   CBLAS   interface :  Fast vector & matrix operations
   LAPACKE interface :  Fast linear algebra routines
   SCALAPACK package :  Parallel linear algebra routines
   Shared memory     :  Shared parallel matrices
   BLAS/LAPACK       :  OpenBLAS 0.3.15  USE64BITINT DYNAMIC_ARCH NO_AFFINITY SkylakeX SINGLE_THREADED
        Core in use  :  SkylakeX
   Copyright (c) 2011-2014, The OpenBLAS Project


Your calculation utilizes the atom-pairwise dispersion correction
with the Becke-Johnson damping scheme (D3BJ)
Cite in your paper:
S.Grimme, S.Ehrlich, L.Goerigk, J Comput Chem, (2011), 32, 1456–1465 
S.Grimme, J.Antony, S.Ehrlich and H.Krieg, J.Chem.Phys., 132, (2010), 154104 
   

================================================================================

----- Orbital basis set information -----
Your calculation utilizes the basis: def2-TZVP
   F. Weigend and R. Ahlrichs, Phys. Chem. Chem. Phys. 7, 3297 (2005).

----- AuxJ basis set information -----
Your calculation utilizes the auxiliary basis: def2/J
   F. Weigend, Phys. Chem. Chem. Phys. 8, 1057 (2006).

================================================================================
                                        WARNINGS
                       Please study these warnings very carefully!
================================================================================


INFO   : the flag for use of the SHARK integral package has been found!

================================================================================
                                       INPUT FILE
================================================================================
NAME = ox_gs_E_orca0002.inp
|  1> ! engrad PBE0 D3BJ def2-TZVP  
|  2> %pal nprocs 8 end
|  3> %maxcore 3000
|  4>  
|  5> *xyz 0 1 
|  6> O   -0.907683522739101 0.894713750271198 -0.07304274077479206
|  7> C   -0.7060823086255839 -0.44538500006760245 -0.009506092706622086
|  8> C   0.7444846027916296 -0.4848583521127071 0.010168867033285182
|  9> H   -1.3480635942799464 -0.6524196582956886 0.9656921534103619
| 10> H   -1.2575212070165736 -0.7395856974700349 -0.8780282072101997
| 11> H   1.244980833679433 -0.6489366491136299 -0.8878745760237157
| 12> H   1.2265903304473034 -0.574015553613044 0.9051251388118248
| 13> *
| 14> 
| 15>                          ****END OF INPUT****
================================================================================

                     *******************************
                     * Energy+Gradient Calculation *
                     *******************************

---------------------------------
CARTESIAN COORDINATES (ANGSTROEM)
---------------------------------
  O     -0.907684    0.894714   -0.073043
  C     -0.706082   -0.445385   -0.009506
  C      0.744485   -0.484858    0.010169
  H     -1.348064   -0.652420    0.965692
  H     -1.257521   -0.739586   -0.878028
  H      1.244981   -0.648937   -0.887875
  H      1.226590   -0.574016    0.905125

----------------------------
CARTESIAN COORDINATES (A.U.)
----------------------------
  NO LB      ZA    FRAG     MASS         X           Y           Z
   0 O     8.0000    0    15.999   -1.715273    1.690764   -0.138031
   1 C     6.0000    0    12.011   -1.334302   -0.841656   -0.017964
   2 C     6.0000    0    12.011    1.406872   -0.916249    0.019216
   3 H     1.0000    0     1.008   -2.547471   -1.232894    1.824894
   4 H     1.0000    0     1.008   -2.376371   -1.397614   -1.659233
   5 H     1.0000    0     1.008    2.352673   -1.226313   -1.677840
   6 H     1.0000    0     1.008    2.317920   -1.084732    1.710439

--------------------------------
INTERNAL COORDINATES (ANGSTROEM)
--------------------------------
 O      0   0   0     0.000000000000     0.00000000     0.00000000
 C      1   0   0     1.356666729834     0.00000000     0.00000000
 C      2   1   0     1.451237270077   100.13885398     0.00000000
 H      2   1   3     1.185755008451    97.50033653   124.17647110
 H      2   1   3     1.070032509970    99.03244381   235.81231948
 H      3   2   1     1.041105273398   118.23608324   263.15029221
 H      3   2   1     1.020451697835   119.11025477    97.47882063

---------------------------
INTERNAL COORDINATES (A.U.)
---------------------------
 O      0   0   0     0.000000000000     0.00000000     0.00000000
 C      1   0   0     2.563728574389     0.00000000     0.00000000
 C      2   1   0     2.742440995785   100.13885398     0.00000000
 H      2   1   3     2.240752227899    97.50033653   124.17647110
 H      2   1   3     2.022068398235    99.03244381   235.81231948
 H      3   2   1     1.967403843304   118.23608324   263.15029221
 H      3   2   1     1.928374241802   119.11025477    97.47882063

---------------------
BASIS SET INFORMATION
---------------------
There are 3 groups of distinct atoms

 Group   1 Type O   : 11s6p2d1f contracted to 5s3p2d1f pattern {62111/411/11/1}
 Group   2 Type C   : 11s6p2d1f contracted to 5s3p2d1f pattern {62111/411/11/1}
 Group   3 Type H   : 5s1p contracted to 3s1p pattern {311/1}

Atom   0O    basis set group =>   1
Atom   1C    basis set group =>   2
Atom   2C    basis set group =>   2
Atom   3H    basis set group =>   3
Atom   4H    basis set group =>   3
Atom   5H    basis set group =>   3
Atom   6H    basis set group =>   3
---------------------------------
AUXILIARY/J BASIS SET INFORMATION
---------------------------------
There are 3 groups of distinct atoms

 Group   1 Type O   : 12s5p4d2f1g contracted to 6s4p3d1f1g pattern {711111/2111/211/2/1}
 Group   2 Type C   : 12s5p4d2f1g contracted to 6s4p3d1f1g pattern {711111/2111/211/2/1}
 Group   3 Type H   : 5s2p1d contracted to 3s1p1d pattern {311/2/1}

Atom   0O    basis set group =>   1
Atom   1C    basis set group =>   2
Atom   2C    basis set group =>   2
Atom   3H    basis set group =>   3
Atom   4H    basis set group =>   3
Atom   5H    basis set group =>   3
Atom   6H    basis set group =>   3


           ************************************************************
           *        Program running with 8 parallel MPI-processes     *
           *              working on a common directory               *
           ************************************************************
------------------------------------------------------------------------------
                           ORCA GTO INTEGRAL CALCULATION
                           -- RI-GTO INTEGRALS CHOSEN --
------------------------------------------------------------------------------
------------------------------------------------------------------------------
                   ___                                                        
                  /   \      - P O W E R E D   B Y -                         
                 /     \                                                     
                 |  |  |   _    _      __       _____    __    __             
                 |  |  |  | |  | |    /  \     |  _  \  |  |  /  |          
                  \  \/   | |  | |   /    \    | | | |  |  | /  /          
                 / \  \   | |__| |  /  /\  \   | |_| |  |  |/  /          
                |  |  |   |  __  | /  /__\  \  |    /   |      \           
                |  |  |   | |  | | |   __   |  |    \   |  |\   \          
                \     /   | |  | | |  |  |  |  | |\  \  |  | \   \       
                 \___/    |_|  |_| |__|  |__|  |_| \__\ |__|  \__/        
                                                                              
                      - O R C A' S   B I G   F R I E N D -                    
                                      &                                       
                       - I N T E G R A L  F E E D E R -                       
                                                                              
 v1 FN, 2020, v2 2021                                                         
------------------------------------------------------------------------------


Reading SHARK input file ox_gs_E_orca0002.SHARKINP.tmp ... ok
----------------------
SHARK INTEGRAL PACKAGE
----------------------

Number of atoms                             ...      7
Number of basis functions                   ...    117
Number of shells                            ...     49
Maximum angular momentum                    ...      3
Integral batch strategy                     ... SHARK/LIBINT Hybrid
RI-J (if used) integral strategy            ... SPLIT-RIJ (Revised 2003 algorithm where possible)
Printlevel                                  ...      1
Contraction scheme used                     ... SEGMENTED contraction
Coulomb Range Separation                    ... NOT USED
Exchange Range Separation                   ... NOT USED
Finite Nucleus Model                        ... NOT USED
Auxiliary Coulomb fitting basis             ... AVAILABLE
   # of basis functions in Aux-J            ...    191
   # of shells in Aux-J                     ...     65
   Maximum angular momentum in Aux-J        ...      4
Auxiliary J/K fitting basis                 ... NOT available
Auxiliary Correlation fitting basis         ... NOT available
Auxiliary 'external' fitting basis          ... NOT available
Integral threshold                          ...     2.500000e-11
Primitive cut-off                           ...     2.500000e-12
Primitive pair pre-selection threshold      ...     2.500000e-12

Calculating pre-screening integrals         ... done (  0.0 sec) Dimension = 49
Organizing shell pair data                  ... done (  0.0 sec)
Shell pair information
Total number of shell pairs                 ...      1225
Shell pairs after pre-screening             ...      1214
Total number of primitive shell pairs       ...      3648
Primitive shell pairs kept                  ...      3098
          la=0 lb=0:    368 shell pairs
          la=1 lb=0:    351 shell pairs
          la=1 lb=1:     91 shell pairs
          la=2 lb=0:    161 shell pairs
          la=2 lb=1:     78 shell pairs
          la=2 lb=2:     21 shell pairs
          la=3 lb=0:     81 shell pairs
          la=3 lb=1:     39 shell pairs
          la=3 lb=2:     18 shell pairs
          la=3 lb=3:      6 shell pairs

Calculating one electron integrals          ... done (  0.0 sec)
Calculating RI/J V-Matrix + Cholesky decomp.... done (  0.0 sec)
Calculating Nuclear repulsion               ... done (  0.0 sec) ENN=     70.109869432952 Eh

SHARK setup successfully completed in   0.1 seconds

Maximum memory used throughout the entire GTOINT-calculation: 14.9 MB


           ************************************************************
           *        Program running with 8 parallel MPI-processes     *
           *              working on a common directory               *
           ************************************************************
-------------------------------------------------------------------------------
                                 ORCA SCF
-------------------------------------------------------------------------------

------------
SCF SETTINGS
------------
Hamiltonian:
 Density Functional     Method          .... DFT(GTOs)
 Exchange Functional    Exchange        .... PBE
   PBE kappa parameter   XKappa         ....  0.804000
   PBE mue parameter    XMuePBE         ....  0.219520
 Correlation Functional Correlation     .... PBE
   PBE beta parameter  CBetaPBE         ....  0.066725
 LDA part of GGA corr.  LDAOpt          .... PW91-LDA
 Gradients option       PostSCFGGA      .... off
 Hybrid DFT is turned on
   Fraction HF Exchange ScalHFX         ....  0.250000
   Scaling of DF-GGA-X  ScalDFX         ....  0.750000
   Scaling of DF-GGA-C  ScalDFC         ....  1.000000
   Scaling of DF-LDA-C  ScalLDAC        ....  1.000000
   Perturbative correction              ....  0.000000
   Density functional embedding theory  .... OFF
   NL short-range parameter             ....  6.900000
 RI-approximation to the Coulomb term is turned on
   Number of AuxJ basis functions       .... 191
   RIJ-COSX (HFX calculated with COS-X)).... on


General Settings:
 Integral files         IntName         .... ox_gs_E_orca0002
 Hartree-Fock type      HFTyp           .... RHF
 Total Charge           Charge          ....    0
 Multiplicity           Mult            ....    1
 Number of Electrons    NEL             ....   24
 Basis Dimension        Dim             ....  117
 Nuclear Repulsion      ENuc            ....     70.1098694330 Eh

Convergence Acceleration:
 DIIS                   CNVDIIS         .... on
   Start iteration      DIISMaxIt       ....    12
   Startup error        DIISStart       ....  0.200000
   # of expansion vecs  DIISMaxEq       ....     5
   Bias factor          DIISBfac        ....   1.050
   Max. coefficient     DIISMaxC        ....  10.000
 Trust-Rad. Augm. Hess. CNVTRAH         .... auto
   Auto Start mean grad. ratio tolernc. ....  1.125000
   Auto Start start iteration           ....    20
   Auto Start num. interpolation iter.  ....    10
   Max. Number of Micro iterations      ....    16
   Max. Number of Macro iterations      .... Maxiter - #DIIS iter
   Number of Davidson start vectors     ....     2
   Converg. threshold I  (grad. norm)   ....   1.000e-05
   Converg. threshold II (energy diff.) ....   1.000e-08
   Grad. Scal. Fac. for Micro threshold ....   0.100
   Minimum threshold for Micro iter.    ....   0.010
   NR start threshold (gradient norm)   ....   0.001
   Initial trust radius                 ....   0.400
   Minimum AH scaling param. (alpha)    ....   1.000
   Maximum AH scaling param. (alpha)    .... 1000.000
   Orbital update algorithm             .... Taylor
   White noise on init. David. guess    .... on
   Maximum white noise                  ....   0.010
   Quad. conv. algorithm                .... NR
 SOSCF                  CNVSOSCF        .... on
   Start iteration      SOSCFMaxIt      ....   150
   Startup grad/error   SOSCFStart      ....  0.003300
 Level Shifting         CNVShift        .... on
   Level shift para.    LevelShift      ....    0.2500
   Turn off err/grad.   ShiftErr        ....    0.0010
 Zerner damping         CNVZerner       .... off
 Static damping         CNVDamp         .... on
   Fraction old density DampFac         ....    0.7000
   Max. Damping (<1)    DampMax         ....    0.9800
   Min. Damping (>=0)   DampMin         ....    0.0000
   Turn off err/grad.   DampErr         ....    0.1000
 Fernandez-Rico         CNVRico         .... off

SCF Procedure:
 Maximum # iterations   MaxIter         ....   125
 SCF integral mode      SCFMode         .... Direct
   Integral package                     .... SHARK and LIBINT hybrid scheme
 Reset frequency        DirectResetFreq ....    20
 Integral Threshold     Thresh          ....  2.500e-11 Eh
 Primitive CutOff       TCut            ....  2.500e-12 Eh

Convergence Tolerance:
 Convergence Check Mode ConvCheckMode   .... Total+1el-Energy
 Convergence forced     ConvForced      .... 0
 Energy Change          TolE            ....  1.000e-08 Eh
 1-El. energy change                    ....  1.000e-05 Eh
 Orbital Gradient       TolG            ....  1.000e-05
 Orbital Rotation angle TolX            ....  1.000e-05
 DIIS Error             TolErr          ....  5.000e-07


Diagonalization of the overlap matrix:
Smallest eigenvalue                        ... 4.371e-04
Time for diagonalization                   ...    0.001 sec
Threshold for overlap eigenvalues          ... 1.000e-08
Number of eigenvalues below threshold      ... 0
Time for construction of square roots      ...    0.001 sec
Total time needed                          ...    0.003 sec

Time for model grid setup =    0.022 sec

------------------------------
INITIAL GUESS: MODEL POTENTIAL
------------------------------
Loading Hartree-Fock densities                     ... done
Calculating cut-offs                               ... done
Initializing the effective Hamiltonian             ... done
Setting up the integral package (SHARK)            ... done
Starting the Coulomb interaction                   ... done (   0.0 sec)
Reading the grid                                   ... done
Mapping shells                                     ... done
Starting the XC term evaluation                    ... done (   0.0 sec)
  promolecular density results
     # of electrons  =     23.998844098
     EX              =    -19.490473686
     EC              =     -0.770109079
     EX+EC           =    -20.260582765
Transforming the Hamiltonian                       ... done (   0.0 sec)
Diagonalizing the Hamiltonian                      ... done (   0.0 sec)
Back transforming the eigenvectors                 ... done (   0.0 sec)
Now organizing SCF variables                       ... done
                      ------------------
                      INITIAL GUESS DONE (   0.0 sec)
                      ------------------
-------------------
DFT GRID GENERATION
-------------------

General Integration Accuracy     IntAcc      ... 4.388
Radial Grid Type                 RadialGrid  ... OptM3 with GC (2021)
Angular Grid (max. ang.)         AngularGrid ... 4 (Lebedev-302)
Angular grid pruning method      GridPruning ... 4 (adaptive)
Weight generation scheme         WeightScheme... Becke
Basis function cutoff            BFCut       ... 1.0000e-11
Integration weight cutoff        WCut        ... 1.0000e-14
Angular grids for H and He will be reduced by one unit
Partially contracted basis set               ... off
Rotationally invariant grid construction     ... off

Total number of grid points                  ...    31313
Total number of batches                      ...      493
Average number of points per batch           ...       63
Average number of grid points per atom       ...     4473
Time for grid setup =    0.113 sec

--------------------
COSX GRID GENERATION
--------------------

GRIDX 1
-------
General Integration Accuracy     IntAcc      ... 3.816
Radial Grid Type                 RadialGrid  ... OptM3 with GC (2021)
Angular Grid (max. ang.)         AngularGrid ... 1 (Lebedev-50)
Angular grid pruning method      GridPruning ... 4 (adaptive)
Weight generation scheme         WeightScheme... Becke
Basis function cutoff            BFCut       ... 1.0000e-11
Integration weight cutoff        WCut        ... 1.0000e-14
Angular grids for H and He will be reduced by one unit
Partially contracted basis set               ... on
Rotationally invariant grid construction     ... off

Total number of grid points                  ...     4036
Total number of batches                      ...       67
Average number of points per batch           ...       60
Average number of grid points per atom       ...      577
UseSFitting                                  ... on

GRIDX 2
-------
General Integration Accuracy     IntAcc      ... 4.020
Radial Grid Type                 RadialGrid  ... OptM3 with GC (2021)
Angular Grid (max. ang.)         AngularGrid ... 2 (Lebedev-110)
Angular grid pruning method      GridPruning ... 4 (adaptive)
Weight generation scheme         WeightScheme... Becke
Basis function cutoff            BFCut       ... 1.0000e-11
Integration weight cutoff        WCut        ... 1.0000e-14
Angular grids for H and He will be reduced by one unit
Partially contracted basis set               ... on
Rotationally invariant grid construction     ... off

Total number of grid points                  ...     8723
Total number of batches                      ...      140
Average number of points per batch           ...       62
Average number of grid points per atom       ...     1246
UseSFitting                                  ... on

GRIDX 3
-------
General Integration Accuracy     IntAcc      ... 4.338
Radial Grid Type                 RadialGrid  ... OptM3 with GC (2021)
Angular Grid (max. ang.)         AngularGrid ... 3 (Lebedev-194)
Angular grid pruning method      GridPruning ... 4 (adaptive)
Weight generation scheme         WeightScheme... Becke
Basis function cutoff            BFCut       ... 1.0000e-11
Integration weight cutoff        WCut        ... 1.0000e-14
Angular grids for H and He will be reduced by one unit
Partially contracted basis set               ... on
Rotationally invariant grid construction     ... off

Total number of grid points                  ...    19250
Total number of batches                      ...      305
Average number of points per batch           ...       63
Average number of grid points per atom       ...     2750
UseSFitting                                  ... on

Time for X-Grid setup             =    0.072 sec

--------------
SCF ITERATIONS
--------------
ITER       Energy         Delta-E        Max-DP      RMS-DP      [F,P]     Damp
               ***  Starting incremental Fock matrix formation  ***
  0   -153.3667715669   0.000000000000 0.09407357  0.00247318  0.3358009 0.7000
  1   -153.4649220537  -0.098150486728 0.05598906  0.00139464  0.0911484 0.7000
                               ***Turning on DIIS***
  2   -153.4793300710  -0.014408017375 0.04940863  0.00181425  0.0609510 0.0000
  3   -153.5398830516  -0.060552980509 0.02673486  0.00109616  0.0367124 0.0000
  4   -153.5419799862  -0.002096934604 0.01126908  0.00036476  0.0546170 0.0000
  5   -153.5449656259  -0.002985639710 0.00416516  0.00012893  0.0151947 0.0000
  6   -153.5452224916  -0.000256865748 0.00174184  0.00004865  0.0055210 0.0000
                      *** Initiating the SOSCF procedure ***
                           *** Shutting down DIIS ***
                      *** Re-Reading the Fockian *** 
                      *** Removing any level shift *** 
ITER      Energy       Delta-E        Grad      Rot      Max-DP    RMS-DP
  7   -153.54525109  -0.0000285934  0.000370  0.000370  0.001086  0.000048
               *** Restarting incremental Fock matrix formation ***
  8   -153.54523910   0.0000119802  0.000528  0.003844  0.001996  0.000053
  9   -153.54521629   0.0000228099  0.002202  0.003255  0.001768  0.000040
 10   -153.54524293  -0.0000266365  0.000125  0.001245  0.000367  0.000014
 11   -153.54524343  -0.0000005005  0.000097  0.001385  0.000416  0.000014
 12   -153.54524388  -0.0000004496  0.000031  0.000661  0.000203  0.000007
 13   -153.54524393  -0.0000000452  0.000009  0.000064  0.000021  0.000001
 14   -153.54524393  -0.0000000021  0.000007  0.000047  0.000014  0.000001
                  ***Gradient check signals convergence***
              ***Rediagonalizing the Fockian in SOSCF/NRSCF***

               *****************************************************
               *                     SUCCESS                       *
               *           SCF CONVERGED AFTER  15 CYCLES          *
               *****************************************************

Old exchange energy                            =     -4.972448277 Eh
New exchange energy                            =     -4.972449664 Eh
Exchange energy change after final integration =     -0.000001387 Eh
Total energy after final integration           =   -153.545245317 Eh
Final COS-X integration done in                =     0.302 sec

----------------
TOTAL SCF ENERGY
----------------

Total Energy       :         -153.54524532 Eh           -4178.17854 eV

Components:
Nuclear Repulsion  :           70.10986943 Eh            1907.78654 eV
Electronic Energy  :         -223.65511475 Eh           -6085.96508 eV
One Electron Energy:         -346.89688229 Eh           -9439.54406 eV
Two Electron Energy:          123.24176754 Eh            3353.57899 eV
Max COSX asymmetry :            0.00000145 Eh               0.00004 eV

Virial components:
Potential Energy   :         -306.55684640 Eh           -8341.83588 eV
Kinetic Energy     :          153.01160108 Eh            4163.65734 eV
Virial Ratio       :            2.00348761


DFT components:
N(Alpha)           :       12.000004311188 electrons
N(Beta)            :       12.000004311188 electrons
N(Total)           :       24.000008622375 electrons
E(X)               :      -14.923577297807 Eh       
E(C)               :       -0.775032238365 Eh       
E(XC)              :      -15.698609536172 Eh       
DFET-embed. en.    :        0.000000000000 Eh       

---------------
SCF CONVERGENCE
---------------

  Last Energy change         ...   -1.2028e-09  Tolerance :   1.0000e-08
  Last MAX-Density change    ...    7.7716e-16  Tolerance :   1.0000e-07
  Last RMS-Density change    ...    1.7865e-17  Tolerance :   5.0000e-09
  Last Orbital Gradient      ...    6.6295e-07  Tolerance :   1.0000e-05
  Last Orbital Rotation      ...    4.0646e-06  Tolerance :   1.0000e-05

             **** THE GBW FILE WAS UPDATED (ox_gs_E_orca0002.gbw) ****
             **** DENSITY ox_gs_E_orca0002.scfp WAS UPDATED ****
             **** ENERGY FILE WAS UPDATED (ox_gs_E_orca0002.en.tmp) ****
             **** THE GBW FILE WAS UPDATED (ox_gs_E_orca0002.gbw) ****
             **** DENSITY ox_gs_E_orca0002.scfp WAS UPDATED ****
----------------
ORBITAL ENERGIES
----------------

  NO   OCC          E(Eh)            E(eV) 
   0   2.0000     -19.196797      -522.3714 
   1   2.0000     -10.312444      -280.6159 
   2   2.0000     -10.272065      -279.5171 
   3   2.0000      -1.022086       -27.8124 
   4   2.0000      -0.782412       -21.2905 
   5   2.0000      -0.622614       -16.9422 
   6   2.0000      -0.535788       -14.5795 
   7   2.0000      -0.493544       -13.4300 
   8   2.0000      -0.431156       -11.7323 
   9   2.0000      -0.408271       -11.1096 
  10   2.0000      -0.276261        -7.5174 
  11   2.0000      -0.247819        -6.7435 
  12   0.0000      -0.138583        -3.7710 
  13   0.0000       0.059482         1.6186 
  14   0.0000       0.079447         2.1619 
  15   0.0000       0.091032         2.4771 
  16   0.0000       0.141991         3.8638 
  17   0.0000       0.147579         4.0158 
  18   0.0000       0.177566         4.8318 
  19   0.0000       0.211757         5.7622 
  20   0.0000       0.233980         6.3669 
  21   0.0000       0.248330         6.7574 
  22   0.0000       0.256412         6.9773 
  23   0.0000       0.346599         9.4314 
  24   0.0000       0.381071        10.3695 
  25   0.0000       0.405400        11.0315 
  26   0.0000       0.426201        11.5975 
  27   0.0000       0.432475        11.7682 
  28   0.0000       0.450858        12.2685 
  29   0.0000       0.488756        13.2997 
  30   0.0000       0.492200        13.3934 
  31   0.0000       0.557579        15.1725 
  32   0.0000       0.582285        15.8448 
  33   0.0000       0.594464        16.1762 
  34   0.0000       0.645221        17.5574 
  35   0.0000       0.739167        20.1138 
  36   0.0000       0.803836        21.8735 
  37   0.0000       0.846445        23.0329 
  38   0.0000       0.861165        23.4335 
  39   0.0000       0.920533        25.0490 
  40   0.0000       0.937278        25.5046 
  41   0.0000       1.038363        28.2553 
  42   0.0000       1.060615        28.8608 
  43   0.0000       1.087482        29.5919 
  44   0.0000       1.207980        32.8708 
  45   0.0000       1.318107        35.8675 
  46   0.0000       1.395359        37.9696 
  47   0.0000       1.455615        39.6093 
  48   0.0000       1.523097        41.4456 
  49   0.0000       1.533306        41.7234 
  50   0.0000       1.561477        42.4900 
  51   0.0000       1.613563        43.9073 
  52   0.0000       1.643503        44.7220 
  53   0.0000       1.685220        45.8572 
  54   0.0000       1.782780        48.5119 
  55   0.0000       1.801419        49.0191 
  56   0.0000       1.810833        49.2753 
  57   0.0000       1.827488        49.7285 
  58   0.0000       1.867009        50.8039 
  59   0.0000       1.895915        51.5905 
  60   0.0000       2.001580        54.4657 
  61   0.0000       2.096725        57.0548 
  62   0.0000       2.187724        59.5310 
  63   0.0000       2.250247        61.2323 
  64   0.0000       2.287135        62.2361 
  65   0.0000       2.361650        64.2638 
  66   0.0000       2.404456        65.4286 
  67   0.0000       2.492243        67.8174 
  68   0.0000       2.523015        68.6547 
  69   0.0000       2.535765        69.0017 
  70   0.0000       2.579584        70.1940 
  71   0.0000       2.609174        70.9992 
  72   0.0000       2.662893        72.4610 
  73   0.0000       2.729652        74.2776 
  74   0.0000       2.772187        75.4350 
  75   0.0000       2.821073        76.7653 
  76   0.0000       2.830082        77.0104 
  77   0.0000       2.984219        81.2047 
  78   0.0000       3.015246        82.0490 
  79   0.0000       3.034737        82.5794 
  80   0.0000       3.089722        84.0756 
  81   0.0000       3.108386        84.5835 
  82   0.0000       3.128168        85.1218 
  83   0.0000       3.174599        86.3852 
  84   0.0000       3.176907        86.4480 
  85   0.0000       3.190354        86.8139 
  86   0.0000       3.374434        91.8230 
  87   0.0000       3.414181        92.9046 
  88   0.0000       3.461447        94.1908 
  89   0.0000       3.505471        95.3887 
  90   0.0000       3.521518        95.8254 
  91   0.0000       3.659390        99.5771 
  92   0.0000       3.703017       100.7642 
  93   0.0000       3.896466       106.0282 
  94   0.0000       4.089418       111.2787 
  95   0.0000       4.102022       111.6217 
  96   0.0000       4.127588       112.3174 
  97   0.0000       4.268036       116.1392 
  98   0.0000       4.417751       120.2131 
  99   0.0000       4.453468       121.1850 
 100   0.0000       4.613892       125.5504 
 101   0.0000       4.776631       129.9787 
 102   0.0000       5.202618       141.5704 
 103   0.0000       5.256154       143.0272 
 104   0.0000       5.439102       148.0055 
 105   0.0000       5.462447       148.6408 
 106   0.0000       5.881433       160.0419 
 107   0.0000       5.910255       160.8262 
 108   0.0000       6.015981       163.7032 
 109   0.0000       6.409484       174.4109 
 110   0.0000       6.415674       174.5794 
 111   0.0000       6.849457       186.3832 
 112   0.0000       6.861463       186.7099 
 113   0.0000       6.955585       189.2711 
 114   0.0000      22.227270       604.8348 
 115   0.0000      22.586807       614.6183 
 116   0.0000      43.806367      1192.0318 

                    ********************************
                    * MULLIKEN POPULATION ANALYSIS *
                    ********************************

-----------------------
MULLIKEN ATOMIC CHARGES
-----------------------
   0 O :   -0.368158
   1 C :   -0.036488
   2 C :   -0.120975
   3 H :    0.089667
   4 H :    0.101945
   5 H :    0.167031
   6 H :    0.166978
Sum of atomic charges:    0.0000000

--------------------------------
MULLIKEN REDUCED ORBITAL CHARGES
--------------------------------
  0 O s       :     3.896740  s :     3.896740
      pz      :     1.894776  p :     4.443128
      px      :     1.211768
      py      :     1.336584
      dz2     :     0.003390  d :     0.026849
      dxz     :     0.000280
      dyz     :     0.006568
      dx2y2   :     0.009473
      dxy     :     0.007138
      f0      :     0.000181  f :     0.001441
      f+1     :     0.000072
      f-1     :     0.000320
      f+2     :     0.000202
      f-2     :     0.000029
      f+3     :     0.000317
      f-3     :     0.000321
  1 C s       :     3.188564  s :     3.188564
      pz      :     1.052445  p :     2.662557
      px      :     0.881760
      py      :     0.728352
      dz2     :     0.010728  d :     0.174185
      dxz     :     0.020036
      dyz     :     0.055164
      dx2y2   :     0.022579
      dxy     :     0.065678
      f0      :     0.001968  f :     0.011183
      f+1     :     0.001222
      f-1     :     0.000924
      f+2     :     0.003503
      f-2     :     0.000312
      f+3     :     0.002592
      f-3     :     0.000662
  2 C s       :     3.284280  s :     3.284280
      pz      :     1.067150  p :     2.782215
      px      :     1.005842
      py      :     0.709223
      dz2     :     0.006318  d :     0.049688
      dxz     :     0.023157
      dyz     :     0.003364
      dx2y2   :     0.005102
      dxy     :     0.011746
      f0      :     0.000596  f :     0.004791
      f+1     :     0.001175
      f-1     :     0.000070
      f+2     :     0.000698
      f-2     :     0.000188
      f+3     :     0.000799
      f-3     :     0.001265
  3 H s       :     0.892314  s :     0.892314
      pz      :     0.008688  p :     0.018018
      px      :     0.005704
      py      :     0.003626
  4 H s       :     0.875638  s :     0.875638
      pz      :     0.010082  p :     0.022418
      px      :     0.006886
      py      :     0.005449
  5 H s       :     0.808997  s :     0.808997
      pz      :     0.012108  p :     0.023972
      px      :     0.007216
      py      :     0.004648
  6 H s       :     0.808460  s :     0.808460
      pz      :     0.012534  p :     0.024563
      px      :     0.007404
      py      :     0.004625


                     *******************************
                     * LOEWDIN POPULATION ANALYSIS *
                     *******************************

----------------------
LOEWDIN ATOMIC CHARGES
----------------------
   0 O :   -0.005659
   1 C :   -0.507415
   2 C :    0.038450
   3 H :    0.125911
   4 H :    0.111145
   5 H :    0.122905
   6 H :    0.114663

-------------------------------
LOEWDIN REDUCED ORBITAL CHARGES
-------------------------------
  0 O s       :     3.518219  s :     3.518219
      pz      :     1.808758  p :     4.418147
      px      :     1.151432
      py      :     1.457957
      dz2     :     0.007169  d :     0.064647
      dxz     :     0.000243
      dyz     :     0.019926
      dx2y2   :     0.019867
      dxy     :     0.017442
      f0      :     0.000553  f :     0.004646
      f+1     :     0.000120
      f-1     :     0.000669
      f+2     :     0.000984
      f-2     :     0.000052
      f+3     :     0.001286
      f-3     :     0.000984
  1 C s       :     2.819831  s :     2.819831
      pz      :     1.038799  p :     2.939814
      px      :     1.024097
      py      :     0.876918
      dz2     :     0.069049  d :     0.666175
      dxz     :     0.104759
      dyz     :     0.153015
      dx2y2   :     0.134877
      dxy     :     0.204474
      f0      :     0.012382  f :     0.081595
      f+1     :     0.006522
      f-1     :     0.008204
      f+2     :     0.020602
      f-2     :     0.003695
      f+3     :     0.019697
      f-3     :     0.010492
  2 C s       :     2.886813  s :     2.886813
      pz      :     1.079425  p :     2.828778
      px      :     1.112274
      py      :     0.637078
      dz2     :     0.033292  d :     0.221232
      dxz     :     0.107691
      dyz     :     0.006336
      dx2y2   :     0.035495
      dxy     :     0.038418
      f0      :     0.004118  f :     0.024727
      f+1     :     0.004130
      f-1     :     0.000865
      f+2     :     0.004454
      f-2     :     0.000716
      f+3     :     0.004277
      f-3     :     0.006167
  3 H s       :     0.827362  s :     0.827362
      pz      :     0.024196  p :     0.046727
      px      :     0.013727
      py      :     0.008804
  4 H s       :     0.825065  s :     0.825065
      pz      :     0.030505  p :     0.063790
      px      :     0.018465
      py      :     0.014820
  5 H s       :     0.804324  s :     0.804324
      pz      :     0.037919  p :     0.072771
      px      :     0.021530
      py      :     0.013322
  6 H s       :     0.809008  s :     0.809008
      pz      :     0.040248  p :     0.076329
      px      :     0.022570
      py      :     0.013512


                      *****************************
                      * MAYER POPULATION ANALYSIS *
                      *****************************

  NA   - Mulliken gross atomic population
  ZA   - Total nuclear charge
  QA   - Mulliken gross atomic charge
  VA   - Mayer's total valence
  BVA  - Mayer's bonded valence
  FA   - Mayer's free valence

  ATOM       NA         ZA         QA         VA         BVA        FA
  0 O      8.3682     8.0000    -0.3682     1.8406     1.8406    -0.0000
  1 C      6.0365     6.0000    -0.0365     4.0612     4.0612     0.0000
  2 C      6.1210     6.0000    -0.1210     3.7715     3.7715     0.0000
  3 H      0.9103     1.0000     0.0897     0.9665     0.9665     0.0000
  4 H      0.8981     1.0000     0.1019     0.9626     0.9626     0.0000
  5 H      0.8330     1.0000     0.1670     0.9589     0.9589     0.0000
  6 H      0.8330     1.0000     0.1670     0.9593     0.9593     0.0000

  Mayer bond orders larger than 0.100000
B(  0-O ,  1-C ) :   1.0540 B(  0-O ,  2-C ) :   0.8005 B(  1-C ,  2-C ) :   1.0604 
B(  1-C ,  3-H ) :   0.9662 B(  1-C ,  4-H ) :   0.9781 B(  2-C ,  5-H ) :   0.9490 
B(  2-C ,  6-H ) :   0.9509 

-------
TIMINGS
-------

Total SCF time: 0 days 0 hours 0 min 3 sec 

Total time                  ....       3.713 sec
Sum of individual times     ....       3.163 sec  ( 85.2%)

Fock matrix formation       ....       2.881 sec  ( 77.6%)
  Split-RI-J                ....       0.295 sec  ( 10.2% of F)
  Chain of spheres X        ....       2.006 sec  ( 69.6% of F)
  XC integration            ....       0.548 sec  ( 19.0% of F)
    Basis function eval.    ....       0.149 sec  ( 27.1% of XC)
    Density eval.           ....       0.110 sec  ( 20.1% of XC)
    XC-Functional eval.     ....       0.032 sec  (  5.8% of XC)
    XC-Potential eval.      ....       0.189 sec  ( 34.5% of XC)
Diagonalization             ....       0.018 sec  (  0.5%)
Density matrix formation    ....       0.002 sec  (  0.0%)
Population analysis         ....       0.004 sec  (  0.1%)
Initial guess               ....       0.016 sec  (  0.4%)
Orbital Transformation      ....       0.000 sec  (  0.0%)
Orbital Orthonormalization  ....       0.000 sec  (  0.0%)
DIIS solution               ....       0.015 sec  (  0.4%)
SOSCF solution              ....       0.019 sec  (  0.5%)
Grid generation             ....       0.207 sec  (  5.6%)

Maximum memory used throughout the entire SCF-calculation: 61.0 MB


-------------------------------------------------------------------------------
                          DFT DISPERSION CORRECTION                            
                                                                               
                              DFTD3 V3.1  Rev 1                                
                          USING Becke-Johnson damping                          
-------------------------------------------------------------------------------
The PBE0 functional is recognized
Active option DFTDOPT                   ...         4   

molecular C6(AA) [au] = 394.204182 


            DFT-D V3
 parameters
 s6 scaling factor         :     1.0000 
 a1 scaling factor         :     0.4145 
 s8 scaling factor         :     1.2177 
 a2 scaling factor         :     4.8593 
 ad hoc parameters k1-k3   :    16.0000     1.3333    -4.0000 

 Edisp/kcal,au: -1.655833716612  -0.002638738710 
 E6   /kcal   :  -1.080846457 
 E8   /kcal   :  -0.574987259 
 % E8         :  34.724939686 

-------------------------   ----------------
Dispersion correction           -0.002638739
-------------------------   ----------------


-------------------------   --------------------
FINAL SINGLE POINT ENERGY      -153.547884055570
-------------------------   --------------------



           ************************************************************
           *        Program running with 8 parallel MPI-processes     *
           *              working on a common directory               *
           ************************************************************
------------------------------------------------------------------------------
                         ORCA SCF GRADIENT CALCULATION
------------------------------------------------------------------------------

 ... reading COSX grid (gridx3)
Gradient of the Kohn-Sham DFT energy:
Kohn-Sham wavefunction type      ... RKS
Hartree-Fock exchange scaling    ...    0.250
Number of operators              ...    1
Number of atoms                  ...    7
Basis set dimensions             ...  117
Integral neglect threshold       ... 2.5e-11
Integral primitive cutoff        ... 2.5e-12
SHARK Integral package           ... ON

Nuc. rep. gradient       (SHARK) ... done (  0.0 sec)
HCore & Overlap gradient (SHARK) ... done (  0.0 sec)
RI-J gradient            (SHARK) ... done (  0.1 sec)
COSX-gradient                    ... done (  0.4 sec)
Exchange-correlation gradient    ... done
Dispersion correction            ... done

------------------
CARTESIAN GRADIENT
------------------

   1   O   :   -0.081199253   -0.044397852    0.002573740
   2   C   :    0.088748101    0.017780250   -0.045766851
   3   C   :    0.074589632   -0.018140822    0.016774323
   4   H   :   -0.034885556    0.026368467    0.029058744
   5   H   :   -0.004256911    0.039290559    0.013198857
   6   H   :   -0.017077520   -0.009954505    0.028992672
   7   H   :   -0.025835494   -0.010901998   -0.044899651

Difference to translation invariance:
           :    0.0000829984    0.0000440993   -0.0000681665

Difference to rotation invariance:
           :   -0.0000638042   -0.0000850960    0.0000770428

Norm of the cartesian gradient     ...    0.1831899601
RMS gradient                       ...    0.0399753266
MAX gradient                       ...    0.0887481006

-------
TIMINGS
-------

Total SCF gradient time            ...        0.766 sec

One electron gradient       ....       0.010 sec  (  1.3%)
RI-J Coulomb gradient       ....       0.082 sec  ( 10.6%)
COSX gradient               ....       0.352 sec  ( 46.0%)
XC gradient                 ....       0.172 sec  ( 22.4%)

Maximum memory used throughout the entire SCFGRAD-calculation: 35.9 MB

                            ***************************************
                            *     ORCA property calculations      *
                            ***************************************

                                    ---------------------
                                    Active property flags
                                    ---------------------
   (+) Dipole Moment


------------------------------------------------------------------------------
                       ORCA ELECTRIC PROPERTIES CALCULATION
------------------------------------------------------------------------------

Dipole Moment Calculation                       ... on
Quadrupole Moment Calculation                   ... off
Polarizability Calculation                      ... off
GBWName                                         ... ox_gs_E_orca0002.gbw
Electron density                                ... ox_gs_E_orca0002.scfp
The origin for moment calculation is the CENTER OF MASS  = (-0.608955,  0.021684 -0.045252)

-------------
DIPOLE MOMENT
-------------
                                X             Y             Z
Electronic contribution:     -0.27449       1.39227      -0.16795
Nuclear contribution   :      1.07490      -2.48329       0.18756
                        -----------------------------------------
Total Dipole Moment    :      0.80042      -1.09102       0.01961
                        -----------------------------------------
Magnitude (a.u.)       :      1.35329
Magnitude (Debye)      :      3.43978



--------------------
Rotational spectrum 
--------------------
 
Rotational constants in cm-1:     1.255683     0.412980     0.354458 
Rotational constants in MHz : 37644.426662 12380.838187 10626.376125 

 Dipole components along the rotational axes: 
x,y,z [a.u.] :     1.292437    -0.398721     0.044869 
x,y,z [Debye]:     3.285115    -1.013468     0.114049 

 

Timings for individual modules:

Sum of individual times         ...        5.138 sec (=   0.086 min)
GTO integral calculation        ...        0.292 sec (=   0.005 min)   5.7 %
SCF iterations                  ...        3.877 sec (=   0.065 min)  75.5 %
SCF Gradient evaluation         ...        0.969 sec (=   0.016 min)  18.9 %
                             ****ORCA TERMINATED NORMALLY****
TOTAL RUN TIME: 0 days 0 hours 0 minutes 5 seconds 458 msec
