
                                 *****************
                                 * O   R   C   A *
                                 *****************

                                            #,                                       
                                            ###                                      
                                            ####                                     
                                            #####                                    
                                            ######                                   
                                           ########,                                 
                                     ,,################,,,,,                         
                               ,,#################################,,                 
                          ,,##########################################,,             
                       ,#########################################, ''#####,          
                    ,#############################################,,   '####,        
                  ,##################################################,,,,####,       
                ,###########''''           ''''###############################       
              ,#####''   ,,,,##########,,,,          '''####'''          '####       
            ,##' ,,,,###########################,,,                        '##       
           ' ,,###''''                  '''############,,,                           
         ,,##''                                '''############,,,,        ,,,,,,###''
      ,#''                                            '''#######################'''  
     '                                                          ''''####''''         
             ,#######,   #######,   ,#######,      ##                                
            ,#'     '#,  ##    ##  ,#'     '#,    #''#        ######   ,####,        
            ##       ##  ##   ,#'  ##            #'  '#       #        #'  '#        
            ##       ##  #######   ##           ,######,      #####,   #    #        
            '#,     ,#'  ##    ##  '#,     ,#' ,#      #,         ##   #,  ,#        
             '#######'   ##     ##  '#######'  #'      '#     #####' # '####'        



                  #######################################################
                  #                        -***-                        #
                  #          Department of theory and spectroscopy      #
                  #    Directorship and core code : Frank Neese         #
                  #        Max Planck Institute fuer Kohlenforschung    #
                  #                Kaiser Wilhelm Platz 1               #
                  #                 D-45470 Muelheim/Ruhr               #
                  #                      Germany                        #
                  #                                                     #
                  #                  All rights reserved                #
                  #                        -***-                        #
                  #######################################################


                         Program Version 5.0.2 -  RELEASE  -


 With contributions from (in alphabetic order):
   Daniel Aravena         : Magnetic Suceptibility
   Michael Atanasov       : Ab Initio Ligand Field Theory (pilot matlab implementation)
   Alexander A. Auer      : GIAO ZORA, VPT2 properties, NMR spectrum
   Ute Becker             : Parallelization
   Giovanni Bistoni       : ED, misc. LED, open-shell LED, HFLD
   Martin Brehm           : Molecular dynamics
   Dmytro Bykov           : SCF Hessian
   Vijay G. Chilkuri      : MRCI spin determinant printing, contributions to CSF-ICE
   Dipayan Datta          : RHF DLPNO-CCSD density
   Achintya Kumar Dutta   : EOM-CC, STEOM-CC
   Dmitry Ganyushin       : Spin-Orbit,Spin-Spin,Magnetic field MRCI
   Miquel Garcia          : C-PCM and meta-GGA Hessian, CC/C-PCM, Gaussian charge scheme
   Yang Guo               : DLPNO-NEVPT2, F12-NEVPT2, CIM, IAO-localization
   Andreas Hansen         : Spin unrestricted coupled pair/coupled cluster methods
   Benjamin Helmich-Paris : MC-RPA, TRAH-SCF, COSX integrals
   Lee Huntington         : MR-EOM, pCC
   Robert Izsak           : Overlap fitted RIJCOSX, COSX-SCS-MP3, EOM
   Marcus Kettner         : VPT2
   Christian Kollmar      : KDIIS, OOCD, Brueckner-CCSD(T), CCSD density, CASPT2, CASPT2-K
   Simone Kossmann        : Meta GGA functionals, TD-DFT gradient, OOMP2, MP2 Hessian
   Martin Krupicka        : Initial AUTO-CI
   Lucas Lang             : DCDCAS
   Marvin Lechner         : AUTO-CI (C++ implementation), FIC-MRCC
   Dagmar Lenk            : GEPOL surface, SMD
   Dimitrios Liakos       : Extrapolation schemes; Compound Job, initial MDCI parallelization
   Dimitrios Manganas     : Further ROCIS development; embedding schemes
   Dimitrios Pantazis     : SARC Basis sets
   Anastasios Papadopoulos: AUTO-CI, single reference methods and gradients
   Taras Petrenko         : DFT Hessian,TD-DFT gradient, ASA, ECA, R-Raman, ABS, FL, XAS/XES, NRVS
   Peter Pinski           : DLPNO-MP2, DLPNO-MP2 Gradient
   Christoph Reimann      : Effective Core Potentials
   Marius Retegan         : Local ZFS, SOC
   Christoph Riplinger    : Optimizer, TS searches, QM/MM, DLPNO-CCSD(T), (RO)-DLPNO pert. Triples
   Tobias Risthaus        : Range-separated hybrids, TD-DFT gradient, RPA, STAB
   Michael Roemelt        : Original ROCIS implementation
   Masaaki Saitow         : Open-shell DLPNO-CCSD energy and density
   Barbara Sandhoefer     : DKH picture change effects
   Avijit Sen             : IP-ROCIS
   Kantharuban Sivalingam : CASSCF convergence, NEVPT2, FIC-MRCI
   Bernardo de Souza      : ESD, SOC TD-DFT
   Georgi Stoychev        : AutoAux, RI-MP2 NMR, DLPNO-MP2 response
   Willem Van den Heuvel  : Paramagnetic NMR
   Boris Wezisla          : Elementary symmetry handling
   Frank Wennmohs         : Technical directorship


 We gratefully acknowledge several colleagues who have allowed us to
 interface, adapt or use parts of their codes:
   Stefan Grimme, W. Hujo, H. Kruse, P. Pracht,  : VdW corrections, initial TS optimization,
                  C. Bannwarth, S. Ehlert          DFT functionals, gCP, sTDA/sTD-DF
   Ed Valeev, F. Pavosevic, A. Kumar             : LibInt (2-el integral package), F12 methods
   Garnet Chan, S. Sharma, J. Yang, R. Olivares  : DMRG
   Ulf Ekstrom                                   : XCFun DFT Library
   Mihaly Kallay                                 : mrcc  (arbitrary order and MRCC methods)
   Jiri Pittner, Ondrej Demel                    : Mk-CCSD
   Frank Weinhold                                : gennbo (NPA and NBO analysis)
   Christopher J. Cramer and Donald G. Truhlar   : smd solvation model
   Lars Goerigk                                  : TD-DFT with DH, B97 family of functionals
   V. Asgeirsson, H. Jonsson                     : NEB implementation
   FAccTs GmbH                                   : IRC, NEB, NEB-TS, DLPNO-Multilevel, CI-OPT
                                                   MM, QMMM, 2- and 3-layer-ONIOM, Crystal-QMMM,
                                                   LR-CPCM, SF, NACMEs, symmetry and pop. for TD-DFT,
                                                   nearIR, NL-DFT gradient (VV10), updates on ESD,
                                                   ML-optimized integration grids
   S Lehtola, MJT Oliveira, MAL Marques          : LibXC Library
   Liviu Ungur et al                             : ANISO software


 Your calculation uses the libint2 library for the computation of 2-el integrals
 For citations please refer to: http://libint.valeyev.net

 Your ORCA version has been built with support for libXC version: 5.1.0
 For citations please refer to: https://tddft.org/programs/libxc/

 This ORCA versions uses:
   CBLAS   interface :  Fast vector & matrix operations
   LAPACKE interface :  Fast linear algebra routines
   SCALAPACK package :  Parallel linear algebra routines
   Shared memory     :  Shared parallel matrices
   BLAS/LAPACK       :  OpenBLAS 0.3.15  USE64BITINT DYNAMIC_ARCH NO_AFFINITY SkylakeX SINGLE_THREADED
        Core in use  :  SkylakeX
   Copyright (c) 2011-2014, The OpenBLAS Project


Your calculation utilizes the atom-pairwise dispersion correction
with the Becke-Johnson damping scheme (D3BJ)
Cite in your paper:
S.Grimme, S.Ehrlich, L.Goerigk, J Comput Chem, (2011), 32, 1456–1465 
S.Grimme, J.Antony, S.Ehrlich and H.Krieg, J.Chem.Phys., 132, (2010), 154104 
   

================================================================================

----- Orbital basis set information -----
Your calculation utilizes the basis: def2-TZVP
   F. Weigend and R. Ahlrichs, Phys. Chem. Chem. Phys. 7, 3297 (2005).

----- AuxJ basis set information -----
Your calculation utilizes the auxiliary basis: def2/J
   F. Weigend, Phys. Chem. Chem. Phys. 8, 1057 (2006).

================================================================================
                                        WARNINGS
                       Please study these warnings very carefully!
================================================================================


INFO   : the flag for use of the SHARK integral package has been found!

================================================================================
                                       INPUT FILE
================================================================================
NAME = ox_gs_A_orca0005.inp
|  1> ! engrad PBE0 D3BJ def2-TZVP  
|  2> %pal nprocs 8 end
|  3> %maxcore 3000
|  4>  
|  5> *xyz 0 1 
|  6> O   0.020202592840726924 0.8612336050605266 0.008729000641591947
|  7> C   -0.7160120704638617 -0.45074278578830834 -0.09593856076495208
|  8> C   0.7275638462275391 -0.44400897950294865 0.12316210562426431
|  9> H   -1.273440978239056 -0.6531934428833194 0.9182406315147379
| 10> H   -1.3222566718809765 -0.611129769274249 -0.8823795683656613
| 11> H   1.3033744173521522 -0.713740232739737 -0.849836504453195
| 12> H   1.1937303168603859 -0.6389279553099865 1.0294989512904988
| 13> *
| 14> 
| 15>                          ****END OF INPUT****
================================================================================

                     *******************************
                     * Energy+Gradient Calculation *
                     *******************************

---------------------------------
CARTESIAN COORDINATES (ANGSTROEM)
---------------------------------
  O      0.020203    0.861234    0.008729
  C     -0.716012   -0.450743   -0.095939
  C      0.727564   -0.444009    0.123162
  H     -1.273441   -0.653193    0.918241
  H     -1.322257   -0.611130   -0.882380
  H      1.303374   -0.713740   -0.849837
  H      1.193730   -0.638928    1.029499

----------------------------
CARTESIAN COORDINATES (A.U.)
----------------------------
  NO LB      ZA    FRAG     MASS         X           Y           Z
   0 O     8.0000    0    15.999    0.038177    1.627496    0.016495
   1 C     6.0000    0    12.011   -1.353067   -0.851780   -0.181298
   2 C     6.0000    0    12.011    1.374896   -0.839055    0.232743
   3 H     1.0000    0     1.008   -2.406455   -1.234357    1.735223
   4 H     1.0000    0     1.008   -2.498703   -1.154868   -1.667456
   5 H     1.0000    0     1.008    2.463021   -1.348774   -1.605958
   6 H     1.0000    0     1.008    2.255823   -1.207399    1.945471

--------------------------------
INTERNAL COORDINATES (ANGSTROEM)
--------------------------------
 O      0   0   0     0.000000000000     0.00000000     0.00000000
 C      1   0   0     1.508061463940     0.00000000     0.00000000
 C      2   1   0     1.460123923991    60.19298374     0.00000000
 H      2   1   3     1.174850071215   108.76151031   102.68924232
 H      2   1   3     1.005855834429   119.15822401   231.49558959
 H      3   2   1     1.162342057229   111.29016622   255.77802920
 H      3   2   1     1.037666161771   125.05427726   103.76255849

---------------------------
INTERNAL COORDINATES (A.U.)
---------------------------
 O      0   0   0     0.000000000000     0.00000000     0.00000000
 C      1   0   0     2.849823159967     0.00000000     0.00000000
 C      2   1   0     2.759234337929    60.19298374     0.00000000
 H      2   1   3     2.220144883015   108.76151031   102.68924232
 H      2   1   3     1.900792057278   119.15822401   231.49558959
 H      3   2   1     2.196508162102   111.29016622   255.77802920
 H      3   2   1     1.960904864184   125.05427726   103.76255849

---------------------
BASIS SET INFORMATION
---------------------
There are 3 groups of distinct atoms

 Group   1 Type O   : 11s6p2d1f contracted to 5s3p2d1f pattern {62111/411/11/1}
 Group   2 Type C   : 11s6p2d1f contracted to 5s3p2d1f pattern {62111/411/11/1}
 Group   3 Type H   : 5s1p contracted to 3s1p pattern {311/1}

Atom   0O    basis set group =>   1
Atom   1C    basis set group =>   2
Atom   2C    basis set group =>   2
Atom   3H    basis set group =>   3
Atom   4H    basis set group =>   3
Atom   5H    basis set group =>   3
Atom   6H    basis set group =>   3
---------------------------------
AUXILIARY/J BASIS SET INFORMATION
---------------------------------
There are 3 groups of distinct atoms

 Group   1 Type O   : 12s5p4d2f1g contracted to 6s4p3d1f1g pattern {711111/2111/211/2/1}
 Group   2 Type C   : 12s5p4d2f1g contracted to 6s4p3d1f1g pattern {711111/2111/211/2/1}
 Group   3 Type H   : 5s2p1d contracted to 3s1p1d pattern {311/2/1}

Atom   0O    basis set group =>   1
Atom   1C    basis set group =>   2
Atom   2C    basis set group =>   2
Atom   3H    basis set group =>   3
Atom   4H    basis set group =>   3
Atom   5H    basis set group =>   3
Atom   6H    basis set group =>   3


           ************************************************************
           *        Program running with 8 parallel MPI-processes     *
           *              working on a common directory               *
           ************************************************************
------------------------------------------------------------------------------
                           ORCA GTO INTEGRAL CALCULATION
                           -- RI-GTO INTEGRALS CHOSEN --
------------------------------------------------------------------------------
------------------------------------------------------------------------------
                   ___                                                        
                  /   \      - P O W E R E D   B Y -                         
                 /     \                                                     
                 |  |  |   _    _      __       _____    __    __             
                 |  |  |  | |  | |    /  \     |  _  \  |  |  /  |          
                  \  \/   | |  | |   /    \    | | | |  |  | /  /          
                 / \  \   | |__| |  /  /\  \   | |_| |  |  |/  /          
                |  |  |   |  __  | /  /__\  \  |    /   |      \           
                |  |  |   | |  | | |   __   |  |    \   |  |\   \          
                \     /   | |  | | |  |  |  |  | |\  \  |  | \   \       
                 \___/    |_|  |_| |__|  |__|  |_| \__\ |__|  \__/        
                                                                              
                      - O R C A' S   B I G   F R I E N D -                    
                                      &                                       
                       - I N T E G R A L  F E E D E R -                       
                                                                              
 v1 FN, 2020, v2 2021                                                         
------------------------------------------------------------------------------


Reading SHARK input file ox_gs_A_orca0005.SHARKINP.tmp ... ok
----------------------
SHARK INTEGRAL PACKAGE
----------------------

Number of atoms                             ...      7
Number of basis functions                   ...    117
Number of shells                            ...     49
Maximum angular momentum                    ...      3
Integral batch strategy                     ... SHARK/LIBINT Hybrid
RI-J (if used) integral strategy            ... SPLIT-RIJ (Revised 2003 algorithm where possible)
Printlevel                                  ...      1
Contraction scheme used                     ... SEGMENTED contraction
Coulomb Range Separation                    ... NOT USED
Exchange Range Separation                   ... NOT USED
Finite Nucleus Model                        ... NOT USED
Auxiliary Coulomb fitting basis             ... AVAILABLE
   # of basis functions in Aux-J            ...    191
   # of shells in Aux-J                     ...     65
   Maximum angular momentum in Aux-J        ...      4
Auxiliary J/K fitting basis                 ... NOT available
Auxiliary Correlation fitting basis         ... NOT available
Auxiliary 'external' fitting basis          ... NOT available
Integral threshold                          ...     2.500000e-11
Primitive cut-off                           ...     2.500000e-12
Primitive pair pre-selection threshold      ...     2.500000e-12

Calculating pre-screening integrals         ... done (  0.0 sec) Dimension = 49
Organizing shell pair data                  ... done (  0.0 sec)
Shell pair information
Total number of shell pairs                 ...      1225
Shell pairs after pre-screening             ...      1220
Total number of primitive shell pairs       ...      3648
Primitive shell pairs kept                  ...      3140
          la=0 lb=0:    373 shell pairs
          la=1 lb=0:    351 shell pairs
          la=1 lb=1:     91 shell pairs
          la=2 lb=0:    162 shell pairs
          la=2 lb=1:     78 shell pairs
          la=2 lb=2:     21 shell pairs
          la=3 lb=0:     81 shell pairs
          la=3 lb=1:     39 shell pairs
          la=3 lb=2:     18 shell pairs
          la=3 lb=3:      6 shell pairs

Calculating one electron integrals          ... done (  0.0 sec)
Calculating RI/J V-Matrix + Cholesky decomp.... done (  0.0 sec)
Calculating Nuclear repulsion               ... done (  0.0 sec) ENN=     73.422058258338 Eh

SHARK setup successfully completed in   0.1 seconds

Maximum memory used throughout the entire GTOINT-calculation: 14.9 MB


           ************************************************************
           *        Program running with 8 parallel MPI-processes     *
           *              working on a common directory               *
           ************************************************************
-------------------------------------------------------------------------------
                                 ORCA SCF
-------------------------------------------------------------------------------

------------
SCF SETTINGS
------------
Hamiltonian:
 Density Functional     Method          .... DFT(GTOs)
 Exchange Functional    Exchange        .... PBE
   PBE kappa parameter   XKappa         ....  0.804000
   PBE mue parameter    XMuePBE         ....  0.219520
 Correlation Functional Correlation     .... PBE
   PBE beta parameter  CBetaPBE         ....  0.066725
 LDA part of GGA corr.  LDAOpt          .... PW91-LDA
 Gradients option       PostSCFGGA      .... off
 Hybrid DFT is turned on
   Fraction HF Exchange ScalHFX         ....  0.250000
   Scaling of DF-GGA-X  ScalDFX         ....  0.750000
   Scaling of DF-GGA-C  ScalDFC         ....  1.000000
   Scaling of DF-LDA-C  ScalLDAC        ....  1.000000
   Perturbative correction              ....  0.000000
   Density functional embedding theory  .... OFF
   NL short-range parameter             ....  6.900000
 RI-approximation to the Coulomb term is turned on
   Number of AuxJ basis functions       .... 191
   RIJ-COSX (HFX calculated with COS-X)).... on


General Settings:
 Integral files         IntName         .... ox_gs_A_orca0005
 Hartree-Fock type      HFTyp           .... RHF
 Total Charge           Charge          ....    0
 Multiplicity           Mult            ....    1
 Number of Electrons    NEL             ....   24
 Basis Dimension        Dim             ....  117
 Nuclear Repulsion      ENuc            ....     73.4220582583 Eh

Convergence Acceleration:
 DIIS                   CNVDIIS         .... on
   Start iteration      DIISMaxIt       ....    12
   Startup error        DIISStart       ....  0.200000
   # of expansion vecs  DIISMaxEq       ....     5
   Bias factor          DIISBfac        ....   1.050
   Max. coefficient     DIISMaxC        ....  10.000
 Trust-Rad. Augm. Hess. CNVTRAH         .... auto
   Auto Start mean grad. ratio tolernc. ....  1.125000
   Auto Start start iteration           ....    20
   Auto Start num. interpolation iter.  ....    10
   Max. Number of Micro iterations      ....    16
   Max. Number of Macro iterations      .... Maxiter - #DIIS iter
   Number of Davidson start vectors     ....     2
   Converg. threshold I  (grad. norm)   ....   1.000e-05
   Converg. threshold II (energy diff.) ....   1.000e-08
   Grad. Scal. Fac. for Micro threshold ....   0.100
   Minimum threshold for Micro iter.    ....   0.010
   NR start threshold (gradient norm)   ....   0.001
   Initial trust radius                 ....   0.400
   Minimum AH scaling param. (alpha)    ....   1.000
   Maximum AH scaling param. (alpha)    .... 1000.000
   Orbital update algorithm             .... Taylor
   White noise on init. David. guess    .... on
   Maximum white noise                  ....   0.010
   Quad. conv. algorithm                .... NR
 SOSCF                  CNVSOSCF        .... on
   Start iteration      SOSCFMaxIt      ....   150
   Startup grad/error   SOSCFStart      ....  0.003300
 Level Shifting         CNVShift        .... on
   Level shift para.    LevelShift      ....    0.2500
   Turn off err/grad.   ShiftErr        ....    0.0010
 Zerner damping         CNVZerner       .... off
 Static damping         CNVDamp         .... on
   Fraction old density DampFac         ....    0.7000
   Max. Damping (<1)    DampMax         ....    0.9800
   Min. Damping (>=0)   DampMin         ....    0.0000
   Turn off err/grad.   DampErr         ....    0.1000
 Fernandez-Rico         CNVRico         .... off

SCF Procedure:
 Maximum # iterations   MaxIter         ....   125
 SCF integral mode      SCFMode         .... Direct
   Integral package                     .... SHARK and LIBINT hybrid scheme
 Reset frequency        DirectResetFreq ....    20
 Integral Threshold     Thresh          ....  2.500e-11 Eh
 Primitive CutOff       TCut            ....  2.500e-12 Eh

Convergence Tolerance:
 Convergence Check Mode ConvCheckMode   .... Total+1el-Energy
 Convergence forced     ConvForced      .... 0
 Energy Change          TolE            ....  1.000e-08 Eh
 1-El. energy change                    ....  1.000e-05 Eh
 Orbital Gradient       TolG            ....  1.000e-05
 Orbital Rotation angle TolX            ....  1.000e-05
 DIIS Error             TolErr          ....  5.000e-07


Diagonalization of the overlap matrix:
Smallest eigenvalue                        ... 3.883e-04
Time for diagonalization                   ...    0.001 sec
Threshold for overlap eigenvalues          ... 1.000e-08
Number of eigenvalues below threshold      ... 0
Time for construction of square roots      ...    0.002 sec
Total time needed                          ...    0.003 sec

Time for model grid setup =    0.022 sec

------------------------------
INITIAL GUESS: MODEL POTENTIAL
------------------------------
Loading Hartree-Fock densities                     ... done
Calculating cut-offs                               ... done
Initializing the effective Hamiltonian             ... done
Setting up the integral package (SHARK)            ... done
Starting the Coulomb interaction                   ... done (   0.0 sec)
Reading the grid                                   ... done
Mapping shells                                     ... done
Starting the XC term evaluation                    ... done (   0.0 sec)
  promolecular density results
     # of electrons  =     23.997133634
     EX              =    -19.505399753
     EC              =     -0.776967122
     EX+EC           =    -20.282366876
Transforming the Hamiltonian                       ... done (   0.0 sec)
Diagonalizing the Hamiltonian                      ... done (   0.0 sec)
Back transforming the eigenvectors                 ... done (   0.0 sec)
Now organizing SCF variables                       ... done
                      ------------------
                      INITIAL GUESS DONE (   0.0 sec)
                      ------------------
-------------------
DFT GRID GENERATION
-------------------

General Integration Accuracy     IntAcc      ... 4.388
Radial Grid Type                 RadialGrid  ... OptM3 with GC (2021)
Angular Grid (max. ang.)         AngularGrid ... 4 (Lebedev-302)
Angular grid pruning method      GridPruning ... 4 (adaptive)
Weight generation scheme         WeightScheme... Becke
Basis function cutoff            BFCut       ... 1.0000e-11
Integration weight cutoff        WCut        ... 1.0000e-14
Angular grids for H and He will be reduced by one unit
Partially contracted basis set               ... off
Rotationally invariant grid construction     ... off

Total number of grid points                  ...    31331
Total number of batches                      ...      493
Average number of points per batch           ...       63
Average number of grid points per atom       ...     4476
Time for grid setup =    0.111 sec

--------------------
COSX GRID GENERATION
--------------------

GRIDX 1
-------
General Integration Accuracy     IntAcc      ... 3.816
Radial Grid Type                 RadialGrid  ... OptM3 with GC (2021)
Angular Grid (max. ang.)         AngularGrid ... 1 (Lebedev-50)
Angular grid pruning method      GridPruning ... 4 (adaptive)
Weight generation scheme         WeightScheme... Becke
Basis function cutoff            BFCut       ... 1.0000e-11
Integration weight cutoff        WCut        ... 1.0000e-14
Angular grids for H and He will be reduced by one unit
Partially contracted basis set               ... on
Rotationally invariant grid construction     ... off

Total number of grid points                  ...     4041
Total number of batches                      ...       68
Average number of points per batch           ...       59
Average number of grid points per atom       ...      577
UseSFitting                                  ... on

GRIDX 2
-------
General Integration Accuracy     IntAcc      ... 4.020
Radial Grid Type                 RadialGrid  ... OptM3 with GC (2021)
Angular Grid (max. ang.)         AngularGrid ... 2 (Lebedev-110)
Angular grid pruning method      GridPruning ... 4 (adaptive)
Weight generation scheme         WeightScheme... Becke
Basis function cutoff            BFCut       ... 1.0000e-11
Integration weight cutoff        WCut        ... 1.0000e-14
Angular grids for H and He will be reduced by one unit
Partially contracted basis set               ... on
Rotationally invariant grid construction     ... off

Total number of grid points                  ...     8722
Total number of batches                      ...      140
Average number of points per batch           ...       62
Average number of grid points per atom       ...     1246
UseSFitting                                  ... on

GRIDX 3
-------
General Integration Accuracy     IntAcc      ... 4.338
Radial Grid Type                 RadialGrid  ... OptM3 with GC (2021)
Angular Grid (max. ang.)         AngularGrid ... 3 (Lebedev-194)
Angular grid pruning method      GridPruning ... 4 (adaptive)
Weight generation scheme         WeightScheme... Becke
Basis function cutoff            BFCut       ... 1.0000e-11
Integration weight cutoff        WCut        ... 1.0000e-14
Angular grids for H and He will be reduced by one unit
Partially contracted basis set               ... on
Rotationally invariant grid construction     ... off

Total number of grid points                  ...    19259
Total number of batches                      ...      305
Average number of points per batch           ...       63
Average number of grid points per atom       ...     2751
UseSFitting                                  ... on

Time for X-Grid setup             =    0.073 sec

--------------
SCF ITERATIONS
--------------
ITER       Energy         Delta-E        Max-DP      RMS-DP      [F,P]     Damp
               ***  Starting incremental Fock matrix formation  ***
  0   -153.5869141390   0.000000000000 0.03196418  0.00113492  0.1746605 0.7000
  1   -153.6139853901  -0.027071251100 0.01677495  0.00083599  0.0704870 0.7000
                               ***Turning on DIIS***
  2   -153.6249051380  -0.010919747900 0.02576924  0.00140749  0.0315635 0.0000
  3   -153.6429472926  -0.018042154681 0.01346816  0.00063984  0.0383448 0.0000
  4   -153.6462589565  -0.003311663882 0.00427161  0.00017226  0.0095910 0.0000
  5   -153.6464674789  -0.000208522364 0.00136797  0.00005905  0.0040376 0.0000
                      *** Initiating the SOSCF procedure ***
                           *** Shutting down DIIS ***
                      *** Re-Reading the Fockian *** 
                      *** Removing any level shift *** 
ITER      Energy       Delta-E        Grad      Rot      Max-DP    RMS-DP
  6   -153.64649387  -0.0000263921  0.000118  0.000118  0.000753  0.000026
               *** Restarting incremental Fock matrix formation ***
  7   -153.64648636   0.0000075113  0.000052  0.000068  0.000112  0.000004
  8   -153.64648630   0.0000000554  0.000095  0.000054  0.000078  0.000003
  9   -153.64648640  -0.0000000925  0.000007  0.000012  0.000017  0.000001
 10   -153.64648640   0.0000000004  0.000009  0.000007  0.000010  0.000000
                 **** Energy Check signals convergence ****
              ***Rediagonalizing the Fockian in SOSCF/NRSCF***

               *****************************************************
               *                     SUCCESS                       *
               *           SCF CONVERGED AFTER  11 CYCLES          *
               *****************************************************

Old exchange energy                            =     -4.980295052 Eh
New exchange energy                            =     -4.980289608 Eh
Exchange energy change after final integration =      0.000005444 Eh
Total energy after final integration           =   -153.646480955 Eh
Final COS-X integration done in                =     0.254 sec

----------------
TOTAL SCF ENERGY
----------------

Total Energy       :         -153.64648095 Eh           -4180.93330 eV

Components:
Nuclear Repulsion  :           73.42205826 Eh            1997.91578 eV
Electronic Energy  :         -227.06853921 Eh           -6178.84908 eV
One Electron Energy:         -353.61633831 Eh           -9622.38976 eV
Two Electron Energy:          126.54779909 Eh            3443.54068 eV
Max COSX asymmetry :            0.00000124 Eh               0.00003 eV

Virial components:
Potential Energy   :         -306.43768038 Eh           -8338.59321 eV
Kinetic Energy     :          152.79119943 Eh            4157.65991 eV
Virial Ratio       :            2.00559771


DFT components:
N(Alpha)           :       11.999999290172 electrons
N(Beta)            :       11.999999290172 electrons
N(Total)           :       23.999998580344 electrons
E(X)               :      -14.920941449281 Eh       
E(C)               :       -0.785695033194 Eh       
E(XC)              :      -15.706636482476 Eh       
DFET-embed. en.    :        0.000000000000 Eh       

---------------
SCF CONVERGENCE
---------------

  Last Energy change         ...   -2.7705e-09  Tolerance :   1.0000e-08
  Last MAX-Density change    ...    5.5511e-16  Tolerance :   1.0000e-07
  Last RMS-Density change    ...    1.7714e-17  Tolerance :   5.0000e-09
  Last Orbital Gradient      ...    3.7376e-07  Tolerance :   1.0000e-05
  Last Orbital Rotation      ...    5.0182e-07  Tolerance :   1.0000e-05

             **** THE GBW FILE WAS UPDATED (ox_gs_A_orca0005.gbw) ****
             **** DENSITY ox_gs_A_orca0005.scfp WAS UPDATED ****
             **** ENERGY FILE WAS UPDATED (ox_gs_A_orca0005.en.tmp) ****
             **** THE GBW FILE WAS UPDATED (ox_gs_A_orca0005.gbw) ****
             **** DENSITY ox_gs_A_orca0005.scfp WAS UPDATED ****
----------------
ORBITAL ENERGIES
----------------

  NO   OCC          E(Eh)            E(eV) 
   0   2.0000     -19.222339      -523.0664 
   1   2.0000     -10.285463      -279.8817 
   2   2.0000     -10.280843      -279.7560 
   3   2.0000      -1.065558       -28.9953 
   4   2.0000      -0.714094       -19.4315 
   5   2.0000      -0.655029       -17.8242 
   6   2.0000      -0.517023       -14.0689 
   7   2.0000      -0.504914       -13.7394 
   8   2.0000      -0.395541       -10.7632 
   9   2.0000      -0.388946       -10.5838 
  10   2.0000      -0.335293        -9.1238 
  11   2.0000      -0.287762        -7.8304 
  12   0.0000       0.055388         1.5072 
  13   0.0000       0.062901         1.7116 
  14   0.0000       0.074489         2.0270 
  15   0.0000       0.085591         2.3291 
  16   0.0000       0.099694         2.7128 
  17   0.0000       0.146553         3.9879 
  18   0.0000       0.193478         5.2648 
  19   0.0000       0.209288         5.6950 
  20   0.0000       0.264326         7.1927 
  21   0.0000       0.268363         7.3025 
  22   0.0000       0.285513         7.7692 
  23   0.0000       0.295814         8.0495 
  24   0.0000       0.388059        10.5596 
  25   0.0000       0.399793        10.8789 
  26   0.0000       0.410353        11.1663 
  27   0.0000       0.433726        11.8023 
  28   0.0000       0.436131        11.8677 
  29   0.0000       0.466124        12.6839 
  30   0.0000       0.499216        13.5843 
  31   0.0000       0.521891        14.2014 
  32   0.0000       0.536345        14.5947 
  33   0.0000       0.686279        18.6746 
  34   0.0000       0.708531        19.2801 
  35   0.0000       0.723377        19.6841 
  36   0.0000       0.815292        22.1852 
  37   0.0000       0.840419        22.8690 
  38   0.0000       0.897029        24.4094 
  39   0.0000       0.932291        25.3689 
  40   0.0000       1.002157        27.2701 
  41   0.0000       1.028748        27.9936 
  42   0.0000       1.078585        29.3498 
  43   0.0000       1.089250        29.6400 
  44   0.0000       1.167632        31.7729 
  45   0.0000       1.360650        37.0252 
  46   0.0000       1.463459        39.8227 
  47   0.0000       1.503856        40.9220 
  48   0.0000       1.507393        41.0183 
  49   0.0000       1.510496        41.1027 
  50   0.0000       1.557864        42.3916 
  51   0.0000       1.612015        43.8652 
  52   0.0000       1.649008        44.8718 
  53   0.0000       1.680120        45.7184 
  54   0.0000       1.777796        48.3763 
  55   0.0000       1.834898        49.9301 
  56   0.0000       1.851549        50.3832 
  57   0.0000       1.884271        51.2736 
  58   0.0000       1.891976        51.4833 
  59   0.0000       1.955291        53.2062 
  60   0.0000       2.149806        58.4992 
  61   0.0000       2.159170        58.7540 
  62   0.0000       2.194932        59.7271 
  63   0.0000       2.206973        60.0548 
  64   0.0000       2.263263        61.5865 
  65   0.0000       2.367461        64.4219 
  66   0.0000       2.384651        64.8896 
  67   0.0000       2.472515        67.2806 
  68   0.0000       2.521651        68.6176 
  69   0.0000       2.535560        68.9961 
  70   0.0000       2.639293        71.8188 
  71   0.0000       2.663982        72.4906 
  72   0.0000       2.682466        72.9936 
  73   0.0000       2.717074        73.9354 
  74   0.0000       2.742581        74.6294 
  75   0.0000       2.817439        76.6664 
  76   0.0000       2.879970        78.3680 
  77   0.0000       2.939804        79.9961 
  78   0.0000       2.965572        80.6973 
  79   0.0000       3.007447        81.8368 
  80   0.0000       3.051097        83.0246 
  81   0.0000       3.094851        84.2152 
  82   0.0000       3.104418        84.4755 
  83   0.0000       3.211436        87.3876 
  84   0.0000       3.262855        88.7868 
  85   0.0000       3.315792        90.2273 
  86   0.0000       3.336549        90.7921 
  87   0.0000       3.383839        92.0789 
  88   0.0000       3.511517        95.5532 
  89   0.0000       3.551939        96.6532 
  90   0.0000       3.665337        99.7389 
  91   0.0000       3.691485       100.4504 
  92   0.0000       3.880210       105.5859 
  93   0.0000       3.967132       107.9512 
  94   0.0000       4.101984       111.6207 
  95   0.0000       4.139066       112.6297 
  96   0.0000       4.199508       114.2744 
  97   0.0000       4.294518       116.8598 
  98   0.0000       4.468091       121.5829 
  99   0.0000       4.601520       125.2137 
 100   0.0000       4.754940       129.3885 
 101   0.0000       4.783072       130.1540 
 102   0.0000       5.257231       143.0565 
 103   0.0000       5.397308       146.8682 
 104   0.0000       5.606459       152.5595 
 105   0.0000       5.641594       153.5156 
 106   0.0000       5.683057       154.6439 
 107   0.0000       5.782112       157.3393 
 108   0.0000       5.949299       161.8887 
 109   0.0000       6.540470       177.9752 
 110   0.0000       6.573906       178.8851 
 111   0.0000       6.757614       183.8840 
 112   0.0000       6.960699       189.4102 
 113   0.0000       7.175262       195.2488 
 114   0.0000      22.238458       605.1392 
 115   0.0000      22.327461       607.5611 
 116   0.0000      43.799230      1191.8376 

                    ********************************
                    * MULLIKEN POPULATION ANALYSIS *
                    ********************************

-----------------------
MULLIKEN ATOMIC CHARGES
-----------------------
   0 O :   -0.325359
   1 C :   -0.090979
   2 C :   -0.072776
   3 H :    0.100503
   4 H :    0.147030
   5 H :    0.108298
   6 H :    0.133282
Sum of atomic charges:   -0.0000000

--------------------------------
MULLIKEN REDUCED ORBITAL CHARGES
--------------------------------
  0 O s       :     3.877173  s :     3.877173
      pz      :     1.855600  p :     4.410515
      px      :     1.350839
      py      :     1.204076
      dz2     :     0.005215  d :     0.035875
      dxz     :     0.001883
      dyz     :     0.005575
      dx2y2   :     0.010438
      dxy     :     0.012765
      f0      :     0.000201  f :     0.001795
      f+1     :     0.000147
      f-1     :     0.000413
      f+2     :     0.000078
      f-2     :     0.000152
      f+3     :     0.000357
      f-3     :     0.000446
  1 C s       :     3.227167  s :     3.227167
      pz      :     1.051111  p :     2.747952
      px      :     0.924785
      py      :     0.772056
      dz2     :     0.007057  d :     0.105239
      dxz     :     0.025490
      dyz     :     0.026074
      dx2y2   :     0.026955
      dxy     :     0.019663
      f0      :     0.001277  f :     0.010620
      f+1     :     0.001410
      f-1     :     0.000544
      f+2     :     0.001496
      f-2     :     0.001351
      f+3     :     0.001951
      f-3     :     0.002589
  2 C s       :     3.235557  s :     3.235557
      pz      :     1.031885  p :     2.716032
      px      :     0.921121
      py      :     0.763025
      dz2     :     0.007804  d :     0.110552
      dxz     :     0.024604
      dyz     :     0.028676
      dx2y2   :     0.027557
      dxy     :     0.021911
      f0      :     0.001350  f :     0.010636
      f+1     :     0.001413
      f-1     :     0.000640
      f+2     :     0.001353
      f-2     :     0.001358
      f+3     :     0.001850
      f-3     :     0.002672
  3 H s       :     0.881229  s :     0.881229
      pz      :     0.009971  p :     0.018268
      px      :     0.005200
      py      :     0.003097
  4 H s       :     0.829425  s :     0.829425
      pz      :     0.010310  p :     0.023545
      px      :     0.008758
      py      :     0.004477
  5 H s       :     0.872885  s :     0.872885
      pz      :     0.009851  p :     0.018817
      px      :     0.005634
      py      :     0.003332
  6 H s       :     0.844009  s :     0.844009
      pz      :     0.011841  p :     0.022709
      px      :     0.006626
      py      :     0.004242


                     *******************************
                     * LOEWDIN POPULATION ANALYSIS *
                     *******************************

----------------------
LOEWDIN ATOMIC CHARGES
----------------------
   0 O :    0.044994
   1 C :   -0.247743
   2 C :   -0.265958
   3 H :    0.135248
   4 H :    0.092890
   5 H :    0.135181
   6 H :    0.105388

-------------------------------
LOEWDIN REDUCED ORBITAL CHARGES
-------------------------------
  0 O s       :     3.460604  s :     3.460604
      pz      :     1.763031  p :     4.415788
      px      :     1.340628
      py      :     1.312130
      dz2     :     0.010793  d :     0.073801
      dxz     :     0.005482
      dyz     :     0.011260
      dx2y2   :     0.025505
      dxy     :     0.020761
      f0      :     0.000412  f :     0.004812
      f+1     :     0.000185
      f-1     :     0.000806
      f+2     :     0.000158
      f-2     :     0.000634
      f+3     :     0.000949
      f-3     :     0.001668
  1 C s       :     2.834640  s :     2.834640
      pz      :     1.060725  p :     2.911230
      px      :     1.044959
      py      :     0.805546
      dz2     :     0.048276  d :     0.440298
      dxz     :     0.131671
      dyz     :     0.068204
      dx2y2   :     0.101065
      dxy     :     0.091081
      f0      :     0.007131  f :     0.061575
      f+1     :     0.006041
      f-1     :     0.005047
      f+2     :     0.008500
      f-2     :     0.005073
      f+3     :     0.013139
      f-3     :     0.016644
  2 C s       :     2.838698  s :     2.838698
      pz      :     1.051716  p :     2.905273
      px      :     1.048215
      py      :     0.805342
      dz2     :     0.054662  d :     0.457573
      dxz     :     0.123921
      dyz     :     0.078688
      dx2y2   :     0.103813
      dxy     :     0.096489
      f0      :     0.008310  f :     0.064415
      f+1     :     0.005791
      f-1     :     0.005441
      f+2     :     0.008024
      f-2     :     0.005507
      f+3     :     0.013556
      f-3     :     0.017785
  3 H s       :     0.816167  s :     0.816167
      pz      :     0.027449  p :     0.048585
      px      :     0.012819
      py      :     0.008317
  4 H s       :     0.829546  s :     0.829546
      pz      :     0.035723  p :     0.077563
      px      :     0.026642
      py      :     0.015198
  5 H s       :     0.814166  s :     0.814166
      pz      :     0.027481  p :     0.050652
      px      :     0.014139
      py      :     0.009033
  6 H s       :     0.824081  s :     0.824081
      pz      :     0.037673  p :     0.070531
      px      :     0.019296
      py      :     0.013562


                      *****************************
                      * MAYER POPULATION ANALYSIS *
                      *****************************

  NA   - Mulliken gross atomic population
  ZA   - Total nuclear charge
  QA   - Mulliken gross atomic charge
  VA   - Mayer's total valence
  BVA  - Mayer's bonded valence
  FA   - Mayer's free valence

  ATOM       NA         ZA         QA         VA         BVA        FA
  0 O      8.3254     8.0000    -0.3254     1.9847     1.9847    -0.0000
  1 C      6.0910     6.0000    -0.0910     3.9694     3.9694    -0.0000
  2 C      6.0728     6.0000    -0.0728     3.9901     3.9901    -0.0000
  3 H      0.8995     1.0000     0.1005     0.9630     0.9630     0.0000
  4 H      0.8530     1.0000     0.1470     0.9522     0.9522     0.0000
  5 H      0.8917     1.0000     0.1083     0.9609     0.9609    -0.0000
  6 H      0.8667     1.0000     0.1333     0.9540     0.9540    -0.0000

  Mayer bond orders larger than 0.100000
B(  0-O ,  1-C ) :   0.9710 B(  0-O ,  2-C ) :   0.9948 B(  1-C ,  2-C ) :   1.0836 
B(  1-C ,  3-H ) :   0.9519 B(  1-C ,  4-H ) :   0.9486 B(  2-C ,  5-H ) :   0.9483 
B(  2-C ,  6-H ) :   0.9471 

-------
TIMINGS
-------

Total SCF time: 0 days 0 hours 0 min 2 sec 

Total time                  ....       2.482 sec
Sum of individual times     ....       2.281 sec  ( 91.9%)

Fock matrix formation       ....       2.016 sec  ( 81.2%)
  Split-RI-J                ....       0.232 sec  ( 11.5% of F)
  Chain of spheres X        ....       1.381 sec  ( 68.5% of F)
  XC integration            ....       0.383 sec  ( 19.0% of F)
    Basis function eval.    ....       0.104 sec  ( 27.1% of XC)
    Density eval.           ....       0.078 sec  ( 20.3% of XC)
    XC-Functional eval.     ....       0.022 sec  (  5.7% of XC)
    XC-Potential eval.      ....       0.137 sec  ( 35.8% of XC)
Diagonalization             ....       0.015 sec  (  0.6%)
Density matrix formation    ....       0.001 sec  (  0.1%)
Population analysis         ....       0.002 sec  (  0.1%)
Initial guess               ....       0.017 sec  (  0.7%)
Orbital Transformation      ....       0.000 sec  (  0.0%)
Orbital Orthonormalization  ....       0.000 sec  (  0.0%)
DIIS solution               ....       0.013 sec  (  0.5%)
SOSCF solution              ....       0.010 sec  (  0.4%)
Grid generation             ....       0.206 sec  (  8.3%)

Maximum memory used throughout the entire SCF-calculation: 61.0 MB


-------------------------------------------------------------------------------
                          DFT DISPERSION CORRECTION                            
                                                                               
                              DFTD3 V3.1  Rev 1                                
                          USING Becke-Johnson damping                          
-------------------------------------------------------------------------------
The PBE0 functional is recognized
Active option DFTDOPT                   ...         4   

molecular C6(AA) [au] = 351.403357 


            DFT-D V3
 parameters
 s6 scaling factor         :     1.0000 
 a1 scaling factor         :     0.4145 
 s8 scaling factor         :     1.2177 
 a2 scaling factor         :     4.8593 
 ad hoc parameters k1-k3   :    16.0000     1.3333    -4.0000 

 Edisp/kcal,au: -1.508935297089  -0.002404641202 
 E6   /kcal   :  -0.988986810 
 E8   /kcal   :  -0.519948487 
 % E8         :  34.457971020 

-------------------------   ----------------
Dispersion correction           -0.002404641
-------------------------   ----------------


-------------------------   --------------------
FINAL SINGLE POINT ENERGY      -153.648885595916
-------------------------   --------------------



           ************************************************************
           *        Program running with 8 parallel MPI-processes     *
           *              working on a common directory               *
           ************************************************************
------------------------------------------------------------------------------
                         ORCA SCF GRADIENT CALCULATION
------------------------------------------------------------------------------

 ... reading COSX grid (gridx3)
Gradient of the Kohn-Sham DFT energy:
Kohn-Sham wavefunction type      ... RKS
Hartree-Fock exchange scaling    ...    0.250
Number of operators              ...    1
Number of atoms                  ...    7
Basis set dimensions             ...  117
Integral neglect threshold       ... 2.5e-11
Integral primitive cutoff        ... 2.5e-12
SHARK Integral package           ... ON

Nuc. rep. gradient       (SHARK) ... done (  0.0 sec)
HCore & Overlap gradient (SHARK) ... done (  0.0 sec)
RI-J gradient            (SHARK) ... done (  0.1 sec)
COSX-gradient                    ... done (  0.3 sec)
Exchange-correlation gradient    ... done
Dispersion correction            ... done

------------------
CARTESIAN GRADIENT
------------------

   1   O   :    0.001489938    0.063513362    0.002736008
   2   C   :   -0.025390421   -0.039720393   -0.136418282
   3   C   :    0.015149716   -0.024207820    0.101745731
   4   H   :   -0.013623210   -0.008355848    0.039091903
   5   H   :    0.023821236    0.012493585    0.062836031
   6   H   :    0.009548924   -0.012397775   -0.037736208
   7   H   :   -0.011052944    0.008789870   -0.032196307

Difference to translation invariance:
           :   -0.0000567604    0.0001149819    0.0000588758

Difference to rotation invariance:
           :   -0.0000620094    0.0000336434   -0.0000434765

Norm of the cartesian gradient     ...    0.2130824866
RMS gradient                       ...    0.0464984107
MAX gradient                       ...    0.1364182821

-------
TIMINGS
-------

Total SCF gradient time            ...        0.683 sec

One electron gradient       ....       0.010 sec  (  1.4%)
RI-J Coulomb gradient       ....       0.076 sec  ( 11.1%)
COSX gradient               ....       0.303 sec  ( 44.3%)
XC gradient                 ....       0.154 sec  ( 22.6%)

Maximum memory used throughout the entire SCFGRAD-calculation: 35.9 MB

                            ***************************************
                            *     ORCA property calculations      *
                            ***************************************

                                    ---------------------
                                    Active property flags
                                    ---------------------
   (+) Dipole Moment


------------------------------------------------------------------------------
                       ORCA ELECTRIC PROPERTIES CALCULATION
------------------------------------------------------------------------------

Dipole Moment Calculation                       ... on
Quadrupole Moment Calculation                   ... off
Polarizability Calculation                      ... off
GBWName                                         ... ox_gs_A_orca0005.gbw
Electron density                                ... ox_gs_A_orca0005.scfp
The origin for moment calculation is the CENTER OF MASS  = ( 0.015554,  0.016905  0.029336)

-------------
DIPOLE MOMENT
-------------
                                X             Y             Z
Electronic contribution:      0.10225       1.61605      -0.13943
Nuclear contribution   :     -0.12321      -2.47617       0.14384
                        -----------------------------------------
Total Dipole Moment    :     -0.02096      -0.86011       0.00441
                        -----------------------------------------
Magnitude (a.u.)       :      0.86038
Magnitude (Debye)      :      2.18692



--------------------
Rotational spectrum 
--------------------
 
Rotational constants in cm-1:     0.772737     0.738765     0.446789 
Rotational constants in MHz : 23166.066663 22147.605610 13394.384223 

 Dipole components along the rotational axes: 
x,y,z [a.u.] :     0.193732    -0.838283    -0.002302 
x,y,z [Debye]:     0.492426    -2.130747    -0.005851 

 

Timings for individual modules:

Sum of individual times         ...        3.892 sec (=   0.065 min)
GTO integral calculation        ...        0.315 sec (=   0.005 min)   8.1 %
SCF iterations                  ...        2.672 sec (=   0.045 min)  68.7 %
SCF Gradient evaluation         ...        0.905 sec (=   0.015 min)  23.2 %
                             ****ORCA TERMINATED NORMALLY****
TOTAL RUN TIME: 0 days 0 hours 0 minutes 4 seconds 181 msec
