
                                 *****************
                                 * O   R   C   A *
                                 *****************

                                            #,                                       
                                            ###                                      
                                            ####                                     
                                            #####                                    
                                            ######                                   
                                           ########,                                 
                                     ,,################,,,,,                         
                               ,,#################################,,                 
                          ,,##########################################,,             
                       ,#########################################, ''#####,          
                    ,#############################################,,   '####,        
                  ,##################################################,,,,####,       
                ,###########''''           ''''###############################       
              ,#####''   ,,,,##########,,,,          '''####'''          '####       
            ,##' ,,,,###########################,,,                        '##       
           ' ,,###''''                  '''############,,,                           
         ,,##''                                '''############,,,,        ,,,,,,###''
      ,#''                                            '''#######################'''  
     '                                                          ''''####''''         
             ,#######,   #######,   ,#######,      ##                                
            ,#'     '#,  ##    ##  ,#'     '#,    #''#        ######   ,####,        
            ##       ##  ##   ,#'  ##            #'  '#       #        #'  '#        
            ##       ##  #######   ##           ,######,      #####,   #    #        
            '#,     ,#'  ##    ##  '#,     ,#' ,#      #,         ##   #,  ,#        
             '#######'   ##     ##  '#######'  #'      '#     #####' # '####'        



                  #######################################################
                  #                        -***-                        #
                  #          Department of theory and spectroscopy      #
                  #    Directorship and core code : Frank Neese         #
                  #        Max Planck Institute fuer Kohlenforschung    #
                  #                Kaiser Wilhelm Platz 1               #
                  #                 D-45470 Muelheim/Ruhr               #
                  #                      Germany                        #
                  #                                                     #
                  #                  All rights reserved                #
                  #                        -***-                        #
                  #######################################################


                         Program Version 5.0.2 -  RELEASE  -


 With contributions from (in alphabetic order):
   Daniel Aravena         : Magnetic Suceptibility
   Michael Atanasov       : Ab Initio Ligand Field Theory (pilot matlab implementation)
   Alexander A. Auer      : GIAO ZORA, VPT2 properties, NMR spectrum
   Ute Becker             : Parallelization
   Giovanni Bistoni       : ED, misc. LED, open-shell LED, HFLD
   Martin Brehm           : Molecular dynamics
   Dmytro Bykov           : SCF Hessian
   Vijay G. Chilkuri      : MRCI spin determinant printing, contributions to CSF-ICE
   Dipayan Datta          : RHF DLPNO-CCSD density
   Achintya Kumar Dutta   : EOM-CC, STEOM-CC
   Dmitry Ganyushin       : Spin-Orbit,Spin-Spin,Magnetic field MRCI
   Miquel Garcia          : C-PCM and meta-GGA Hessian, CC/C-PCM, Gaussian charge scheme
   Yang Guo               : DLPNO-NEVPT2, F12-NEVPT2, CIM, IAO-localization
   Andreas Hansen         : Spin unrestricted coupled pair/coupled cluster methods
   Benjamin Helmich-Paris : MC-RPA, TRAH-SCF, COSX integrals
   Lee Huntington         : MR-EOM, pCC
   Robert Izsak           : Overlap fitted RIJCOSX, COSX-SCS-MP3, EOM
   Marcus Kettner         : VPT2
   Christian Kollmar      : KDIIS, OOCD, Brueckner-CCSD(T), CCSD density, CASPT2, CASPT2-K
   Simone Kossmann        : Meta GGA functionals, TD-DFT gradient, OOMP2, MP2 Hessian
   Martin Krupicka        : Initial AUTO-CI
   Lucas Lang             : DCDCAS
   Marvin Lechner         : AUTO-CI (C++ implementation), FIC-MRCC
   Dagmar Lenk            : GEPOL surface, SMD
   Dimitrios Liakos       : Extrapolation schemes; Compound Job, initial MDCI parallelization
   Dimitrios Manganas     : Further ROCIS development; embedding schemes
   Dimitrios Pantazis     : SARC Basis sets
   Anastasios Papadopoulos: AUTO-CI, single reference methods and gradients
   Taras Petrenko         : DFT Hessian,TD-DFT gradient, ASA, ECA, R-Raman, ABS, FL, XAS/XES, NRVS
   Peter Pinski           : DLPNO-MP2, DLPNO-MP2 Gradient
   Christoph Reimann      : Effective Core Potentials
   Marius Retegan         : Local ZFS, SOC
   Christoph Riplinger    : Optimizer, TS searches, QM/MM, DLPNO-CCSD(T), (RO)-DLPNO pert. Triples
   Tobias Risthaus        : Range-separated hybrids, TD-DFT gradient, RPA, STAB
   Michael Roemelt        : Original ROCIS implementation
   Masaaki Saitow         : Open-shell DLPNO-CCSD energy and density
   Barbara Sandhoefer     : DKH picture change effects
   Avijit Sen             : IP-ROCIS
   Kantharuban Sivalingam : CASSCF convergence, NEVPT2, FIC-MRCI
   Bernardo de Souza      : ESD, SOC TD-DFT
   Georgi Stoychev        : AutoAux, RI-MP2 NMR, DLPNO-MP2 response
   Willem Van den Heuvel  : Paramagnetic NMR
   Boris Wezisla          : Elementary symmetry handling
   Frank Wennmohs         : Technical directorship


 We gratefully acknowledge several colleagues who have allowed us to
 interface, adapt or use parts of their codes:
   Stefan Grimme, W. Hujo, H. Kruse, P. Pracht,  : VdW corrections, initial TS optimization,
                  C. Bannwarth, S. Ehlert          DFT functionals, gCP, sTDA/sTD-DF
   Ed Valeev, F. Pavosevic, A. Kumar             : LibInt (2-el integral package), F12 methods
   Garnet Chan, S. Sharma, J. Yang, R. Olivares  : DMRG
   Ulf Ekstrom                                   : XCFun DFT Library
   Mihaly Kallay                                 : mrcc  (arbitrary order and MRCC methods)
   Jiri Pittner, Ondrej Demel                    : Mk-CCSD
   Frank Weinhold                                : gennbo (NPA and NBO analysis)
   Christopher J. Cramer and Donald G. Truhlar   : smd solvation model
   Lars Goerigk                                  : TD-DFT with DH, B97 family of functionals
   V. Asgeirsson, H. Jonsson                     : NEB implementation
   FAccTs GmbH                                   : IRC, NEB, NEB-TS, DLPNO-Multilevel, CI-OPT
                                                   MM, QMMM, 2- and 3-layer-ONIOM, Crystal-QMMM,
                                                   LR-CPCM, SF, NACMEs, symmetry and pop. for TD-DFT,
                                                   nearIR, NL-DFT gradient (VV10), updates on ESD,
                                                   ML-optimized integration grids
   S Lehtola, MJT Oliveira, MAL Marques          : LibXC Library
   Liviu Ungur et al                             : ANISO software


 Your calculation uses the libint2 library for the computation of 2-el integrals
 For citations please refer to: http://libint.valeyev.net

 Your ORCA version has been built with support for libXC version: 5.1.0
 For citations please refer to: https://tddft.org/programs/libxc/

 This ORCA versions uses:
   CBLAS   interface :  Fast vector & matrix operations
   LAPACKE interface :  Fast linear algebra routines
   SCALAPACK package :  Parallel linear algebra routines
   Shared memory     :  Shared parallel matrices
   BLAS/LAPACK       :  OpenBLAS 0.3.15  USE64BITINT DYNAMIC_ARCH NO_AFFINITY SkylakeX SINGLE_THREADED
        Core in use  :  SkylakeX
   Copyright (c) 2011-2014, The OpenBLAS Project


Your calculation utilizes the atom-pairwise dispersion correction
with the Becke-Johnson damping scheme (D3BJ)
Cite in your paper:
S.Grimme, S.Ehrlich, L.Goerigk, J Comput Chem, (2011), 32, 1456–1465 
S.Grimme, J.Antony, S.Ehrlich and H.Krieg, J.Chem.Phys., 132, (2010), 154104 
   

================================================================================

----- Orbital basis set information -----
Your calculation utilizes the basis: def2-TZVP
   F. Weigend and R. Ahlrichs, Phys. Chem. Chem. Phys. 7, 3297 (2005).

----- AuxJ basis set information -----
Your calculation utilizes the auxiliary basis: def2/J
   F. Weigend, Phys. Chem. Chem. Phys. 8, 1057 (2006).

================================================================================
                                        WARNINGS
                       Please study these warnings very carefully!
================================================================================


INFO   : the flag for use of the SHARK integral package has been found!

================================================================================
                                       INPUT FILE
================================================================================
NAME = ox_gs_A_orca0028.inp
|  1> ! engrad PBE0 D3BJ def2-TZVP  
|  2> %pal nprocs 8 end
|  3> %maxcore 3000
|  4>  
|  5> *xyz 0 1 
|  6> O   0.041516840827212284 0.7241201187045567 0.0035784218609696238
|  7> C   -0.7527724623382558 -0.4230714987126804 0.016683105264347416
|  8> C   0.7807665372128949 -0.47252130994273733 -0.013493746764668564
|  9> H   -1.3127611157891153 -0.6904854730038056 0.9388412446522426
| 10> H   -1.2259733391677323 -0.7143791762088814 -0.876495923994717
| 11> H   1.3316047129402475 -0.6475991148388149 -0.8261364293720967
| 12> H   1.2251334100448215 -0.7305035451655708 0.8310401575547861
| 13> *
| 14> 
| 15>                          ****END OF INPUT****
================================================================================

                     *******************************
                     * Energy+Gradient Calculation *
                     *******************************

---------------------------------
CARTESIAN COORDINATES (ANGSTROEM)
---------------------------------
  O      0.041517    0.724120    0.003578
  C     -0.752772   -0.423071    0.016683
  C      0.780767   -0.472521   -0.013494
  H     -1.312761   -0.690485    0.938841
  H     -1.225973   -0.714379   -0.876496
  H      1.331605   -0.647599   -0.826136
  H      1.225133   -0.730504    0.831040

----------------------------
CARTESIAN COORDINATES (A.U.)
----------------------------
  NO LB      ZA    FRAG     MASS         X           Y           Z
   0 O     8.0000    0    15.999    0.078455    1.368389    0.006762
   1 C     6.0000    0    12.011   -1.422534   -0.799489    0.031527
   2 C     6.0000    0    12.011    1.475435   -0.892936   -0.025499
   3 H     1.0000    0     1.008   -2.480759   -1.304828    1.774153
   4 H     1.0000    0     1.008   -2.316754   -1.349981   -1.656337
   5 H     1.0000    0     1.008    2.516368   -1.223785   -1.561172
   6 H     1.0000    0     1.008    2.315167   -1.380452    1.570438

--------------------------------
INTERNAL COORDINATES (ANGSTROEM)
--------------------------------
 O      0   0   0     0.000000000000     0.00000000     0.00000000
 C      1   0   0     1.395390926200     0.00000000     0.00000000
 C      1   2   0     1.406674191596    66.41446413     0.00000000
 H      2   1   3     1.111518402762   119.49585713   109.56873127
 H      2   1   3     1.051925858180   118.40866864   257.03302965
 H      3   1   2     0.997227688746   116.71338151   115.90123281
 H      3   1   2     0.988561716286   116.60670689   254.96976381

---------------------------
INTERNAL COORDINATES (A.U.)
---------------------------
 O      0   0   0     0.000000000000     0.00000000     0.00000000
 C      1   0   0     2.636906700278     0.00000000     0.00000000
 C      1   2   0     2.658228981772    66.41446413     0.00000000
 H      2   1   3     2.100465374034   119.49585713   109.56873127
 H      2   1   3     1.987851785151   118.40866864   257.03302965
 H      3   1   2     1.884487224893   116.71338151   115.90123281
 H      3   1   2     1.868110910259   116.60670689   254.96976381

---------------------
BASIS SET INFORMATION
---------------------
There are 3 groups of distinct atoms

 Group   1 Type O   : 11s6p2d1f contracted to 5s3p2d1f pattern {62111/411/11/1}
 Group   2 Type C   : 11s6p2d1f contracted to 5s3p2d1f pattern {62111/411/11/1}
 Group   3 Type H   : 5s1p contracted to 3s1p pattern {311/1}

Atom   0O    basis set group =>   1
Atom   1C    basis set group =>   2
Atom   2C    basis set group =>   2
Atom   3H    basis set group =>   3
Atom   4H    basis set group =>   3
Atom   5H    basis set group =>   3
Atom   6H    basis set group =>   3
---------------------------------
AUXILIARY/J BASIS SET INFORMATION
---------------------------------
There are 3 groups of distinct atoms

 Group   1 Type O   : 12s5p4d2f1g contracted to 6s4p3d1f1g pattern {711111/2111/211/2/1}
 Group   2 Type C   : 12s5p4d2f1g contracted to 6s4p3d1f1g pattern {711111/2111/211/2/1}
 Group   3 Type H   : 5s2p1d contracted to 3s1p1d pattern {311/2/1}

Atom   0O    basis set group =>   1
Atom   1C    basis set group =>   2
Atom   2C    basis set group =>   2
Atom   3H    basis set group =>   3
Atom   4H    basis set group =>   3
Atom   5H    basis set group =>   3
Atom   6H    basis set group =>   3


           ************************************************************
           *        Program running with 8 parallel MPI-processes     *
           *              working on a common directory               *
           ************************************************************
------------------------------------------------------------------------------
                           ORCA GTO INTEGRAL CALCULATION
                           -- RI-GTO INTEGRALS CHOSEN --
------------------------------------------------------------------------------
------------------------------------------------------------------------------
                   ___                                                        
                  /   \      - P O W E R E D   B Y -                         
                 /     \                                                     
                 |  |  |   _    _      __       _____    __    __             
                 |  |  |  | |  | |    /  \     |  _  \  |  |  /  |          
                  \  \/   | |  | |   /    \    | | | |  |  | /  /          
                 / \  \   | |__| |  /  /\  \   | |_| |  |  |/  /          
                |  |  |   |  __  | /  /__\  \  |    /   |      \           
                |  |  |   | |  | | |   __   |  |    \   |  |\   \          
                \     /   | |  | | |  |  |  |  | |\  \  |  | \   \       
                 \___/    |_|  |_| |__|  |__|  |_| \__\ |__|  \__/        
                                                                              
                      - O R C A' S   B I G   F R I E N D -                    
                                      &                                       
                       - I N T E G R A L  F E E D E R -                       
                                                                              
 v1 FN, 2020, v2 2021                                                         
------------------------------------------------------------------------------


Reading SHARK input file ox_gs_A_orca0028.SHARKINP.tmp ... ok
----------------------
SHARK INTEGRAL PACKAGE
----------------------

Number of atoms                             ...      7
Number of basis functions                   ...    117
Number of shells                            ...     49
Maximum angular momentum                    ...      3
Integral batch strategy                     ... SHARK/LIBINT Hybrid
RI-J (if used) integral strategy            ... SPLIT-RIJ (Revised 2003 algorithm where possible)
Printlevel                                  ...      1
Contraction scheme used                     ... SEGMENTED contraction
Coulomb Range Separation                    ... NOT USED
Exchange Range Separation                   ... NOT USED
Finite Nucleus Model                        ... NOT USED
Auxiliary Coulomb fitting basis             ... AVAILABLE
   # of basis functions in Aux-J            ...    191
   # of shells in Aux-J                     ...     65
   Maximum angular momentum in Aux-J        ...      4
Auxiliary J/K fitting basis                 ... NOT available
Auxiliary Correlation fitting basis         ... NOT available
Auxiliary 'external' fitting basis          ... NOT available
Integral threshold                          ...     2.500000e-11
Primitive cut-off                           ...     2.500000e-12
Primitive pair pre-selection threshold      ...     2.500000e-12

Calculating pre-screening integrals         ... done (  0.0 sec) Dimension = 49
Organizing shell pair data                  ... done (  0.0 sec)
Shell pair information
Total number of shell pairs                 ...      1225
Shell pairs after pre-screening             ...      1220
Total number of primitive shell pairs       ...      3648
Primitive shell pairs kept                  ...      3153
          la=0 lb=0:    373 shell pairs
          la=1 lb=0:    351 shell pairs
          la=1 lb=1:     91 shell pairs
          la=2 lb=0:    162 shell pairs
          la=2 lb=1:     78 shell pairs
          la=2 lb=2:     21 shell pairs
          la=3 lb=0:     81 shell pairs
          la=3 lb=1:     39 shell pairs
          la=3 lb=2:     18 shell pairs
          la=3 lb=3:      6 shell pairs

Calculating one electron integrals          ... done (  0.0 sec)
Calculating RI/J V-Matrix + Cholesky decomp.... done (  0.0 sec)
Calculating Nuclear repulsion               ... done (  0.0 sec) ENN=     76.086047005043 Eh

SHARK setup successfully completed in   0.1 seconds

Maximum memory used throughout the entire GTOINT-calculation: 14.9 MB


           ************************************************************
           *        Program running with 8 parallel MPI-processes     *
           *              working on a common directory               *
           ************************************************************
-------------------------------------------------------------------------------
                                 ORCA SCF
-------------------------------------------------------------------------------

------------
SCF SETTINGS
------------
Hamiltonian:
 Density Functional     Method          .... DFT(GTOs)
 Exchange Functional    Exchange        .... PBE
   PBE kappa parameter   XKappa         ....  0.804000
   PBE mue parameter    XMuePBE         ....  0.219520
 Correlation Functional Correlation     .... PBE
   PBE beta parameter  CBetaPBE         ....  0.066725
 LDA part of GGA corr.  LDAOpt          .... PW91-LDA
 Gradients option       PostSCFGGA      .... off
 Hybrid DFT is turned on
   Fraction HF Exchange ScalHFX         ....  0.250000
   Scaling of DF-GGA-X  ScalDFX         ....  0.750000
   Scaling of DF-GGA-C  ScalDFC         ....  1.000000
   Scaling of DF-LDA-C  ScalLDAC        ....  1.000000
   Perturbative correction              ....  0.000000
   Density functional embedding theory  .... OFF
   NL short-range parameter             ....  6.900000
 RI-approximation to the Coulomb term is turned on
   Number of AuxJ basis functions       .... 191
   RIJ-COSX (HFX calculated with COS-X)).... on


General Settings:
 Integral files         IntName         .... ox_gs_A_orca0028
 Hartree-Fock type      HFTyp           .... RHF
 Total Charge           Charge          ....    0
 Multiplicity           Mult            ....    1
 Number of Electrons    NEL             ....   24
 Basis Dimension        Dim             ....  117
 Nuclear Repulsion      ENuc            ....     76.0860470050 Eh

Convergence Acceleration:
 DIIS                   CNVDIIS         .... on
   Start iteration      DIISMaxIt       ....    12
   Startup error        DIISStart       ....  0.200000
   # of expansion vecs  DIISMaxEq       ....     5
   Bias factor          DIISBfac        ....   1.050
   Max. coefficient     DIISMaxC        ....  10.000
 Trust-Rad. Augm. Hess. CNVTRAH         .... auto
   Auto Start mean grad. ratio tolernc. ....  1.125000
   Auto Start start iteration           ....    20
   Auto Start num. interpolation iter.  ....    10
   Max. Number of Micro iterations      ....    16
   Max. Number of Macro iterations      .... Maxiter - #DIIS iter
   Number of Davidson start vectors     ....     2
   Converg. threshold I  (grad. norm)   ....   1.000e-05
   Converg. threshold II (energy diff.) ....   1.000e-08
   Grad. Scal. Fac. for Micro threshold ....   0.100
   Minimum threshold for Micro iter.    ....   0.010
   NR start threshold (gradient norm)   ....   0.001
   Initial trust radius                 ....   0.400
   Minimum AH scaling param. (alpha)    ....   1.000
   Maximum AH scaling param. (alpha)    .... 1000.000
   Orbital update algorithm             .... Taylor
   White noise on init. David. guess    .... on
   Maximum white noise                  ....   0.010
   Quad. conv. algorithm                .... NR
 SOSCF                  CNVSOSCF        .... on
   Start iteration      SOSCFMaxIt      ....   150
   Startup grad/error   SOSCFStart      ....  0.003300
 Level Shifting         CNVShift        .... on
   Level shift para.    LevelShift      ....    0.2500
   Turn off err/grad.   ShiftErr        ....    0.0010
 Zerner damping         CNVZerner       .... off
 Static damping         CNVDamp         .... on
   Fraction old density DampFac         ....    0.7000
   Max. Damping (<1)    DampMax         ....    0.9800
   Min. Damping (>=0)   DampMin         ....    0.0000
   Turn off err/grad.   DampErr         ....    0.1000
 Fernandez-Rico         CNVRico         .... off

SCF Procedure:
 Maximum # iterations   MaxIter         ....   125
 SCF integral mode      SCFMode         .... Direct
   Integral package                     .... SHARK and LIBINT hybrid scheme
 Reset frequency        DirectResetFreq ....    20
 Integral Threshold     Thresh          ....  2.500e-11 Eh
 Primitive CutOff       TCut            ....  2.500e-12 Eh

Convergence Tolerance:
 Convergence Check Mode ConvCheckMode   .... Total+1el-Energy
 Convergence forced     ConvForced      .... 0
 Energy Change          TolE            ....  1.000e-08 Eh
 1-El. energy change                    ....  1.000e-05 Eh
 Orbital Gradient       TolG            ....  1.000e-05
 Orbital Rotation angle TolX            ....  1.000e-05
 DIIS Error             TolErr          ....  5.000e-07


Diagonalization of the overlap matrix:
Smallest eigenvalue                        ... 5.714e-04
Time for diagonalization                   ...    0.001 sec
Threshold for overlap eigenvalues          ... 1.000e-08
Number of eigenvalues below threshold      ... 0
Time for construction of square roots      ...    0.002 sec
Total time needed                          ...    0.003 sec

Time for model grid setup =    0.022 sec

------------------------------
INITIAL GUESS: MODEL POTENTIAL
------------------------------
Loading Hartree-Fock densities                     ... done
Calculating cut-offs                               ... done
Initializing the effective Hamiltonian             ... done
Setting up the integral package (SHARK)            ... done
Starting the Coulomb interaction                   ... done (   0.0 sec)
Reading the grid                                   ... done
Mapping shells                                     ... done
Starting the XC term evaluation                    ... done (   0.0 sec)
  promolecular density results
     # of electrons  =     23.996562007
     EX              =    -19.574833940
     EC              =     -0.785265355
     EX+EC           =    -20.360099295
Transforming the Hamiltonian                       ... done (   0.0 sec)
Diagonalizing the Hamiltonian                      ... done (   0.0 sec)
Back transforming the eigenvectors                 ... done (   0.0 sec)
Now organizing SCF variables                       ... done
                      ------------------
                      INITIAL GUESS DONE (   0.0 sec)
                      ------------------
-------------------
DFT GRID GENERATION
-------------------

General Integration Accuracy     IntAcc      ... 4.388
Radial Grid Type                 RadialGrid  ... OptM3 with GC (2021)
Angular Grid (max. ang.)         AngularGrid ... 4 (Lebedev-302)
Angular grid pruning method      GridPruning ... 4 (adaptive)
Weight generation scheme         WeightScheme... Becke
Basis function cutoff            BFCut       ... 1.0000e-11
Integration weight cutoff        WCut        ... 1.0000e-14
Angular grids for H and He will be reduced by one unit
Partially contracted basis set               ... off
Rotationally invariant grid construction     ... off

Total number of grid points                  ...    31292
Total number of batches                      ...      493
Average number of points per batch           ...       63
Average number of grid points per atom       ...     4470
Time for grid setup =    0.110 sec

--------------------
COSX GRID GENERATION
--------------------

GRIDX 1
-------
General Integration Accuracy     IntAcc      ... 3.816
Radial Grid Type                 RadialGrid  ... OptM3 with GC (2021)
Angular Grid (max. ang.)         AngularGrid ... 1 (Lebedev-50)
Angular grid pruning method      GridPruning ... 4 (adaptive)
Weight generation scheme         WeightScheme... Becke
Basis function cutoff            BFCut       ... 1.0000e-11
Integration weight cutoff        WCut        ... 1.0000e-14
Angular grids for H and He will be reduced by one unit
Partially contracted basis set               ... on
Rotationally invariant grid construction     ... off

Total number of grid points                  ...     4034
Total number of batches                      ...       68
Average number of points per batch           ...       59
Average number of grid points per atom       ...      576
UseSFitting                                  ... on

GRIDX 2
-------
General Integration Accuracy     IntAcc      ... 4.020
Radial Grid Type                 RadialGrid  ... OptM3 with GC (2021)
Angular Grid (max. ang.)         AngularGrid ... 2 (Lebedev-110)
Angular grid pruning method      GridPruning ... 4 (adaptive)
Weight generation scheme         WeightScheme... Becke
Basis function cutoff            BFCut       ... 1.0000e-11
Integration weight cutoff        WCut        ... 1.0000e-14
Angular grids for H and He will be reduced by one unit
Partially contracted basis set               ... on
Rotationally invariant grid construction     ... off

Total number of grid points                  ...     8708
Total number of batches                      ...      140
Average number of points per batch           ...       62
Average number of grid points per atom       ...     1244
UseSFitting                                  ... on

GRIDX 3
-------
General Integration Accuracy     IntAcc      ... 4.338
Radial Grid Type                 RadialGrid  ... OptM3 with GC (2021)
Angular Grid (max. ang.)         AngularGrid ... 3 (Lebedev-194)
Angular grid pruning method      GridPruning ... 4 (adaptive)
Weight generation scheme         WeightScheme... Becke
Basis function cutoff            BFCut       ... 1.0000e-11
Integration weight cutoff        WCut        ... 1.0000e-14
Angular grids for H and He will be reduced by one unit
Partially contracted basis set               ... on
Rotationally invariant grid construction     ... off

Total number of grid points                  ...    19238
Total number of batches                      ...      303
Average number of points per batch           ...       63
Average number of grid points per atom       ...     2748
UseSFitting                                  ... on

Time for X-Grid setup             =    0.073 sec

--------------
SCF ITERATIONS
--------------
ITER       Energy         Delta-E        Max-DP      RMS-DP      [F,P]     Damp
               ***  Starting incremental Fock matrix formation  ***
  0   -153.5893232812   0.000000000000 0.03134655  0.00111837  0.1656282 0.7000
  1   -153.6176044873  -0.028281206041 0.01759448  0.00083891  0.0742203 0.7000
                               ***Turning on DIIS***
  2   -153.6300173511  -0.012412863789 0.02782222  0.00148462  0.0353327 0.0000
  3   -153.6499447228  -0.019927371766 0.01343997  0.00061888  0.0378061 0.0000
  4   -153.6535711224  -0.003626399551 0.00336522  0.00016128  0.0068147 0.0000
  5   -153.6537200917  -0.000148969311 0.00135055  0.00005759  0.0036627 0.0000
                      *** Initiating the SOSCF procedure ***
                           *** Shutting down DIIS ***
                      *** Re-Reading the Fockian *** 
                      *** Removing any level shift *** 
ITER      Energy       Delta-E        Grad      Rot      Max-DP    RMS-DP
  6   -153.65374004  -0.0000199526  0.000100  0.000100  0.000749  0.000027
               *** Restarting incremental Fock matrix formation ***
  7   -153.65372288   0.0000171664  0.000034  0.000088  0.000088  0.000004
  8   -153.65372286   0.0000000211  0.000055  0.000059  0.000049  0.000002
  9   -153.65372292  -0.0000000623  0.000005  0.000007  0.000011  0.000000
                 **** Energy Check signals convergence ****
              ***Rediagonalizing the Fockian in SOSCF/NRSCF***

               *****************************************************
               *                     SUCCESS                       *
               *           SCF CONVERGED AFTER  10 CYCLES          *
               *****************************************************

Old exchange energy                            =     -5.015574358 Eh
New exchange energy                            =     -5.015572299 Eh
Exchange energy change after final integration =      0.000002059 Eh
Total energy after final integration           =   -153.653720860 Eh
Final COS-X integration done in                =     0.255 sec

----------------
TOTAL SCF ENERGY
----------------

Total Energy       :         -153.65372086 Eh           -4181.13031 eV

Components:
Nuclear Repulsion  :           76.08604701 Eh            2070.40660 eV
Electronic Energy  :         -229.73976786 Eh           -6251.53691 eV
One Electron Energy:         -358.69815678 Eh           -9760.67307 eV
Two Electron Energy:          128.95838892 Eh            3509.13616 eV
Max COSX asymmetry :            0.00000294 Eh               0.00008 eV

Virial components:
Potential Energy   :         -306.89015194 Eh           -8350.90559 eV
Kinetic Energy     :          153.23643108 Eh            4169.77528 eV
Virial Ratio       :            2.00272318


DFT components:
N(Alpha)           :       12.000001093535 electrons
N(Beta)            :       12.000001093535 electrons
N(Total)           :       24.000002187070 electrons
E(X)               :      -15.011061937065 Eh       
E(C)               :       -0.792804917388 Eh       
E(XC)              :      -15.803866854453 Eh       
DFET-embed. en.    :        0.000000000000 Eh       

---------------
SCF CONVERGENCE
---------------

  Last Energy change         ...    6.9912e-10  Tolerance :   1.0000e-08
  Last MAX-Density change    ...    5.5511e-16  Tolerance :   1.0000e-07
  Last RMS-Density change    ...    1.7588e-17  Tolerance :   5.0000e-09
  Last Orbital Gradient      ...    7.2034e-06  Tolerance :   1.0000e-05
  Last Orbital Rotation      ...    4.1813e-06  Tolerance :   1.0000e-05

             **** THE GBW FILE WAS UPDATED (ox_gs_A_orca0028.gbw) ****
             **** DENSITY ox_gs_A_orca0028.scfp WAS UPDATED ****
             **** ENERGY FILE WAS UPDATED (ox_gs_A_orca0028.en.tmp) ****
             **** THE GBW FILE WAS UPDATED (ox_gs_A_orca0028.gbw) ****
             **** DENSITY ox_gs_A_orca0028.scfp WAS UPDATED ****
----------------
ORBITAL ENERGIES
----------------

  NO   OCC          E(Eh)            E(eV) 
   0   2.0000     -19.226308      -523.1744 
   1   2.0000     -10.277450      -279.6636 
   2   2.0000     -10.256474      -279.0928 
   3   2.0000      -1.117605       -30.4116 
   4   2.0000      -0.701027       -19.0759 
   5   2.0000      -0.672812       -18.3081 
   6   2.0000      -0.537339       -14.6218 
   7   2.0000      -0.505275       -13.7492 
   8   2.0000      -0.438234       -11.9250 
   9   2.0000      -0.412277       -11.2186 
  10   2.0000      -0.311382        -8.4731 
  11   2.0000      -0.293723        -7.9926 
  12   0.0000       0.068525         1.8647 
  13   0.0000       0.074002         2.0137 
  14   0.0000       0.089886         2.4459 
  15   0.0000       0.109956         2.9921 
  16   0.0000       0.114176         3.1069 
  17   0.0000       0.158633         4.3166 
  18   0.0000       0.196155         5.3377 
  19   0.0000       0.218211         5.9378 
  20   0.0000       0.267456         7.2779 
  21   0.0000       0.273273         7.4361 
  22   0.0000       0.291186         7.9236 
  23   0.0000       0.347047         9.4436 
  24   0.0000       0.375299        10.2124 
  25   0.0000       0.384309        10.4576 
  26   0.0000       0.404735        11.0134 
  27   0.0000       0.431577        11.7438 
  28   0.0000       0.454800        12.3757 
  29   0.0000       0.474532        12.9127 
  30   0.0000       0.529651        14.4125 
  31   0.0000       0.536314        14.5939 
  32   0.0000       0.548952        14.9378 
  33   0.0000       0.703274        19.1371 
  34   0.0000       0.714844        19.4519 
  35   0.0000       0.722022        19.6472 
  36   0.0000       0.827094        22.5064 
  37   0.0000       0.869085        23.6490 
  38   0.0000       0.917677        24.9713 
  39   0.0000       0.935819        25.4649 
  40   0.0000       1.014590        27.6084 
  41   0.0000       1.018055        27.7027 
  42   0.0000       1.074653        29.2428 
  43   0.0000       1.075865        29.2758 
  44   0.0000       1.146714        31.2037 
  45   0.0000       1.348805        36.7029 
  46   0.0000       1.442438        39.2507 
  47   0.0000       1.476804        40.1859 
  48   0.0000       1.513960        41.1970 
  49   0.0000       1.517673        41.2980 
  50   0.0000       1.590425        43.2777 
  51   0.0000       1.638383        44.5827 
  52   0.0000       1.687347        45.9150 
  53   0.0000       1.745242        47.4905 
  54   0.0000       1.791950        48.7614 
  55   0.0000       1.812494        49.3205 
  56   0.0000       1.847232        50.2657 
  57   0.0000       1.917217        52.1701 
  58   0.0000       1.949010        53.0353 
  59   0.0000       1.980382        53.8889 
  60   0.0000       2.125065        57.8259 
  61   0.0000       2.159702        58.7685 
  62   0.0000       2.198221        59.8166 
  63   0.0000       2.261936        61.5504 
  64   0.0000       2.278326        61.9964 
  65   0.0000       2.450574        66.6835 
  66   0.0000       2.469906        67.2096 
  67   0.0000       2.518550        68.5332 
  68   0.0000       2.580768        70.2263 
  69   0.0000       2.627233        71.4907 
  70   0.0000       2.656896        72.2978 
  71   0.0000       2.673949        72.7618 
  72   0.0000       2.676144        72.8216 
  73   0.0000       2.748881        74.8009 
  74   0.0000       2.800670        76.2101 
  75   0.0000       2.835427        77.1559 
  76   0.0000       2.897927        78.8566 
  77   0.0000       2.961003        80.5730 
  78   0.0000       2.982251        81.1512 
  79   0.0000       3.032808        82.5269 
  80   0.0000       3.042114        82.7801 
  81   0.0000       3.098147        84.3049 
  82   0.0000       3.180356        86.5419 
  83   0.0000       3.215639        87.5020 
  84   0.0000       3.305108        89.9366 
  85   0.0000       3.360779        91.4514 
  86   0.0000       3.379039        91.9483 
  87   0.0000       3.451738        93.9266 
  88   0.0000       3.605304        98.1053 
  89   0.0000       3.649539        99.3090 
  90   0.0000       3.669372        99.8487 
  91   0.0000       3.723891       101.3322 
  92   0.0000       3.850051       104.7652 
  93   0.0000       3.988118       108.5222 
  94   0.0000       4.085012       111.1588 
  95   0.0000       4.189697       114.0075 
  96   0.0000       4.285843       116.6237 
  97   0.0000       4.359531       118.6289 
  98   0.0000       4.462096       121.4198 
  99   0.0000       4.603452       125.2663 
 100   0.0000       4.790538       130.3572 
 101   0.0000       4.857530       132.1801 
 102   0.0000       5.338696       145.2733 
 103   0.0000       5.503160       149.7486 
 104   0.0000       5.770975       157.0362 
 105   0.0000       5.807089       158.0189 
 106   0.0000       5.842853       158.9921 
 107   0.0000       5.948154       161.8575 
 108   0.0000       6.093978       165.8256 
 109   0.0000       6.646912       180.8717 
 110   0.0000       6.659412       181.2118 
 111   0.0000       6.792753       184.8402 
 112   0.0000       6.970061       189.6650 
 113   0.0000       7.187269       195.5755 
 114   0.0000      22.381381       609.0283 
 115   0.0000      22.663478       616.7046 
 116   0.0000      43.885215      1194.1774 

                    ********************************
                    * MULLIKEN POPULATION ANALYSIS *
                    ********************************

-----------------------
MULLIKEN ATOMIC CHARGES
-----------------------
   0 O :   -0.305222
   1 C :   -0.067011
   2 C :   -0.079067
   3 H :    0.113796
   4 H :    0.110119
   5 H :    0.118849
   6 H :    0.108536
Sum of atomic charges:    0.0000000

--------------------------------
MULLIKEN REDUCED ORBITAL CHARGES
--------------------------------
  0 O s       :     3.842358  s :     3.842358
      pz      :     1.834067  p :     4.414488
      px      :     1.284902
      py      :     1.295519
      dz2     :     0.005949  d :     0.046078
      dxz     :     0.003062
      dyz     :     0.006943
      dx2y2   :     0.013263
      dxy     :     0.016861
      f0      :     0.000281  f :     0.002298
      f+1     :     0.000236
      f-1     :     0.000472
      f+2     :     0.000069
      f-2     :     0.000243
      f+3     :     0.000340
      f-3     :     0.000656
  1 C s       :     3.221347  s :     3.221347
      pz      :     1.039184  p :     2.724957
      px      :     0.885845
      py      :     0.799928
      dz2     :     0.005194  d :     0.108910
      dxz     :     0.025880
      dyz     :     0.030701
      dx2y2   :     0.027641
      dxy     :     0.019493
      f0      :     0.001530  f :     0.011797
      f+1     :     0.001435
      f-1     :     0.000691
      f+2     :     0.000933
      f-2     :     0.002015
      f+3     :     0.002397
      f-3     :     0.002795
  2 C s       :     3.202049  s :     3.202049
      pz      :     1.068824  p :     2.759782
      px      :     0.896424
      py      :     0.794533
      dz2     :     0.004961  d :     0.105524
      dxz     :     0.024150
      dyz     :     0.030162
      dx2y2   :     0.028146
      dxy     :     0.018104
      f0      :     0.001556  f :     0.011712
      f+1     :     0.001419
      f-1     :     0.000661
      f+2     :     0.001133
      f-2     :     0.001837
      f+3     :     0.002325
      f-3     :     0.002781
  3 H s       :     0.865751  s :     0.865751
      pz      :     0.010204  p :     0.020453
      px      :     0.006419
      py      :     0.003830
  4 H s       :     0.867143  s :     0.867143
      pz      :     0.011000  p :     0.022738
      px      :     0.006723
      py      :     0.005015
  5 H s       :     0.857445  s :     0.857445
      pz      :     0.010669  p :     0.023706
      px      :     0.008001
      py      :     0.005035
  6 H s       :     0.867160  s :     0.867160
      pz      :     0.011132  p :     0.024304
      px      :     0.007357
      py      :     0.005815


                     *******************************
                     * LOEWDIN POPULATION ANALYSIS *
                     *******************************

----------------------
LOEWDIN ATOMIC CHARGES
----------------------
   0 O :    0.156494
   1 C :   -0.294500
   2 C :   -0.263446
   3 H :    0.118571
   4 H :    0.104125
   5 H :    0.090459
   6 H :    0.088297

-------------------------------
LOEWDIN REDUCED ORBITAL CHARGES
-------------------------------
  0 O s       :     3.349380  s :     3.349380
      pz      :     1.704433  p :     4.381939
      px      :     1.274965
      py      :     1.402540
      dz2     :     0.011797  d :     0.104605
      dxz     :     0.009862
      dyz     :     0.016167
      dx2y2   :     0.037667
      dxy     :     0.029112
      f0      :     0.000734  f :     0.007582
      f+1     :     0.000326
      f-1     :     0.000883
      f+2     :     0.000129
      f-2     :     0.001178
      f+3     :     0.001320
      f-3     :     0.003012
  1 C s       :     2.824770  s :     2.824770
      pz      :     1.061954  p :     2.929067
      px      :     0.998972
      py      :     0.868142
      dz2     :     0.052149  d :     0.468147
      dxz     :     0.123966
      dyz     :     0.093760
      dx2y2   :     0.101877
      dxy     :     0.096396
      f0      :     0.009968  f :     0.072515
      f+1     :     0.005911
      f-1     :     0.005589
      f+2     :     0.005966
      f-2     :     0.009436
      f+3     :     0.016233
      f-3     :     0.019412
  2 C s       :     2.791482  s :     2.791482
      pz      :     1.084153  p :     2.941665
      px      :     1.000210
      py      :     0.857302
      dz2     :     0.052585  d :     0.458280
      dxz     :     0.122087
      dyz     :     0.088148
      dx2y2   :     0.104296
      dxy     :     0.091165
      f0      :     0.009460  f :     0.072019
      f+1     :     0.006406
      f-1     :     0.006139
      f+2     :     0.007496
      f-2     :     0.008174
      f+3     :     0.014935
      f-3     :     0.019409
  3 H s       :     0.822648  s :     0.822648
      pz      :     0.030506  p :     0.058781
      px      :     0.016929
      py      :     0.011346
  4 H s       :     0.827285  s :     0.827285
      pz      :     0.034686  p :     0.068590
      px      :     0.018579
      py      :     0.015326
  5 H s       :     0.832039  s :     0.832039
      pz      :     0.036012  p :     0.077502
      px      :     0.024542
      py      :     0.016948
  6 H s       :     0.832495  s :     0.832495
      pz      :     0.037657  p :     0.079208
      px      :     0.022563
      py      :     0.018987


                      *****************************
                      * MAYER POPULATION ANALYSIS *
                      *****************************

  NA   - Mulliken gross atomic population
  ZA   - Total nuclear charge
  QA   - Mulliken gross atomic charge
  VA   - Mayer's total valence
  BVA  - Mayer's bonded valence
  FA   - Mayer's free valence

  ATOM       NA         ZA         QA         VA         BVA        FA
  0 O      8.3052     8.0000    -0.3052     2.0024     2.0024    -0.0000
  1 C      6.0670     6.0000    -0.0670     3.9596     3.9596    -0.0000
  2 C      6.0791     6.0000    -0.0791     3.9686     3.9686     0.0000
  3 H      0.8862     1.0000     0.1138     0.9612     0.9612    -0.0000
  4 H      0.8899     1.0000     0.1101     0.9567     0.9567     0.0000
  5 H      0.8812     1.0000     0.1188     0.9631     0.9631    -0.0000
  6 H      0.8915     1.0000     0.1085     0.9604     0.9604    -0.0000

  Mayer bond orders larger than 0.100000
B(  0-O ,  1-C ) :   1.0069 B(  0-O ,  2-C ) :   0.9782 B(  1-C ,  2-C ) :   1.0408 
B(  1-C ,  3-H ) :   0.9510 B(  1-C ,  4-H ) :   0.9556 B(  2-C ,  5-H ) :   0.9691 
B(  2-C ,  6-H ) :   0.9696 

-------
TIMINGS
-------

Total SCF time: 0 days 0 hours 0 min 2 sec 

Total time                  ....       2.373 sec
Sum of individual times     ....       2.185 sec  ( 92.0%)

Fock matrix formation       ....       1.921 sec  ( 80.9%)
  Split-RI-J                ....       0.220 sec  ( 11.4% of F)
  Chain of spheres X        ....       1.282 sec  ( 66.7% of F)
  XC integration            ....       0.365 sec  ( 19.0% of F)
    Basis function eval.    ....       0.096 sec  ( 26.4% of XC)
    Density eval.           ....       0.073 sec  ( 19.9% of XC)
    XC-Functional eval.     ....       0.021 sec  (  5.7% of XC)
    XC-Potential eval.      ....       0.132 sec  ( 36.2% of XC)
Diagonalization             ....       0.016 sec  (  0.7%)
Density matrix formation    ....       0.001 sec  (  0.1%)
Population analysis         ....       0.004 sec  (  0.2%)
Initial guess               ....       0.017 sec  (  0.7%)
Orbital Transformation      ....       0.000 sec  (  0.0%)
Orbital Orthonormalization  ....       0.000 sec  (  0.0%)
DIIS solution               ....       0.013 sec  (  0.6%)
SOSCF solution              ....       0.009 sec  (  0.4%)
Grid generation             ....       0.204 sec  (  8.6%)

Maximum memory used throughout the entire SCF-calculation: 61.1 MB


-------------------------------------------------------------------------------
                          DFT DISPERSION CORRECTION                            
                                                                               
                              DFTD3 V3.1  Rev 1                                
                          USING Becke-Johnson damping                          
-------------------------------------------------------------------------------
The PBE0 functional is recognized
Active option DFTDOPT                   ...         4   

molecular C6(AA) [au] = 350.692350 


            DFT-D V3
 parameters
 s6 scaling factor         :     1.0000 
 a1 scaling factor         :     0.4145 
 s8 scaling factor         :     1.2177 
 a2 scaling factor         :     4.8593 
 ad hoc parameters k1-k3   :    16.0000     1.3333    -4.0000 

 Edisp/kcal,au: -1.511186869273  -0.002408229311 
 E6   /kcal   :  -0.991015929 
 E8   /kcal   :  -0.520170940 
 % E8         :  34.421351234 

-------------------------   ----------------
Dispersion correction           -0.002408229
-------------------------   ----------------


-------------------------   --------------------
FINAL SINGLE POINT ENERGY      -153.656129089215
-------------------------   --------------------



           ************************************************************
           *        Program running with 8 parallel MPI-processes     *
           *              working on a common directory               *
           ************************************************************
------------------------------------------------------------------------------
                         ORCA SCF GRADIENT CALCULATION
------------------------------------------------------------------------------

 ... reading COSX grid (gridx3)
Gradient of the Kohn-Sham DFT energy:
Kohn-Sham wavefunction type      ... RKS
Hartree-Fock exchange scaling    ...    0.250
Number of operators              ...    1
Number of atoms                  ...    7
Basis set dimensions             ...  117
Integral neglect threshold       ... 2.5e-11
Integral primitive cutoff        ... 2.5e-12
SHARK Integral package           ... ON

Nuc. rep. gradient       (SHARK) ... done (  0.0 sec)
HCore & Overlap gradient (SHARK) ... done (  0.0 sec)
RI-J gradient            (SHARK) ... done (  0.1 sec)
COSX-gradient                    ... done (  0.3 sec)
Exchange-correlation gradient    ... done
Dispersion correction            ... done

------------------
CARTESIAN GRADIENT
------------------

   1   O   :    0.004397283   -0.015790006   -0.002464048
   2   C   :   -0.042228011    0.017665952   -0.019188077
   3   C   :    0.106152888   -0.025211703   -0.002556793
   4   H   :   -0.012079246   -0.007587453    0.008851968
   5   H   :    0.014464432   -0.000969586    0.023694932
   6   H   :   -0.032509658    0.014637265    0.070085133
   7   H   :   -0.038211790    0.017077219   -0.078398384

Difference to translation invariance:
           :   -0.0000141025   -0.0001783126    0.0000247308

Difference to rotation invariance:
           :   -0.0000351755    0.0000173362    0.0001115323

Norm of the cartesian gradient     ...    0.1725786326
RMS gradient                       ...    0.0376597451
MAX gradient                       ...    0.1061528876

-------
TIMINGS
-------

Total SCF gradient time            ...        0.689 sec

One electron gradient       ....       0.010 sec  (  1.4%)
RI-J Coulomb gradient       ....       0.079 sec  ( 11.5%)
COSX gradient               ....       0.305 sec  ( 44.2%)
XC gradient                 ....       0.158 sec  ( 22.9%)

Maximum memory used throughout the entire SCFGRAD-calculation: 35.9 MB

                            ***************************************
                            *     ORCA property calculations      *
                            ***************************************

                                    ---------------------
                                    Active property flags
                                    ---------------------
   (+) Dipole Moment


------------------------------------------------------------------------------
                       ORCA ELECTRIC PROPERTIES CALCULATION
------------------------------------------------------------------------------

Dipole Moment Calculation                       ... on
Quadrupole Moment Calculation                   ... off
Polarizability Calculation                      ... off
GBWName                                         ... ox_gs_A_orca0028.gbw
Electron density                                ... ox_gs_A_orca0028.scfp
The origin for moment calculation is the CENTER OF MASS  = ( 0.043695, -0.084807  0.007007)

-------------
DIPOLE MOMENT
-------------
                                X             Y             Z
Electronic contribution:      0.08617       1.74770      -0.05297
Nuclear contribution   :     -0.06961      -2.43113       0.04917
                        -----------------------------------------
Total Dipole Moment    :      0.01656      -0.68343      -0.00380
                        -----------------------------------------
Magnitude (a.u.)       :      0.68364
Magnitude (Debye)      :      1.73768



--------------------
Rotational spectrum 
--------------------
 
Rotational constants in cm-1:     0.930135     0.710186     0.471044 
Rotational constants in MHz : 27884.732402 21290.847454 14121.547408 

 Dipole components along the rotational axes: 
x,y,z [a.u.] :     0.023057     0.683222    -0.006477 
x,y,z [Debye]:     0.058605     1.736613    -0.016462 

 

Timings for individual modules:

Sum of individual times         ...        3.819 sec (=   0.064 min)
GTO integral calculation        ...        0.314 sec (=   0.005 min)   8.2 %
SCF iterations                  ...        2.593 sec (=   0.043 min)  67.9 %
SCF Gradient evaluation         ...        0.911 sec (=   0.015 min)  23.9 %
                             ****ORCA TERMINATED NORMALLY****
TOTAL RUN TIME: 0 days 0 hours 0 minutes 4 seconds 100 msec
