
                                 *****************
                                 * O   R   C   A *
                                 *****************

                                            #,                                       
                                            ###                                      
                                            ####                                     
                                            #####                                    
                                            ######                                   
                                           ########,                                 
                                     ,,################,,,,,                         
                               ,,#################################,,                 
                          ,,##########################################,,             
                       ,#########################################, ''#####,          
                    ,#############################################,,   '####,        
                  ,##################################################,,,,####,       
                ,###########''''           ''''###############################       
              ,#####''   ,,,,##########,,,,          '''####'''          '####       
            ,##' ,,,,###########################,,,                        '##       
           ' ,,###''''                  '''############,,,                           
         ,,##''                                '''############,,,,        ,,,,,,###''
      ,#''                                            '''#######################'''  
     '                                                          ''''####''''         
             ,#######,   #######,   ,#######,      ##                                
            ,#'     '#,  ##    ##  ,#'     '#,    #''#        ######   ,####,        
            ##       ##  ##   ,#'  ##            #'  '#       #        #'  '#        
            ##       ##  #######   ##           ,######,      #####,   #    #        
            '#,     ,#'  ##    ##  '#,     ,#' ,#      #,         ##   #,  ,#        
             '#######'   ##     ##  '#######'  #'      '#     #####' # '####'        



                  #######################################################
                  #                        -***-                        #
                  #          Department of theory and spectroscopy      #
                  #    Directorship and core code : Frank Neese         #
                  #        Max Planck Institute fuer Kohlenforschung    #
                  #                Kaiser Wilhelm Platz 1               #
                  #                 D-45470 Muelheim/Ruhr               #
                  #                      Germany                        #
                  #                                                     #
                  #                  All rights reserved                #
                  #                        -***-                        #
                  #######################################################


                         Program Version 5.0.2 -  RELEASE  -


 With contributions from (in alphabetic order):
   Daniel Aravena         : Magnetic Suceptibility
   Michael Atanasov       : Ab Initio Ligand Field Theory (pilot matlab implementation)
   Alexander A. Auer      : GIAO ZORA, VPT2 properties, NMR spectrum
   Ute Becker             : Parallelization
   Giovanni Bistoni       : ED, misc. LED, open-shell LED, HFLD
   Martin Brehm           : Molecular dynamics
   Dmytro Bykov           : SCF Hessian
   Vijay G. Chilkuri      : MRCI spin determinant printing, contributions to CSF-ICE
   Dipayan Datta          : RHF DLPNO-CCSD density
   Achintya Kumar Dutta   : EOM-CC, STEOM-CC
   Dmitry Ganyushin       : Spin-Orbit,Spin-Spin,Magnetic field MRCI
   Miquel Garcia          : C-PCM and meta-GGA Hessian, CC/C-PCM, Gaussian charge scheme
   Yang Guo               : DLPNO-NEVPT2, F12-NEVPT2, CIM, IAO-localization
   Andreas Hansen         : Spin unrestricted coupled pair/coupled cluster methods
   Benjamin Helmich-Paris : MC-RPA, TRAH-SCF, COSX integrals
   Lee Huntington         : MR-EOM, pCC
   Robert Izsak           : Overlap fitted RIJCOSX, COSX-SCS-MP3, EOM
   Marcus Kettner         : VPT2
   Christian Kollmar      : KDIIS, OOCD, Brueckner-CCSD(T), CCSD density, CASPT2, CASPT2-K
   Simone Kossmann        : Meta GGA functionals, TD-DFT gradient, OOMP2, MP2 Hessian
   Martin Krupicka        : Initial AUTO-CI
   Lucas Lang             : DCDCAS
   Marvin Lechner         : AUTO-CI (C++ implementation), FIC-MRCC
   Dagmar Lenk            : GEPOL surface, SMD
   Dimitrios Liakos       : Extrapolation schemes; Compound Job, initial MDCI parallelization
   Dimitrios Manganas     : Further ROCIS development; embedding schemes
   Dimitrios Pantazis     : SARC Basis sets
   Anastasios Papadopoulos: AUTO-CI, single reference methods and gradients
   Taras Petrenko         : DFT Hessian,TD-DFT gradient, ASA, ECA, R-Raman, ABS, FL, XAS/XES, NRVS
   Peter Pinski           : DLPNO-MP2, DLPNO-MP2 Gradient
   Christoph Reimann      : Effective Core Potentials
   Marius Retegan         : Local ZFS, SOC
   Christoph Riplinger    : Optimizer, TS searches, QM/MM, DLPNO-CCSD(T), (RO)-DLPNO pert. Triples
   Tobias Risthaus        : Range-separated hybrids, TD-DFT gradient, RPA, STAB
   Michael Roemelt        : Original ROCIS implementation
   Masaaki Saitow         : Open-shell DLPNO-CCSD energy and density
   Barbara Sandhoefer     : DKH picture change effects
   Avijit Sen             : IP-ROCIS
   Kantharuban Sivalingam : CASSCF convergence, NEVPT2, FIC-MRCI
   Bernardo de Souza      : ESD, SOC TD-DFT
   Georgi Stoychev        : AutoAux, RI-MP2 NMR, DLPNO-MP2 response
   Willem Van den Heuvel  : Paramagnetic NMR
   Boris Wezisla          : Elementary symmetry handling
   Frank Wennmohs         : Technical directorship


 We gratefully acknowledge several colleagues who have allowed us to
 interface, adapt or use parts of their codes:
   Stefan Grimme, W. Hujo, H. Kruse, P. Pracht,  : VdW corrections, initial TS optimization,
                  C. Bannwarth, S. Ehlert          DFT functionals, gCP, sTDA/sTD-DF
   Ed Valeev, F. Pavosevic, A. Kumar             : LibInt (2-el integral package), F12 methods
   Garnet Chan, S. Sharma, J. Yang, R. Olivares  : DMRG
   Ulf Ekstrom                                   : XCFun DFT Library
   Mihaly Kallay                                 : mrcc  (arbitrary order and MRCC methods)
   Jiri Pittner, Ondrej Demel                    : Mk-CCSD
   Frank Weinhold                                : gennbo (NPA and NBO analysis)
   Christopher J. Cramer and Donald G. Truhlar   : smd solvation model
   Lars Goerigk                                  : TD-DFT with DH, B97 family of functionals
   V. Asgeirsson, H. Jonsson                     : NEB implementation
   FAccTs GmbH                                   : IRC, NEB, NEB-TS, DLPNO-Multilevel, CI-OPT
                                                   MM, QMMM, 2- and 3-layer-ONIOM, Crystal-QMMM,
                                                   LR-CPCM, SF, NACMEs, symmetry and pop. for TD-DFT,
                                                   nearIR, NL-DFT gradient (VV10), updates on ESD,
                                                   ML-optimized integration grids
   S Lehtola, MJT Oliveira, MAL Marques          : LibXC Library
   Liviu Ungur et al                             : ANISO software


 Your calculation uses the libint2 library for the computation of 2-el integrals
 For citations please refer to: http://libint.valeyev.net

 Your ORCA version has been built with support for libXC version: 5.1.0
 For citations please refer to: https://tddft.org/programs/libxc/

 This ORCA versions uses:
   CBLAS   interface :  Fast vector & matrix operations
   LAPACKE interface :  Fast linear algebra routines
   SCALAPACK package :  Parallel linear algebra routines
   Shared memory     :  Shared parallel matrices
   BLAS/LAPACK       :  OpenBLAS 0.3.15  USE64BITINT DYNAMIC_ARCH NO_AFFINITY SkylakeX SINGLE_THREADED
        Core in use  :  SkylakeX
   Copyright (c) 2011-2014, The OpenBLAS Project


Your calculation utilizes the atom-pairwise dispersion correction
with the Becke-Johnson damping scheme (D3BJ)
Cite in your paper:
S.Grimme, S.Ehrlich, L.Goerigk, J Comput Chem, (2011), 32, 1456–1465 
S.Grimme, J.Antony, S.Ehrlich and H.Krieg, J.Chem.Phys., 132, (2010), 154104 
   

================================================================================

----- Orbital basis set information -----
Your calculation utilizes the basis: def2-TZVP
   F. Weigend and R. Ahlrichs, Phys. Chem. Chem. Phys. 7, 3297 (2005).

----- AuxJ basis set information -----
Your calculation utilizes the auxiliary basis: def2/J
   F. Weigend, Phys. Chem. Chem. Phys. 8, 1057 (2006).

================================================================================
                                        WARNINGS
                       Please study these warnings very carefully!
================================================================================


INFO   : the flag for use of the SHARK integral package has been found!

================================================================================
                                       INPUT FILE
================================================================================
NAME = ox_gs_B_orca0003.inp
|  1> ! engrad PBE0 D3BJ def2-TZVP  
|  2> %pal nprocs 8 end
|  3> %maxcore 3000
|  4>  
|  5> *xyz 0 1 
|  6> O   -0.2550277629267585 0.9352364986338921 -0.12002256112305297
|  7> C   -0.62735940895806 -0.5041520544511382 0.010594169338885052
|  8> C   0.7641255712158553 -0.48629225058815984 0.023102986858102435
|  9> H   -1.2286115187268911 -0.6420954116053095 0.8736635043234887
| 10> H   -1.1634306224611 -0.6569227829064553 -0.9776091754625477
| 11> H   1.2954217922904563 -0.6662952256653317 -0.8967566037474552
| 12> H   1.0856470369687632 -0.6022155292264897 0.9276076976102267
| 13> *
| 14> 
| 15>                          ****END OF INPUT****
================================================================================

                     *******************************
                     * Energy+Gradient Calculation *
                     *******************************

---------------------------------
CARTESIAN COORDINATES (ANGSTROEM)
---------------------------------
  O     -0.255028    0.935236   -0.120023
  C     -0.627359   -0.504152    0.010594
  C      0.764126   -0.486292    0.023103
  H     -1.228612   -0.642095    0.873664
  H     -1.163431   -0.656923   -0.977609
  H      1.295422   -0.666295   -0.896757
  H      1.085647   -0.602216    0.927608

----------------------------
CARTESIAN COORDINATES (A.U.)
----------------------------
  NO LB      ZA    FRAG     MASS         X           Y           Z
   0 O     8.0000    0    15.999   -0.481933    1.767341   -0.226810
   1 C     6.0000    0    12.011   -1.185537   -0.952709    0.020020
   2 C     6.0000    0    12.011    1.443988   -0.918959    0.043658
   3 H     1.0000    0     1.008   -2.321739   -1.213384    1.650985
   4 H     1.0000    0     1.008   -2.198565   -1.241404   -1.847414
   5 H     1.0000    0     1.008    2.447992   -1.259116   -1.694624
   6 H     1.0000    0     1.008    2.051576   -1.138022    1.752925

--------------------------------
INTERNAL COORDINATES (ANGSTROEM)
--------------------------------
 O      0   0   0     0.000000000000     0.00000000     0.00000000
 C      1   0   0     1.492491538222     0.00000000     0.00000000
 C      2   1   0     1.391655809875    74.86884372     0.00000000
 H      2   1   3     1.060858683461   109.75459055   121.36105440
 H      2   1   3     1.134573528731    99.87534511   242.63017985
 H      3   2   1     1.077412832666   118.89746034   263.91899137
 H      3   2   1     0.966924521999   109.83718612   102.92548125

---------------------------
INTERNAL COORDINATES (A.U.)
---------------------------
 O      0   0   0     0.000000000000     0.00000000     0.00000000
 C      1   0   0     2.820400264435     0.00000000     0.00000000
 C      2   1   0     2.629848353344    74.86884372     0.00000000
 H      2   1   3     2.004732378534   109.75459055   121.36105440
 H      2   1   3     2.144033248097    99.87534511   242.63017985
 H      3   2   1     2.036015186911   118.89746034   263.91899137
 H      3   2   1     1.827222538751   109.83718612   102.92548125

---------------------
BASIS SET INFORMATION
---------------------
There are 3 groups of distinct atoms

 Group   1 Type O   : 11s6p2d1f contracted to 5s3p2d1f pattern {62111/411/11/1}
 Group   2 Type C   : 11s6p2d1f contracted to 5s3p2d1f pattern {62111/411/11/1}
 Group   3 Type H   : 5s1p contracted to 3s1p pattern {311/1}

Atom   0O    basis set group =>   1
Atom   1C    basis set group =>   2
Atom   2C    basis set group =>   2
Atom   3H    basis set group =>   3
Atom   4H    basis set group =>   3
Atom   5H    basis set group =>   3
Atom   6H    basis set group =>   3
---------------------------------
AUXILIARY/J BASIS SET INFORMATION
---------------------------------
There are 3 groups of distinct atoms

 Group   1 Type O   : 12s5p4d2f1g contracted to 6s4p3d1f1g pattern {711111/2111/211/2/1}
 Group   2 Type C   : 12s5p4d2f1g contracted to 6s4p3d1f1g pattern {711111/2111/211/2/1}
 Group   3 Type H   : 5s2p1d contracted to 3s1p1d pattern {311/2/1}

Atom   0O    basis set group =>   1
Atom   1C    basis set group =>   2
Atom   2C    basis set group =>   2
Atom   3H    basis set group =>   3
Atom   4H    basis set group =>   3
Atom   5H    basis set group =>   3
Atom   6H    basis set group =>   3


           ************************************************************
           *        Program running with 8 parallel MPI-processes     *
           *              working on a common directory               *
           ************************************************************
------------------------------------------------------------------------------
                           ORCA GTO INTEGRAL CALCULATION
                           -- RI-GTO INTEGRALS CHOSEN --
------------------------------------------------------------------------------
------------------------------------------------------------------------------
                   ___                                                        
                  /   \      - P O W E R E D   B Y -                         
                 /     \                                                     
                 |  |  |   _    _      __       _____    __    __             
                 |  |  |  | |  | |    /  \     |  _  \  |  |  /  |          
                  \  \/   | |  | |   /    \    | | | |  |  | /  /          
                 / \  \   | |__| |  /  /\  \   | |_| |  |  |/  /          
                |  |  |   |  __  | /  /__\  \  |    /   |      \           
                |  |  |   | |  | | |   __   |  |    \   |  |\   \          
                \     /   | |  | | |  |  |  |  | |\  \  |  | \   \       
                 \___/    |_|  |_| |__|  |__|  |_| \__\ |__|  \__/        
                                                                              
                      - O R C A' S   B I G   F R I E N D -                    
                                      &                                       
                       - I N T E G R A L  F E E D E R -                       
                                                                              
 v1 FN, 2020, v2 2021                                                         
------------------------------------------------------------------------------


Reading SHARK input file ox_gs_B_orca0003.SHARKINP.tmp ... ok
----------------------
SHARK INTEGRAL PACKAGE
----------------------

Number of atoms                             ...      7
Number of basis functions                   ...    117
Number of shells                            ...     49
Maximum angular momentum                    ...      3
Integral batch strategy                     ... SHARK/LIBINT Hybrid
RI-J (if used) integral strategy            ... SPLIT-RIJ (Revised 2003 algorithm where possible)
Printlevel                                  ...      1
Contraction scheme used                     ... SEGMENTED contraction
Coulomb Range Separation                    ... NOT USED
Exchange Range Separation                   ... NOT USED
Finite Nucleus Model                        ... NOT USED
Auxiliary Coulomb fitting basis             ... AVAILABLE
   # of basis functions in Aux-J            ...    191
   # of shells in Aux-J                     ...     65
   Maximum angular momentum in Aux-J        ...      4
Auxiliary J/K fitting basis                 ... NOT available
Auxiliary Correlation fitting basis         ... NOT available
Auxiliary 'external' fitting basis          ... NOT available
Integral threshold                          ...     2.500000e-11
Primitive cut-off                           ...     2.500000e-12
Primitive pair pre-selection threshold      ...     2.500000e-12

Calculating pre-screening integrals         ... done (  0.0 sec) Dimension = 49
Organizing shell pair data                  ... done (  0.0 sec)
Shell pair information
Total number of shell pairs                 ...      1225
Shell pairs after pre-screening             ...      1219
Total number of primitive shell pairs       ...      3648
Primitive shell pairs kept                  ...      3137
          la=0 lb=0:    372 shell pairs
          la=1 lb=0:    351 shell pairs
          la=1 lb=1:     91 shell pairs
          la=2 lb=0:    162 shell pairs
          la=2 lb=1:     78 shell pairs
          la=2 lb=2:     21 shell pairs
          la=3 lb=0:     81 shell pairs
          la=3 lb=1:     39 shell pairs
          la=3 lb=2:     18 shell pairs
          la=3 lb=3:      6 shell pairs

Calculating one electron integrals          ... done (  0.0 sec)
Calculating RI/J V-Matrix + Cholesky decomp.... done (  0.0 sec)
Calculating Nuclear repulsion               ... done (  0.0 sec) ENN=     72.356169872479 Eh

SHARK setup successfully completed in   0.2 seconds

Maximum memory used throughout the entire GTOINT-calculation: 14.9 MB


           ************************************************************
           *        Program running with 8 parallel MPI-processes     *
           *              working on a common directory               *
           ************************************************************
-------------------------------------------------------------------------------
                                 ORCA SCF
-------------------------------------------------------------------------------

------------
SCF SETTINGS
------------
Hamiltonian:
 Density Functional     Method          .... DFT(GTOs)
 Exchange Functional    Exchange        .... PBE
   PBE kappa parameter   XKappa         ....  0.804000
   PBE mue parameter    XMuePBE         ....  0.219520
 Correlation Functional Correlation     .... PBE
   PBE beta parameter  CBetaPBE         ....  0.066725
 LDA part of GGA corr.  LDAOpt          .... PW91-LDA
 Gradients option       PostSCFGGA      .... off
 Hybrid DFT is turned on
   Fraction HF Exchange ScalHFX         ....  0.250000
   Scaling of DF-GGA-X  ScalDFX         ....  0.750000
   Scaling of DF-GGA-C  ScalDFC         ....  1.000000
   Scaling of DF-LDA-C  ScalLDAC        ....  1.000000
   Perturbative correction              ....  0.000000
   Density functional embedding theory  .... OFF
   NL short-range parameter             ....  6.900000
 RI-approximation to the Coulomb term is turned on
   Number of AuxJ basis functions       .... 191
   RIJ-COSX (HFX calculated with COS-X)).... on


General Settings:
 Integral files         IntName         .... ox_gs_B_orca0003
 Hartree-Fock type      HFTyp           .... RHF
 Total Charge           Charge          ....    0
 Multiplicity           Mult            ....    1
 Number of Electrons    NEL             ....   24
 Basis Dimension        Dim             ....  117
 Nuclear Repulsion      ENuc            ....     72.3561698725 Eh

Convergence Acceleration:
 DIIS                   CNVDIIS         .... on
   Start iteration      DIISMaxIt       ....    12
   Startup error        DIISStart       ....  0.200000
   # of expansion vecs  DIISMaxEq       ....     5
   Bias factor          DIISBfac        ....   1.050
   Max. coefficient     DIISMaxC        ....  10.000
 Trust-Rad. Augm. Hess. CNVTRAH         .... auto
   Auto Start mean grad. ratio tolernc. ....  1.125000
   Auto Start start iteration           ....    20
   Auto Start num. interpolation iter.  ....    10
   Max. Number of Micro iterations      ....    16
   Max. Number of Macro iterations      .... Maxiter - #DIIS iter
   Number of Davidson start vectors     ....     2
   Converg. threshold I  (grad. norm)   ....   1.000e-05
   Converg. threshold II (energy diff.) ....   1.000e-08
   Grad. Scal. Fac. for Micro threshold ....   0.100
   Minimum threshold for Micro iter.    ....   0.010
   NR start threshold (gradient norm)   ....   0.001
   Initial trust radius                 ....   0.400
   Minimum AH scaling param. (alpha)    ....   1.000
   Maximum AH scaling param. (alpha)    .... 1000.000
   Orbital update algorithm             .... Taylor
   White noise on init. David. guess    .... on
   Maximum white noise                  ....   0.010
   Quad. conv. algorithm                .... NR
 SOSCF                  CNVSOSCF        .... on
   Start iteration      SOSCFMaxIt      ....   150
   Startup grad/error   SOSCFStart      ....  0.003300
 Level Shifting         CNVShift        .... on
   Level shift para.    LevelShift      ....    0.2500
   Turn off err/grad.   ShiftErr        ....    0.0010
 Zerner damping         CNVZerner       .... off
 Static damping         CNVDamp         .... on
   Fraction old density DampFac         ....    0.7000
   Max. Damping (<1)    DampMax         ....    0.9800
   Min. Damping (>=0)   DampMin         ....    0.0000
   Turn off err/grad.   DampErr         ....    0.1000
 Fernandez-Rico         CNVRico         .... off

SCF Procedure:
 Maximum # iterations   MaxIter         ....   125
 SCF integral mode      SCFMode         .... Direct
   Integral package                     .... SHARK and LIBINT hybrid scheme
 Reset frequency        DirectResetFreq ....    20
 Integral Threshold     Thresh          ....  2.500e-11 Eh
 Primitive CutOff       TCut            ....  2.500e-12 Eh

Convergence Tolerance:
 Convergence Check Mode ConvCheckMode   .... Total+1el-Energy
 Convergence forced     ConvForced      .... 0
 Energy Change          TolE            ....  1.000e-08 Eh
 1-El. energy change                    ....  1.000e-05 Eh
 Orbital Gradient       TolG            ....  1.000e-05
 Orbital Rotation angle TolX            ....  1.000e-05
 DIIS Error             TolErr          ....  5.000e-07


Diagonalization of the overlap matrix:
Smallest eigenvalue                        ... 2.664e-04
Time for diagonalization                   ...    0.021 sec
Threshold for overlap eigenvalues          ... 1.000e-08
Number of eigenvalues below threshold      ... 0
Time for construction of square roots      ...    0.003 sec
Total time needed                          ...    0.024 sec

Time for model grid setup =    0.039 sec

------------------------------
INITIAL GUESS: MODEL POTENTIAL
------------------------------
Loading Hartree-Fock densities                     ... done
Calculating cut-offs                               ... done
Initializing the effective Hamiltonian             ... done
Setting up the integral package (SHARK)            ... done
Starting the Coulomb interaction                   ... done (   0.0 sec)
Reading the grid                                   ... done
Mapping shells                                     ... done
Starting the XC term evaluation                    ... done (   0.0 sec)
  promolecular density results
     # of electrons  =     23.997814885
     EX              =    -19.506857073
     EC              =     -0.775385340
     EX+EC           =    -20.282242412
Transforming the Hamiltonian                       ... done (   0.0 sec)
Diagonalizing the Hamiltonian                      ... done (   0.0 sec)
Back transforming the eigenvectors                 ... done (   0.0 sec)
Now organizing SCF variables                       ... done
                      ------------------
                      INITIAL GUESS DONE (   0.1 sec)
                      ------------------
-------------------
DFT GRID GENERATION
-------------------

General Integration Accuracy     IntAcc      ... 4.388
Radial Grid Type                 RadialGrid  ... OptM3 with GC (2021)
Angular Grid (max. ang.)         AngularGrid ... 4 (Lebedev-302)
Angular grid pruning method      GridPruning ... 4 (adaptive)
Weight generation scheme         WeightScheme... Becke
Basis function cutoff            BFCut       ... 1.0000e-11
Integration weight cutoff        WCut        ... 1.0000e-14
Angular grids for H and He will be reduced by one unit
Partially contracted basis set               ... off
Rotationally invariant grid construction     ... off

Total number of grid points                  ...    31285
Total number of batches                      ...      492
Average number of points per batch           ...       63
Average number of grid points per atom       ...     4469
Time for grid setup =    0.110 sec

--------------------
COSX GRID GENERATION
--------------------

GRIDX 1
-------
General Integration Accuracy     IntAcc      ... 3.816
Radial Grid Type                 RadialGrid  ... OptM3 with GC (2021)
Angular Grid (max. ang.)         AngularGrid ... 1 (Lebedev-50)
Angular grid pruning method      GridPruning ... 4 (adaptive)
Weight generation scheme         WeightScheme... Becke
Basis function cutoff            BFCut       ... 1.0000e-11
Integration weight cutoff        WCut        ... 1.0000e-14
Angular grids for H and He will be reduced by one unit
Partially contracted basis set               ... on
Rotationally invariant grid construction     ... off

Total number of grid points                  ...     4039
Total number of batches                      ...       67
Average number of points per batch           ...       60
Average number of grid points per atom       ...      577
UseSFitting                                  ... on

GRIDX 2
-------
General Integration Accuracy     IntAcc      ... 4.020
Radial Grid Type                 RadialGrid  ... OptM3 with GC (2021)
Angular Grid (max. ang.)         AngularGrid ... 2 (Lebedev-110)
Angular grid pruning method      GridPruning ... 4 (adaptive)
Weight generation scheme         WeightScheme... Becke
Basis function cutoff            BFCut       ... 1.0000e-11
Integration weight cutoff        WCut        ... 1.0000e-14
Angular grids for H and He will be reduced by one unit
Partially contracted basis set               ... on
Rotationally invariant grid construction     ... off

Total number of grid points                  ...     8728
Total number of batches                      ...      139
Average number of points per batch           ...       62
Average number of grid points per atom       ...     1247
UseSFitting                                  ... on

GRIDX 3
-------
General Integration Accuracy     IntAcc      ... 4.338
Radial Grid Type                 RadialGrid  ... OptM3 with GC (2021)
Angular Grid (max. ang.)         AngularGrid ... 3 (Lebedev-194)
Angular grid pruning method      GridPruning ... 4 (adaptive)
Weight generation scheme         WeightScheme... Becke
Basis function cutoff            BFCut       ... 1.0000e-11
Integration weight cutoff        WCut        ... 1.0000e-14
Angular grids for H and He will be reduced by one unit
Partially contracted basis set               ... on
Rotationally invariant grid construction     ... off

Total number of grid points                  ...    19231
Total number of batches                      ...      303
Average number of points per batch           ...       63
Average number of grid points per atom       ...     2747
UseSFitting                                  ... on

Time for X-Grid setup             =    0.073 sec

--------------
SCF ITERATIONS
--------------
ITER       Energy         Delta-E        Max-DP      RMS-DP      [F,P]     Damp
               ***  Starting incremental Fock matrix formation  ***
  0   -153.5434092694   0.000000000000 0.03454314  0.00123939  0.1884296 0.7000
  1   -153.5749605725  -0.031551303173 0.01988058  0.00088075  0.0706571 0.7000
                               ***Turning on DIIS***
  2   -153.5872999327  -0.012339360186 0.03028433  0.00142284  0.0383713 0.0000
  3   -153.6084988733  -0.021198940620 0.01703174  0.00068374  0.0385199 0.0000
  4   -153.6119782211  -0.003479347772 0.00573625  0.00018620  0.0153076 0.0000
  5   -153.6123384215  -0.000360200377 0.00148135  0.00005904  0.0047328 0.0000
                      *** Initiating the SOSCF procedure ***
                           *** Shutting down DIIS ***
                      *** Re-Reading the Fockian *** 
                      *** Removing any level shift *** 
ITER      Energy       Delta-E        Grad      Rot      Max-DP    RMS-DP
  6   -153.61237151  -0.0000330917  0.000111  0.000111  0.000672  0.000026
               *** Restarting incremental Fock matrix formation ***
  7   -153.61236189   0.0000096228  0.000153  0.000506  0.000309  0.000011
  8   -153.61236140   0.0000004948  0.000328  0.000351  0.000229  0.000007
  9   -153.61236209  -0.0000006921  0.000050  0.000089  0.000094  0.000003
 10   -153.61236206   0.0000000300  0.000069  0.000055  0.000058  0.000002
                  ***Gradient check signals convergence***
              ***Rediagonalizing the Fockian in SOSCF/NRSCF***

               *****************************************************
               *                     SUCCESS                       *
               *           SCF CONVERGED AFTER  11 CYCLES          *
               *****************************************************

Old exchange energy                            =     -4.985329857 Eh
New exchange energy                            =     -4.985338073 Eh
Exchange energy change after final integration =     -0.000008216 Eh
Total energy after final integration           =   -153.612370337 Eh
Final COS-X integration done in                =     0.253 sec

----------------
TOTAL SCF ENERGY
----------------

Total Energy       :         -153.61237034 Eh           -4180.00510 eV

Components:
Nuclear Repulsion  :           72.35616987 Eh            1968.91148 eV
Electronic Energy  :         -225.96854021 Eh           -6148.91658 eV
One Electron Energy:         -351.51506298 Eh           -9565.21115 eV
Two Electron Energy:          125.54652277 Eh            3416.29457 eV
Max COSX asymmetry :            0.00000158 Eh               0.00004 eV

Virial components:
Potential Energy   :         -306.62101680 Eh           -8343.58205 eV
Kinetic Energy     :          153.00864646 Eh            4163.57694 eV
Virial Ratio       :            2.00394568


DFT components:
N(Alpha)           :       11.999997724942 electrons
N(Beta)            :       11.999997724942 electrons
N(Total)           :       23.999995449885 electrons
E(X)               :      -14.942820916973 Eh       
E(C)               :       -0.782257799869 Eh       
E(XC)              :      -15.725078716842 Eh       
DFET-embed. en.    :        0.000000000000 Eh       

---------------
SCF CONVERGENCE
---------------

  Last Energy change         ...   -6.2851e-08  Tolerance :   1.0000e-08
  Last MAX-Density change    ...    1.4433e-15  Tolerance :   1.0000e-07
  Last RMS-Density change    ...    2.4067e-17  Tolerance :   5.0000e-09
  Last Orbital Gradient      ...    7.7590e-07  Tolerance :   1.0000e-05
  Last Orbital Rotation      ...    9.2206e-07  Tolerance :   1.0000e-05

             **** THE GBW FILE WAS UPDATED (ox_gs_B_orca0003.gbw) ****
             **** DENSITY ox_gs_B_orca0003.scfp WAS UPDATED ****
             **** ENERGY FILE WAS UPDATED (ox_gs_B_orca0003.en.tmp) ****
             **** THE GBW FILE WAS UPDATED (ox_gs_B_orca0003.gbw) ****
             **** DENSITY ox_gs_B_orca0003.scfp WAS UPDATED ****
----------------
ORBITAL ENERGIES
----------------

  NO   OCC          E(Eh)            E(eV) 
   0   2.0000     -19.211536      -522.7725 
   1   2.0000     -10.279217      -279.7117 
   2   2.0000     -10.271120      -279.4914 
   3   2.0000      -1.017926       -27.6992 
   4   2.0000      -0.759462       -20.6660 
   5   2.0000      -0.637403       -17.3446 
   6   2.0000      -0.543929       -14.8010 
   7   2.0000      -0.483346       -13.1525 
   8   2.0000      -0.413801       -11.2601 
   9   2.0000      -0.378717       -10.3054 
  10   2.0000      -0.325795        -8.8653 
  11   2.0000      -0.274343        -7.4652 
  12   0.0000      -0.023306        -0.6342 
  13   0.0000       0.059740         1.6256 
  14   0.0000       0.086227         2.3464 
  15   0.0000       0.089632         2.4390 
  16   0.0000       0.103330         2.8117 
  17   0.0000       0.152373         4.1463 
  18   0.0000       0.177241         4.8230 
  19   0.0000       0.210293         5.7224 
  20   0.0000       0.246945         6.7197 
  21   0.0000       0.273157         7.4330 
  22   0.0000       0.297690         8.1006 
  23   0.0000       0.298760         8.1297 
  24   0.0000       0.394103        10.7241 
  25   0.0000       0.408537        11.1169 
  26   0.0000       0.412399        11.2219 
  27   0.0000       0.433948        11.8083 
  28   0.0000       0.464081        12.6283 
  29   0.0000       0.499897        13.6029 
  30   0.0000       0.503911        13.7121 
  31   0.0000       0.523716        14.2510 
  32   0.0000       0.583226        15.8704 
  33   0.0000       0.660215        17.9654 
  34   0.0000       0.678805        18.4712 
  35   0.0000       0.764723        20.8092 
  36   0.0000       0.824498        22.4357 
  37   0.0000       0.843982        22.9659 
  38   0.0000       0.863295        23.4915 
  39   0.0000       0.925767        25.1914 
  40   0.0000       0.978992        26.6397 
  41   0.0000       1.036872        28.2147 
  42   0.0000       1.055193        28.7133 
  43   0.0000       1.097603        29.8673 
  44   0.0000       1.186354        32.2823 
  45   0.0000       1.351354        36.7722 
  46   0.0000       1.441575        39.2273 
  47   0.0000       1.452286        39.5187 
  48   0.0000       1.499055        40.7914 
  49   0.0000       1.528766        41.5998 
  50   0.0000       1.618551        44.0430 
  51   0.0000       1.624819        44.2136 
  52   0.0000       1.668417        45.3999 
  53   0.0000       1.675266        45.5863 
  54   0.0000       1.729353        47.0581 
  55   0.0000       1.797311        48.9073 
  56   0.0000       1.814416        49.3728 
  57   0.0000       1.851331        50.3773 
  58   0.0000       1.940962        52.8163 
  59   0.0000       1.972406        53.6719 
  60   0.0000       2.101103        57.1739 
  61   0.0000       2.142161        58.2912 
  62   0.0000       2.189400        59.5766 
  63   0.0000       2.240369        60.9635 
  64   0.0000       2.334325        63.5202 
  65   0.0000       2.397613        65.2424 
  66   0.0000       2.448319        66.6222 
  67   0.0000       2.474360        67.3308 
  68   0.0000       2.508304        68.2544 
  69   0.0000       2.542228        69.1775 
  70   0.0000       2.620978        71.3204 
  71   0.0000       2.651501        72.1510 
  72   0.0000       2.691460        73.2384 
  73   0.0000       2.739451        74.5442 
  74   0.0000       2.793961        76.0275 
  75   0.0000       2.859763        77.8181 
  76   0.0000       2.867409        78.0262 
  77   0.0000       2.885137        78.5086 
  78   0.0000       2.973382        80.9098 
  79   0.0000       3.044841        82.8543 
  80   0.0000       3.073134        83.6242 
  81   0.0000       3.103817        84.4592 
  82   0.0000       3.142841        85.5211 
  83   0.0000       3.184677        86.6595 
  84   0.0000       3.209197        87.3267 
  85   0.0000       3.306054        89.9623 
  86   0.0000       3.429135        93.3115 
  87   0.0000       3.442816        93.6838 
  88   0.0000       3.508265        95.4648 
  89   0.0000       3.563067        96.9560 
  90   0.0000       3.652451        99.3882 
  91   0.0000       3.747510       101.9749 
  92   0.0000       3.885898       105.7407 
  93   0.0000       3.961251       107.7911 
  94   0.0000       4.039712       109.9261 
  95   0.0000       4.130084       112.3853 
  96   0.0000       4.222301       114.8947 
  97   0.0000       4.364719       118.7700 
  98   0.0000       4.544339       123.6578 
  99   0.0000       4.628683       125.9529 
 100   0.0000       4.667077       126.9976 
 101   0.0000       4.912531       133.6768 
 102   0.0000       5.256458       143.0355 
 103   0.0000       5.273701       143.5047 
 104   0.0000       5.383929       146.5041 
 105   0.0000       5.508338       149.8895 
 106   0.0000       5.656415       153.9189 
 107   0.0000       5.658428       153.9736 
 108   0.0000       5.874366       159.8496 
 109   0.0000       6.472852       176.1352 
 110   0.0000       6.480195       176.3351 
 111   0.0000       6.735030       183.2695 
 112   0.0000       6.963268       189.4801 
 113   0.0000       7.055012       191.9766 
 114   0.0000      22.278129       606.2187 
 115   0.0000      22.550524       613.6310 
 116   0.0000      43.692981      1188.9465 

                    ********************************
                    * MULLIKEN POPULATION ANALYSIS *
                    ********************************

-----------------------
MULLIKEN ATOMIC CHARGES
-----------------------
   0 O :   -0.365528
   1 C :   -0.059674
   2 C :   -0.105453
   3 H :    0.125595
   4 H :    0.117894
   5 H :    0.149590
   6 H :    0.137576
Sum of atomic charges:    0.0000000

--------------------------------
MULLIKEN REDUCED ORBITAL CHARGES
--------------------------------
  0 O s       :     3.909702  s :     3.909702
      pz      :     1.900023  p :     4.428404
      px      :     1.393205
      py      :     1.135176
      dz2     :     0.003905  d :     0.026080
      dxz     :     0.001052
      dyz     :     0.004504
      dx2y2   :     0.007984
      dxy     :     0.008634
      f0      :     0.000146  f :     0.001342
      f+1     :     0.000083
      f-1     :     0.000329
      f+2     :     0.000111
      f-2     :     0.000079
      f+3     :     0.000317
      f-3     :     0.000276
  1 C s       :     3.201630  s :     3.201630
      pz      :     1.060528  p :     2.718040
      px      :     0.931436
      py      :     0.726077
      dz2     :     0.008353  d :     0.129429
      dxz     :     0.025418
      dyz     :     0.035010
      dx2y2   :     0.029607
      dxy     :     0.031041
      f0      :     0.001565  f :     0.010575
      f+1     :     0.001196
      f-1     :     0.000675
      f+2     :     0.002618
      f-2     :     0.000474
      f+3     :     0.001409
      f-3     :     0.002638
  2 C s       :     3.244007  s :     3.244007
      pz      :     1.047171  p :     2.775410
      px      :     0.954886
      py      :     0.773352
      dz2     :     0.009370  d :     0.078669
      dxz     :     0.022148
      dyz     :     0.013329
      dx2y2   :     0.014864
      dxy     :     0.018959
      f0      :     0.001206  f :     0.007368
      f+1     :     0.001076
      f-1     :     0.000222
      f+2     :     0.000992
      f-2     :     0.000630
      f+3     :     0.001319
      f-3     :     0.001923
  3 H s       :     0.852746  s :     0.852746
      pz      :     0.010377  p :     0.021659
      px      :     0.007433
      py      :     0.003849
  4 H s       :     0.862277  s :     0.862277
      pz      :     0.010720  p :     0.019829
      px      :     0.005409
      py      :     0.003700
  5 H s       :     0.828296  s :     0.828296
      pz      :     0.011627  p :     0.022114
      px      :     0.006415
      py      :     0.004072
  6 H s       :     0.837254  s :     0.837254
      pz      :     0.012966  p :     0.025170
      px      :     0.006784
      py      :     0.005421


                     *******************************
                     * LOEWDIN POPULATION ANALYSIS *
                     *******************************

----------------------
LOEWDIN ATOMIC CHARGES
----------------------
   0 O :   -0.055255
   1 C :   -0.327314
   2 C :   -0.102331
   3 H :    0.114361
   4 H :    0.134506
   5 H :    0.135716
   6 H :    0.100317

-------------------------------
LOEWDIN REDUCED ORBITAL CHARGES
-------------------------------
  0 O s       :     3.560899  s :     3.560899
      pz      :     1.828846  p :     4.438281
      px      :     1.370429
      py      :     1.239007
      dz2     :     0.008588  d :     0.052849
      dxz     :     0.002364
      dyz     :     0.009553
      dx2y2   :     0.017738
      dxy     :     0.014605
      f0      :     0.000283  f :     0.003227
      f+1     :     0.000104
      f-1     :     0.000630
      f+2     :     0.000336
      f-2     :     0.000238
      f+3     :     0.000775
      f-3     :     0.000861
  1 C s       :     2.825476  s :     2.825476
      pz      :     1.043313  p :     2.899233
      px      :     1.069385
      py      :     0.786535
      dz2     :     0.057687  d :     0.532085
      dxz     :     0.139221
      dyz     :     0.088021
      dx2y2   :     0.127875
      dxy     :     0.119280
      f0      :     0.009597  f :     0.070520
      f+1     :     0.005319
      f-1     :     0.006330
      f+2     :     0.014603
      f-2     :     0.001837
      f+3     :     0.011739
      f-3     :     0.021096
  2 C s       :     2.832845  s :     2.832845
      pz      :     1.058835  p :     2.891326
      px      :     1.100634
      py      :     0.731857
      dz2     :     0.051229  d :     0.334809
      dxz     :     0.114030
      dyz     :     0.030909
      dx2y2   :     0.067361
      dxy     :     0.071280
      f0      :     0.007753  f :     0.043351
      f+1     :     0.004788
      f-1     :     0.002676
      f+2     :     0.006236
      f-2     :     0.002068
      f+3     :     0.008372
      f-3     :     0.011457
  3 H s       :     0.820686  s :     0.820686
      pz      :     0.032320  p :     0.064954
      px      :     0.020901
      py      :     0.011733
  4 H s       :     0.811931  s :     0.811931
      pz      :     0.029910  p :     0.053563
      px      :     0.013833
      py      :     0.009820
  5 H s       :     0.800461  s :     0.800461
      pz      :     0.033882  p :     0.063822
      px      :     0.017966
      py      :     0.011974
  6 H s       :     0.815392  s :     0.815392
      pz      :     0.043373  p :     0.084291
      px      :     0.023230
      py      :     0.017689


                      *****************************
                      * MAYER POPULATION ANALYSIS *
                      *****************************

  NA   - Mulliken gross atomic population
  ZA   - Total nuclear charge
  QA   - Mulliken gross atomic charge
  VA   - Mayer's total valence
  BVA  - Mayer's bonded valence
  FA   - Mayer's free valence

  ATOM       NA         ZA         QA         VA         BVA        FA
  0 O      8.3655     8.0000    -0.3655     1.8792     1.8792     0.0000
  1 C      6.0597     6.0000    -0.0597     3.9786     3.9786     0.0000
  2 C      6.1055     6.0000    -0.1055     3.9642     3.9642     0.0000
  3 H      0.8744     1.0000     0.1256     0.9624     0.9624     0.0000
  4 H      0.8821     1.0000     0.1179     0.9704     0.9704    -0.0000
  5 H      0.8504     1.0000     0.1496     0.9596     0.9596     0.0000
  6 H      0.8624     1.0000     0.1376     0.9606     0.9606    -0.0000

  Mayer bond orders larger than 0.100000
B(  0-O ,  1-C ) :   0.9496 B(  0-O ,  2-C ) :   0.9326 B(  1-C ,  2-C ) :   1.1061 
B(  1-C ,  3-H ) :   0.9541 B(  1-C ,  4-H ) :   0.9616 B(  2-C ,  5-H ) :   0.9491 
B(  2-C ,  6-H ) :   0.9603 

-------
TIMINGS
-------

Total SCF time: 0 days 0 hours 0 min 2 sec 

Total time                  ....       2.874 sec
Sum of individual times     ....       2.488 sec  ( 86.6%)

Fock matrix formation       ....       2.176 sec  ( 75.7%)
  Split-RI-J                ....       0.291 sec  ( 13.4% of F)
  Chain of spheres X        ....       1.420 sec  ( 65.3% of F)
  XC integration            ....       0.385 sec  ( 17.7% of F)
    Basis function eval.    ....       0.103 sec  ( 26.7% of XC)
    Density eval.           ....       0.078 sec  ( 20.1% of XC)
    XC-Functional eval.     ....       0.022 sec  (  5.7% of XC)
    XC-Potential eval.      ....       0.140 sec  ( 36.3% of XC)
Diagonalization             ....       0.016 sec  (  0.5%)
Density matrix formation    ....       0.001 sec  (  0.0%)
Population analysis         ....       0.004 sec  (  0.1%)
Initial guess               ....       0.046 sec  (  1.6%)
Orbital Transformation      ....       0.000 sec  (  0.0%)
Orbital Orthonormalization  ....       0.000 sec  (  0.0%)
DIIS solution               ....       0.013 sec  (  0.4%)
SOSCF solution              ....       0.010 sec  (  0.4%)
Grid generation             ....       0.222 sec  (  7.7%)

Maximum memory used throughout the entire SCF-calculation: 61.0 MB


-------------------------------------------------------------------------------
                          DFT DISPERSION CORRECTION                            
                                                                               
                              DFTD3 V3.1  Rev 1                                
                          USING Becke-Johnson damping                          
-------------------------------------------------------------------------------
The PBE0 functional is recognized
Active option DFTDOPT                   ...         4   

molecular C6(AA) [au] = 358.036878 


            DFT-D V3
 parameters
 s6 scaling factor         :     1.0000 
 a1 scaling factor         :     0.4145 
 s8 scaling factor         :     1.2177 
 a2 scaling factor         :     4.8593 
 ad hoc parameters k1-k3   :    16.0000     1.3333    -4.0000 

 Edisp/kcal,au: -1.546272021120  -0.002464141053 
 E6   /kcal   :  -1.013789034 
 E8   /kcal   :  -0.532482987 
 % E8         :  34.436566107 

-------------------------   ----------------
Dispersion correction           -0.002464141
-------------------------   ----------------


-------------------------   --------------------
FINAL SINGLE POINT ENERGY      -153.614834477594
-------------------------   --------------------



           ************************************************************
           *        Program running with 8 parallel MPI-processes     *
           *              working on a common directory               *
           ************************************************************
------------------------------------------------------------------------------
                         ORCA SCF GRADIENT CALCULATION
------------------------------------------------------------------------------

 ... reading COSX grid (gridx3)
Gradient of the Kohn-Sham DFT energy:
Kohn-Sham wavefunction type      ... RKS
Hartree-Fock exchange scaling    ...    0.250
Number of operators              ...    1
Number of atoms                  ...    7
Basis set dimensions             ...  117
Integral neglect threshold       ... 2.5e-11
Integral primitive cutoff        ... 2.5e-12
SHARK Integral package           ... ON

Nuc. rep. gradient       (SHARK) ... done (  0.0 sec)
HCore & Overlap gradient (SHARK) ... done (  0.0 sec)
RI-J gradient            (SHARK) ... done (  0.2 sec)
COSX-gradient                    ... done (  0.3 sec)
Exchange-correlation gradient    ... done
Dispersion correction            ... done

------------------
CARTESIAN GRADIENT
------------------

   1   O   :   -0.052065242    0.074808111   -0.020741912
   2   C   :    0.069645557   -0.048357336    0.070147056
   3   C   :    0.051203174   -0.056507642    0.096115048
   4   H   :    0.006081088    0.012366482   -0.016357202
   5   H   :   -0.009583512    0.016989010   -0.027031247
   6   H   :   -0.006643682   -0.002482595   -0.003824869
   7   H   :   -0.058548577    0.003130430   -0.098371848

Difference to translation invariance:
           :    0.0000888052   -0.0000535401   -0.0000649733

Difference to rotation invariance:
           :    0.0000327499   -0.0000393506   -0.0001280948

Norm of the cartesian gradient     ...    0.2250513483
RMS gradient                       ...    0.0491102304
MAX gradient                       ...    0.0983718476

-------
TIMINGS
-------

Total SCF gradient time            ...        0.850 sec

One electron gradient       ....       0.013 sec  (  1.6%)
RI-J Coulomb gradient       ....       0.153 sec  ( 18.0%)
COSX gradient               ....       0.329 sec  ( 38.7%)
XC gradient                 ....       0.155 sec  ( 18.3%)

Maximum memory used throughout the entire SCFGRAD-calculation: 35.9 MB

                            ***************************************
                            *     ORCA property calculations      *
                            ***************************************

                                    ---------------------
                                    Active property flags
                                    ---------------------
   (+) Dipole Moment


------------------------------------------------------------------------------
                       ORCA ELECTRIC PROPERTIES CALCULATION
------------------------------------------------------------------------------

Dipole Moment Calculation                       ... on
Quadrupole Moment Calculation                   ... off
Polarizability Calculation                      ... off
GBWName                                         ... ox_gs_B_orca0003.gbw
Electron density                                ... ox_gs_B_orca0003.scfp
The origin for moment calculation is the CENTER OF MASS  = (-0.105035,  0.020528 -0.068171)

-------------
DIPOLE MOMENT
-------------
                                X             Y             Z
Electronic contribution:      0.01953       1.36051       0.03926
Nuclear contribution   :      0.19534      -2.43589       0.06556
                        -----------------------------------------
Total Dipole Moment    :      0.21487      -1.07538       0.10482
                        -----------------------------------------
Magnitude (a.u.)       :      1.10163
Magnitude (Debye)      :      2.80013



--------------------
Rotational spectrum 
--------------------
 
Rotational constants in cm-1:     0.899828     0.597476     0.419910 
Rotational constants in MHz : 26976.173779 17911.876062 12588.592110 

 Dipole components along the rotational axes: 
x,y,z [a.u.] :    -1.010358    -0.439028    -0.005225 
x,y,z [Debye]:    -2.568126    -1.115922    -0.013281 

 

Timings for individual modules:

Sum of individual times         ...        4.779 sec (=   0.080 min)
GTO integral calculation        ...        0.538 sec (=   0.009 min)  11.3 %
SCF iterations                  ...        3.122 sec (=   0.052 min)  65.3 %
SCF Gradient evaluation         ...        1.119 sec (=   0.019 min)  23.4 %
                             ****ORCA TERMINATED NORMALLY****
TOTAL RUN TIME: 0 days 0 hours 0 minutes 5 seconds 354 msec
