
                                 *****************
                                 * O   R   C   A *
                                 *****************

                                            #,                                       
                                            ###                                      
                                            ####                                     
                                            #####                                    
                                            ######                                   
                                           ########,                                 
                                     ,,################,,,,,                         
                               ,,#################################,,                 
                          ,,##########################################,,             
                       ,#########################################, ''#####,          
                    ,#############################################,,   '####,        
                  ,##################################################,,,,####,       
                ,###########''''           ''''###############################       
              ,#####''   ,,,,##########,,,,          '''####'''          '####       
            ,##' ,,,,###########################,,,                        '##       
           ' ,,###''''                  '''############,,,                           
         ,,##''                                '''############,,,,        ,,,,,,###''
      ,#''                                            '''#######################'''  
     '                                                          ''''####''''         
             ,#######,   #######,   ,#######,      ##                                
            ,#'     '#,  ##    ##  ,#'     '#,    #''#        ######   ,####,        
            ##       ##  ##   ,#'  ##            #'  '#       #        #'  '#        
            ##       ##  #######   ##           ,######,      #####,   #    #        
            '#,     ,#'  ##    ##  '#,     ,#' ,#      #,         ##   #,  ,#        
             '#######'   ##     ##  '#######'  #'      '#     #####' # '####'        



                  #######################################################
                  #                        -***-                        #
                  #          Department of theory and spectroscopy      #
                  #    Directorship and core code : Frank Neese         #
                  #        Max Planck Institute fuer Kohlenforschung    #
                  #                Kaiser Wilhelm Platz 1               #
                  #                 D-45470 Muelheim/Ruhr               #
                  #                      Germany                        #
                  #                                                     #
                  #                  All rights reserved                #
                  #                        -***-                        #
                  #######################################################


                         Program Version 5.0.2 -  RELEASE  -


 With contributions from (in alphabetic order):
   Daniel Aravena         : Magnetic Suceptibility
   Michael Atanasov       : Ab Initio Ligand Field Theory (pilot matlab implementation)
   Alexander A. Auer      : GIAO ZORA, VPT2 properties, NMR spectrum
   Ute Becker             : Parallelization
   Giovanni Bistoni       : ED, misc. LED, open-shell LED, HFLD
   Martin Brehm           : Molecular dynamics
   Dmytro Bykov           : SCF Hessian
   Vijay G. Chilkuri      : MRCI spin determinant printing, contributions to CSF-ICE
   Dipayan Datta          : RHF DLPNO-CCSD density
   Achintya Kumar Dutta   : EOM-CC, STEOM-CC
   Dmitry Ganyushin       : Spin-Orbit,Spin-Spin,Magnetic field MRCI
   Miquel Garcia          : C-PCM and meta-GGA Hessian, CC/C-PCM, Gaussian charge scheme
   Yang Guo               : DLPNO-NEVPT2, F12-NEVPT2, CIM, IAO-localization
   Andreas Hansen         : Spin unrestricted coupled pair/coupled cluster methods
   Benjamin Helmich-Paris : MC-RPA, TRAH-SCF, COSX integrals
   Lee Huntington         : MR-EOM, pCC
   Robert Izsak           : Overlap fitted RIJCOSX, COSX-SCS-MP3, EOM
   Marcus Kettner         : VPT2
   Christian Kollmar      : KDIIS, OOCD, Brueckner-CCSD(T), CCSD density, CASPT2, CASPT2-K
   Simone Kossmann        : Meta GGA functionals, TD-DFT gradient, OOMP2, MP2 Hessian
   Martin Krupicka        : Initial AUTO-CI
   Lucas Lang             : DCDCAS
   Marvin Lechner         : AUTO-CI (C++ implementation), FIC-MRCC
   Dagmar Lenk            : GEPOL surface, SMD
   Dimitrios Liakos       : Extrapolation schemes; Compound Job, initial MDCI parallelization
   Dimitrios Manganas     : Further ROCIS development; embedding schemes
   Dimitrios Pantazis     : SARC Basis sets
   Anastasios Papadopoulos: AUTO-CI, single reference methods and gradients
   Taras Petrenko         : DFT Hessian,TD-DFT gradient, ASA, ECA, R-Raman, ABS, FL, XAS/XES, NRVS
   Peter Pinski           : DLPNO-MP2, DLPNO-MP2 Gradient
   Christoph Reimann      : Effective Core Potentials
   Marius Retegan         : Local ZFS, SOC
   Christoph Riplinger    : Optimizer, TS searches, QM/MM, DLPNO-CCSD(T), (RO)-DLPNO pert. Triples
   Tobias Risthaus        : Range-separated hybrids, TD-DFT gradient, RPA, STAB
   Michael Roemelt        : Original ROCIS implementation
   Masaaki Saitow         : Open-shell DLPNO-CCSD energy and density
   Barbara Sandhoefer     : DKH picture change effects
   Avijit Sen             : IP-ROCIS
   Kantharuban Sivalingam : CASSCF convergence, NEVPT2, FIC-MRCI
   Bernardo de Souza      : ESD, SOC TD-DFT
   Georgi Stoychev        : AutoAux, RI-MP2 NMR, DLPNO-MP2 response
   Willem Van den Heuvel  : Paramagnetic NMR
   Boris Wezisla          : Elementary symmetry handling
   Frank Wennmohs         : Technical directorship


 We gratefully acknowledge several colleagues who have allowed us to
 interface, adapt or use parts of their codes:
   Stefan Grimme, W. Hujo, H. Kruse, P. Pracht,  : VdW corrections, initial TS optimization,
                  C. Bannwarth, S. Ehlert          DFT functionals, gCP, sTDA/sTD-DF
   Ed Valeev, F. Pavosevic, A. Kumar             : LibInt (2-el integral package), F12 methods
   Garnet Chan, S. Sharma, J. Yang, R. Olivares  : DMRG
   Ulf Ekstrom                                   : XCFun DFT Library
   Mihaly Kallay                                 : mrcc  (arbitrary order and MRCC methods)
   Jiri Pittner, Ondrej Demel                    : Mk-CCSD
   Frank Weinhold                                : gennbo (NPA and NBO analysis)
   Christopher J. Cramer and Donald G. Truhlar   : smd solvation model
   Lars Goerigk                                  : TD-DFT with DH, B97 family of functionals
   V. Asgeirsson, H. Jonsson                     : NEB implementation
   FAccTs GmbH                                   : IRC, NEB, NEB-TS, DLPNO-Multilevel, CI-OPT
                                                   MM, QMMM, 2- and 3-layer-ONIOM, Crystal-QMMM,
                                                   LR-CPCM, SF, NACMEs, symmetry and pop. for TD-DFT,
                                                   nearIR, NL-DFT gradient (VV10), updates on ESD,
                                                   ML-optimized integration grids
   S Lehtola, MJT Oliveira, MAL Marques          : LibXC Library
   Liviu Ungur et al                             : ANISO software


 Your calculation uses the libint2 library for the computation of 2-el integrals
 For citations please refer to: http://libint.valeyev.net

 Your ORCA version has been built with support for libXC version: 5.1.0
 For citations please refer to: https://tddft.org/programs/libxc/

 This ORCA versions uses:
   CBLAS   interface :  Fast vector & matrix operations
   LAPACKE interface :  Fast linear algebra routines
   SCALAPACK package :  Parallel linear algebra routines
   Shared memory     :  Shared parallel matrices
   BLAS/LAPACK       :  OpenBLAS 0.3.15  USE64BITINT DYNAMIC_ARCH NO_AFFINITY SkylakeX SINGLE_THREADED
        Core in use  :  SkylakeX
   Copyright (c) 2011-2014, The OpenBLAS Project


Your calculation utilizes the atom-pairwise dispersion correction
with the Becke-Johnson damping scheme (D3BJ)
Cite in your paper:
S.Grimme, S.Ehrlich, L.Goerigk, J Comput Chem, (2011), 32, 1456–1465 
S.Grimme, J.Antony, S.Ehrlich and H.Krieg, J.Chem.Phys., 132, (2010), 154104 
   

================================================================================

----- Orbital basis set information -----
Your calculation utilizes the basis: def2-TZVP
   F. Weigend and R. Ahlrichs, Phys. Chem. Chem. Phys. 7, 3297 (2005).

----- AuxJ basis set information -----
Your calculation utilizes the auxiliary basis: def2/J
   F. Weigend, Phys. Chem. Chem. Phys. 8, 1057 (2006).

================================================================================
                                        WARNINGS
                       Please study these warnings very carefully!
================================================================================


INFO   : the flag for use of the SHARK integral package has been found!

================================================================================
                                       INPUT FILE
================================================================================
NAME = ox_gs_D_orca0005.inp
|  1> ! engrad PBE0 D3BJ def2-TZVP  
|  2> %pal nprocs 8 end
|  3> %maxcore 3000
|  4>  
|  5> *xyz 0 1 
|  6> O   -0.7863491109644989 0.9711938280158862 -0.02613587736701498
|  7> C   -0.6833725382858096 -0.47886048741730064 -0.0016583482734380825
|  8> C   0.750473448684991 -0.43491150188348576 -0.05156003036299265
|  9> H   -1.2637077914248658 -0.5865994582751373 0.9233847036699065
| 10> H   -1.3034782175742723 -0.6795498086057149 -0.9320031536183044
| 11> H   1.2490352535547518 -0.6667054846336348 -0.9253126953545823
| 12> H   1.2359763371455785 -0.7584618731585426 0.9004435724228681
| 13> *
| 14> 
| 15>                          ****END OF INPUT****
================================================================================

                     *******************************
                     * Energy+Gradient Calculation *
                     *******************************

---------------------------------
CARTESIAN COORDINATES (ANGSTROEM)
---------------------------------
  O     -0.786349    0.971194   -0.026136
  C     -0.683373   -0.478860   -0.001658
  C      0.750473   -0.434912   -0.051560
  H     -1.263708   -0.586599    0.923385
  H     -1.303478   -0.679550   -0.932003
  H      1.249035   -0.666705   -0.925313
  H      1.235976   -0.758462    0.900444

----------------------------
CARTESIAN COORDINATES (A.U.)
----------------------------
  NO LB      ZA    FRAG     MASS         X           Y           Z
   0 O     8.0000    0    15.999   -1.485984    1.835290   -0.049390
   1 C     6.0000    0    12.011   -1.291387   -0.904915   -0.003134
   2 C     6.0000    0    12.011    1.418189   -0.821864   -0.097434
   3 H     1.0000    0     1.008   -2.388062   -1.108512    1.744944
   4 H     1.0000    0     1.008   -2.463217   -1.284163   -1.761231
   5 H     1.0000    0     1.008    2.360335   -1.259891   -1.748588
   6 H     1.0000    0     1.008    2.335657   -1.433285    1.701592

--------------------------------
INTERNAL COORDINATES (ANGSTROEM)
--------------------------------
 O      0   0   0     0.000000000000     0.00000000     0.00000000
 C      1   0   0     1.453912253768     0.00000000     0.00000000
 C      2   1   0     1.435387057750    92.27116467     0.00000000
 H      2   1   3     1.097315515167    94.28156427   124.44355419
 H      2   1   3     1.135935171547    97.10865237   237.88271078
 H      3   2   1     1.032344924574   120.32952085   254.95460934
 H      3   2   1     1.116561130065   113.31830837   110.30813860

---------------------------
INTERNAL COORDINATES (A.U.)
---------------------------
 O      0   0   0     0.000000000000     0.00000000     0.00000000
 C      1   0   0     2.747495982374     0.00000000     0.00000000
 C      2   1   0     2.712488435323    92.27116467     0.00000000
 H      2   1   3     2.073625806168    94.28156427   124.44355419
 H      2   1   3     2.146606380112    97.10865237   237.88271078
 H      3   2   1     1.950849183189   120.32952085   254.95460934
 H      3   2   1     2.109994747605   113.31830837   110.30813860

---------------------
BASIS SET INFORMATION
---------------------
There are 3 groups of distinct atoms

 Group   1 Type O   : 11s6p2d1f contracted to 5s3p2d1f pattern {62111/411/11/1}
 Group   2 Type C   : 11s6p2d1f contracted to 5s3p2d1f pattern {62111/411/11/1}
 Group   3 Type H   : 5s1p contracted to 3s1p pattern {311/1}

Atom   0O    basis set group =>   1
Atom   1C    basis set group =>   2
Atom   2C    basis set group =>   2
Atom   3H    basis set group =>   3
Atom   4H    basis set group =>   3
Atom   5H    basis set group =>   3
Atom   6H    basis set group =>   3
---------------------------------
AUXILIARY/J BASIS SET INFORMATION
---------------------------------
There are 3 groups of distinct atoms

 Group   1 Type O   : 12s5p4d2f1g contracted to 6s4p3d1f1g pattern {711111/2111/211/2/1}
 Group   2 Type C   : 12s5p4d2f1g contracted to 6s4p3d1f1g pattern {711111/2111/211/2/1}
 Group   3 Type H   : 5s2p1d contracted to 3s1p1d pattern {311/2/1}

Atom   0O    basis set group =>   1
Atom   1C    basis set group =>   2
Atom   2C    basis set group =>   2
Atom   3H    basis set group =>   3
Atom   4H    basis set group =>   3
Atom   5H    basis set group =>   3
Atom   6H    basis set group =>   3


           ************************************************************
           *        Program running with 8 parallel MPI-processes     *
           *              working on a common directory               *
           ************************************************************
------------------------------------------------------------------------------
                           ORCA GTO INTEGRAL CALCULATION
                           -- RI-GTO INTEGRALS CHOSEN --
------------------------------------------------------------------------------
------------------------------------------------------------------------------
                   ___                                                        
                  /   \      - P O W E R E D   B Y -                         
                 /     \                                                     
                 |  |  |   _    _      __       _____    __    __             
                 |  |  |  | |  | |    /  \     |  _  \  |  |  /  |          
                  \  \/   | |  | |   /    \    | | | |  |  | /  /          
                 / \  \   | |__| |  /  /\  \   | |_| |  |  |/  /          
                |  |  |   |  __  | /  /__\  \  |    /   |      \           
                |  |  |   | |  | | |   __   |  |    \   |  |\   \          
                \     /   | |  | | |  |  |  |  | |\  \  |  | \   \       
                 \___/    |_|  |_| |__|  |__|  |_| \__\ |__|  \__/        
                                                                              
                      - O R C A' S   B I G   F R I E N D -                    
                                      &                                       
                       - I N T E G R A L  F E E D E R -                       
                                                                              
 v1 FN, 2020, v2 2021                                                         
------------------------------------------------------------------------------


Reading SHARK input file ox_gs_D_orca0005.SHARKINP.tmp ... ok
----------------------
SHARK INTEGRAL PACKAGE
----------------------

Number of atoms                             ...      7
Number of basis functions                   ...    117
Number of shells                            ...     49
Maximum angular momentum                    ...      3
Integral batch strategy                     ... SHARK/LIBINT Hybrid
RI-J (if used) integral strategy            ... SPLIT-RIJ (Revised 2003 algorithm where possible)
Printlevel                                  ...      1
Contraction scheme used                     ... SEGMENTED contraction
Coulomb Range Separation                    ... NOT USED
Exchange Range Separation                   ... NOT USED
Finite Nucleus Model                        ... NOT USED
Auxiliary Coulomb fitting basis             ... AVAILABLE
   # of basis functions in Aux-J            ...    191
   # of shells in Aux-J                     ...     65
   Maximum angular momentum in Aux-J        ...      4
Auxiliary J/K fitting basis                 ... NOT available
Auxiliary Correlation fitting basis         ... NOT available
Auxiliary 'external' fitting basis          ... NOT available
Integral threshold                          ...     2.500000e-11
Primitive cut-off                           ...     2.500000e-12
Primitive pair pre-selection threshold      ...     2.500000e-12

Calculating pre-screening integrals         ... done (  0.0 sec) Dimension = 49
Organizing shell pair data                  ... done (  0.0 sec)
Shell pair information
Total number of shell pairs                 ...      1225
Shell pairs after pre-screening             ...      1213
Total number of primitive shell pairs       ...      3648
Primitive shell pairs kept                  ...      3086
          la=0 lb=0:    367 shell pairs
          la=1 lb=0:    351 shell pairs
          la=1 lb=1:     91 shell pairs
          la=2 lb=0:    161 shell pairs
          la=2 lb=1:     78 shell pairs
          la=2 lb=2:     21 shell pairs
          la=3 lb=0:     81 shell pairs
          la=3 lb=1:     39 shell pairs
          la=3 lb=2:     18 shell pairs
          la=3 lb=3:      6 shell pairs

Calculating one electron integrals          ... done (  0.0 sec)
Calculating RI/J V-Matrix + Cholesky decomp.... done (  0.0 sec)
Calculating Nuclear repulsion               ... done (  0.0 sec) ENN=     69.111147497542 Eh

SHARK setup successfully completed in   0.1 seconds

Maximum memory used throughout the entire GTOINT-calculation: 14.9 MB


           ************************************************************
           *        Program running with 8 parallel MPI-processes     *
           *              working on a common directory               *
           ************************************************************
-------------------------------------------------------------------------------
                                 ORCA SCF
-------------------------------------------------------------------------------

------------
SCF SETTINGS
------------
Hamiltonian:
 Density Functional     Method          .... DFT(GTOs)
 Exchange Functional    Exchange        .... PBE
   PBE kappa parameter   XKappa         ....  0.804000
   PBE mue parameter    XMuePBE         ....  0.219520
 Correlation Functional Correlation     .... PBE
   PBE beta parameter  CBetaPBE         ....  0.066725
 LDA part of GGA corr.  LDAOpt          .... PW91-LDA
 Gradients option       PostSCFGGA      .... off
 Hybrid DFT is turned on
   Fraction HF Exchange ScalHFX         ....  0.250000
   Scaling of DF-GGA-X  ScalDFX         ....  0.750000
   Scaling of DF-GGA-C  ScalDFC         ....  1.000000
   Scaling of DF-LDA-C  ScalLDAC        ....  1.000000
   Perturbative correction              ....  0.000000
   Density functional embedding theory  .... OFF
   NL short-range parameter             ....  6.900000
 RI-approximation to the Coulomb term is turned on
   Number of AuxJ basis functions       .... 191
   RIJ-COSX (HFX calculated with COS-X)).... on


General Settings:
 Integral files         IntName         .... ox_gs_D_orca0005
 Hartree-Fock type      HFTyp           .... RHF
 Total Charge           Charge          ....    0
 Multiplicity           Mult            ....    1
 Number of Electrons    NEL             ....   24
 Basis Dimension        Dim             ....  117
 Nuclear Repulsion      ENuc            ....     69.1111474975 Eh

Convergence Acceleration:
 DIIS                   CNVDIIS         .... on
   Start iteration      DIISMaxIt       ....    12
   Startup error        DIISStart       ....  0.200000
   # of expansion vecs  DIISMaxEq       ....     5
   Bias factor          DIISBfac        ....   1.050
   Max. coefficient     DIISMaxC        ....  10.000
 Trust-Rad. Augm. Hess. CNVTRAH         .... auto
   Auto Start mean grad. ratio tolernc. ....  1.125000
   Auto Start start iteration           ....    20
   Auto Start num. interpolation iter.  ....    10
   Max. Number of Micro iterations      ....    16
   Max. Number of Macro iterations      .... Maxiter - #DIIS iter
   Number of Davidson start vectors     ....     2
   Converg. threshold I  (grad. norm)   ....   1.000e-05
   Converg. threshold II (energy diff.) ....   1.000e-08
   Grad. Scal. Fac. for Micro threshold ....   0.100
   Minimum threshold for Micro iter.    ....   0.010
   NR start threshold (gradient norm)   ....   0.001
   Initial trust radius                 ....   0.400
   Minimum AH scaling param. (alpha)    ....   1.000
   Maximum AH scaling param. (alpha)    .... 1000.000
   Orbital update algorithm             .... Taylor
   White noise on init. David. guess    .... on
   Maximum white noise                  ....   0.010
   Quad. conv. algorithm                .... NR
 SOSCF                  CNVSOSCF        .... on
   Start iteration      SOSCFMaxIt      ....   150
   Startup grad/error   SOSCFStart      ....  0.003300
 Level Shifting         CNVShift        .... on
   Level shift para.    LevelShift      ....    0.2500
   Turn off err/grad.   ShiftErr        ....    0.0010
 Zerner damping         CNVZerner       .... off
 Static damping         CNVDamp         .... on
   Fraction old density DampFac         ....    0.7000
   Max. Damping (<1)    DampMax         ....    0.9800
   Min. Damping (>=0)   DampMin         ....    0.0000
   Turn off err/grad.   DampErr         ....    0.1000
 Fernandez-Rico         CNVRico         .... off

SCF Procedure:
 Maximum # iterations   MaxIter         ....   125
 SCF integral mode      SCFMode         .... Direct
   Integral package                     .... SHARK and LIBINT hybrid scheme
 Reset frequency        DirectResetFreq ....    20
 Integral Threshold     Thresh          ....  2.500e-11 Eh
 Primitive CutOff       TCut            ....  2.500e-12 Eh

Convergence Tolerance:
 Convergence Check Mode ConvCheckMode   .... Total+1el-Energy
 Convergence forced     ConvForced      .... 0
 Energy Change          TolE            ....  1.000e-08 Eh
 1-El. energy change                    ....  1.000e-05 Eh
 Orbital Gradient       TolG            ....  1.000e-05
 Orbital Rotation angle TolX            ....  1.000e-05
 DIIS Error             TolErr          ....  5.000e-07


Diagonalization of the overlap matrix:
Smallest eigenvalue                        ... 3.834e-04
Time for diagonalization                   ...    0.001 sec
Threshold for overlap eigenvalues          ... 1.000e-08
Number of eigenvalues below threshold      ... 0
Time for construction of square roots      ...    0.001 sec
Total time needed                          ...    0.003 sec

Time for model grid setup =    0.022 sec

------------------------------
INITIAL GUESS: MODEL POTENTIAL
------------------------------
Loading Hartree-Fock densities                     ... done
Calculating cut-offs                               ... done
Initializing the effective Hamiltonian             ... done
Setting up the integral package (SHARK)            ... done
Starting the Coulomb interaction                   ... done (   0.0 sec)
Reading the grid                                   ... done
Mapping shells                                     ... done
Starting the XC term evaluation                    ... done (   0.0 sec)
  promolecular density results
     # of electrons  =     23.998379919
     EX              =    -19.457066372
     EC              =     -0.766754809
     EX+EC           =    -20.223821181
Transforming the Hamiltonian                       ... done (   0.0 sec)
Diagonalizing the Hamiltonian                      ... done (   0.0 sec)
Back transforming the eigenvectors                 ... done (   0.0 sec)
Now organizing SCF variables                       ... done
                      ------------------
                      INITIAL GUESS DONE (   0.0 sec)
                      ------------------
-------------------
DFT GRID GENERATION
-------------------

General Integration Accuracy     IntAcc      ... 4.388
Radial Grid Type                 RadialGrid  ... OptM3 with GC (2021)
Angular Grid (max. ang.)         AngularGrid ... 4 (Lebedev-302)
Angular grid pruning method      GridPruning ... 4 (adaptive)
Weight generation scheme         WeightScheme... Becke
Basis function cutoff            BFCut       ... 1.0000e-11
Integration weight cutoff        WCut        ... 1.0000e-14
Angular grids for H and He will be reduced by one unit
Partially contracted basis set               ... off
Rotationally invariant grid construction     ... off

Total number of grid points                  ...    31325
Total number of batches                      ...      494
Average number of points per batch           ...       63
Average number of grid points per atom       ...     4475
Time for grid setup =    0.111 sec

--------------------
COSX GRID GENERATION
--------------------

GRIDX 1
-------
General Integration Accuracy     IntAcc      ... 3.816
Radial Grid Type                 RadialGrid  ... OptM3 with GC (2021)
Angular Grid (max. ang.)         AngularGrid ... 1 (Lebedev-50)
Angular grid pruning method      GridPruning ... 4 (adaptive)
Weight generation scheme         WeightScheme... Becke
Basis function cutoff            BFCut       ... 1.0000e-11
Integration weight cutoff        WCut        ... 1.0000e-14
Angular grids for H and He will be reduced by one unit
Partially contracted basis set               ... on
Rotationally invariant grid construction     ... off

Total number of grid points                  ...     4033
Total number of batches                      ...       67
Average number of points per batch           ...       60
Average number of grid points per atom       ...      576
UseSFitting                                  ... on

GRIDX 2
-------
General Integration Accuracy     IntAcc      ... 4.020
Radial Grid Type                 RadialGrid  ... OptM3 with GC (2021)
Angular Grid (max. ang.)         AngularGrid ... 2 (Lebedev-110)
Angular grid pruning method      GridPruning ... 4 (adaptive)
Weight generation scheme         WeightScheme... Becke
Basis function cutoff            BFCut       ... 1.0000e-11
Integration weight cutoff        WCut        ... 1.0000e-14
Angular grids for H and He will be reduced by one unit
Partially contracted basis set               ... on
Rotationally invariant grid construction     ... off

Total number of grid points                  ...     8719
Total number of batches                      ...      140
Average number of points per batch           ...       62
Average number of grid points per atom       ...     1246
UseSFitting                                  ... on

GRIDX 3
-------
General Integration Accuracy     IntAcc      ... 4.338
Radial Grid Type                 RadialGrid  ... OptM3 with GC (2021)
Angular Grid (max. ang.)         AngularGrid ... 3 (Lebedev-194)
Angular grid pruning method      GridPruning ... 4 (adaptive)
Weight generation scheme         WeightScheme... Becke
Basis function cutoff            BFCut       ... 1.0000e-11
Integration weight cutoff        WCut        ... 1.0000e-14
Angular grids for H and He will be reduced by one unit
Partially contracted basis set               ... on
Rotationally invariant grid construction     ... off

Total number of grid points                  ...    19240
Total number of batches                      ...      304
Average number of points per batch           ...       63
Average number of grid points per atom       ...     2749
UseSFitting                                  ... on

Time for X-Grid setup             =    0.080 sec

--------------
SCF ITERATIONS
--------------
ITER       Energy         Delta-E        Max-DP      RMS-DP      [F,P]     Damp
               ***  Starting incremental Fock matrix formation  ***
  0   -153.4198465399   0.000000000000 0.07562266  0.00215064  0.3021185 0.7000
  1   -153.4909002391  -0.071053699116 0.04472171  0.00122281  0.0845177 0.7000
                               ***Turning on DIIS***
  2   -153.5044833030  -0.013583063971 0.03766995  0.00151932  0.0503617 0.0000
  3   -153.5478125757  -0.043329272620 0.02519260  0.00103874  0.0352443 0.0000
  4   -153.5497913279  -0.001978752293 0.01057050  0.00031912  0.0494599 0.0000
  5   -153.5522979382  -0.002506610299 0.00293936  0.00009104  0.0106257 0.0000
  6   -153.5524268629  -0.000128924664 0.00143443  0.00003731  0.0043791 0.0000
                      *** Initiating the SOSCF procedure ***
                           *** Shutting down DIIS ***
                      *** Re-Reading the Fockian *** 
                      *** Removing any level shift *** 
ITER      Energy       Delta-E        Grad      Rot      Max-DP    RMS-DP
  7   -153.55244536  -0.0000184924  0.000374  0.000374  0.000929  0.000032
               *** Restarting incremental Fock matrix formation ***
  8   -153.55243922   0.0000061359  0.000365  0.002238  0.001294  0.000036
  9   -153.55242806   0.0000111565  0.001520  0.002048  0.001169  0.000028
 10   -153.55244047  -0.0000124103  0.000080  0.000159  0.000125  0.000005
 11   -153.55244046   0.0000000111  0.000087  0.000064  0.000063  0.000002
 12   -153.55244056  -0.0000000966  0.000009  0.000077  0.000025  0.000001
 13   -153.55244056  -0.0000000024  0.000005  0.000082  0.000026  0.000001
                  ***Gradient check signals convergence***
              ***Rediagonalizing the Fockian in SOSCF/NRSCF***

               *****************************************************
               *                     SUCCESS                       *
               *           SCF CONVERGED AFTER  14 CYCLES          *
               *****************************************************

Old exchange energy                            =     -4.955273079 Eh
New exchange energy                            =     -4.955283069 Eh
Exchange energy change after final integration =     -0.000009990 Eh
Total energy after final integration           =   -153.552450552 Eh
Final COS-X integration done in                =     0.308 sec

----------------
TOTAL SCF ENERGY
----------------

Total Energy       :         -153.55245055 Eh           -4178.37460 eV

Components:
Nuclear Repulsion  :           69.11114750 Eh            1880.60993 eV
Electronic Energy  :         -222.66359805 Eh           -6058.98454 eV
One Electron Energy:         -345.04321515 Eh           -9389.10322 eV
Two Electron Energy:          122.37961710 Eh            3330.11868 eV
Max COSX asymmetry :            0.00000081 Eh               0.00002 eV

Virial components:
Potential Energy   :         -306.29459605 Eh           -8334.69969 eV
Kinetic Energy     :          152.74214550 Eh            4156.32508 eV
Virial Ratio       :            2.00530505


DFT components:
N(Alpha)           :       12.000004141501 electrons
N(Beta)            :       12.000004141501 electrons
N(Total)           :       24.000008283003 electrons
E(X)               :      -14.876515964230 Eh       
E(C)               :       -0.773087953634 Eh       
E(XC)              :      -15.649603917864 Eh       
DFET-embed. en.    :        0.000000000000 Eh       

---------------
SCF CONVERGENCE
---------------

  Last Energy change         ...   -1.1828e-09  Tolerance :   1.0000e-08
  Last MAX-Density change    ...    1.1102e-15  Tolerance :   1.0000e-07
  Last RMS-Density change    ...    2.0533e-17  Tolerance :   5.0000e-09
  Last Orbital Gradient      ...    2.4788e-06  Tolerance :   1.0000e-05
  Last Orbital Rotation      ...    4.6541e-06  Tolerance :   1.0000e-05

             **** THE GBW FILE WAS UPDATED (ox_gs_D_orca0005.gbw) ****
             **** DENSITY ox_gs_D_orca0005.scfp WAS UPDATED ****
             **** ENERGY FILE WAS UPDATED (ox_gs_D_orca0005.en.tmp) ****
             **** THE GBW FILE WAS UPDATED (ox_gs_D_orca0005.gbw) ****
             **** DENSITY ox_gs_D_orca0005.scfp WAS UPDATED ****
----------------
ORBITAL ENERGIES
----------------

  NO   OCC          E(Eh)            E(eV) 
   0   2.0000     -19.207686      -522.6677 
   1   2.0000     -10.312204      -280.6093 
   2   2.0000     -10.273885      -279.5666 
   3   2.0000      -0.996858       -27.1259 
   4   2.0000      -0.773311       -21.0429 
   5   2.0000      -0.624410       -16.9911 
   6   2.0000      -0.521467       -14.1898 
   7   2.0000      -0.487567       -13.2674 
   8   2.0000      -0.419012       -11.4019 
   9   2.0000      -0.390225       -10.6186 
  10   2.0000      -0.287053        -7.8111 
  11   2.0000      -0.259695        -7.0667 
  12   0.0000      -0.124010        -3.3745 
  13   0.0000       0.053998         1.4694 
  14   0.0000       0.079465         2.1624 
  15   0.0000       0.084121         2.2891 
  16   0.0000       0.116946         3.1823 
  17   0.0000       0.148037         4.0283 
  18   0.0000       0.181559         4.9405 
  19   0.0000       0.200105         5.4451 
  20   0.0000       0.236344         6.4312 
  21   0.0000       0.253660         6.9024 
  22   0.0000       0.268434         7.3045 
  23   0.0000       0.323897         8.8137 
  24   0.0000       0.336903         9.1676 
  25   0.0000       0.372389        10.1332 
  26   0.0000       0.408175        11.1070 
  27   0.0000       0.418147        11.3784 
  28   0.0000       0.441578        12.0160 
  29   0.0000       0.492717        13.4075 
  30   0.0000       0.511989        13.9319 
  31   0.0000       0.545739        14.8503 
  32   0.0000       0.563874        15.3438 
  33   0.0000       0.611694        16.6451 
  34   0.0000       0.691390        18.8137 
  35   0.0000       0.745526        20.2868 
  36   0.0000       0.784617        21.3505 
  37   0.0000       0.846380        23.0312 
  38   0.0000       0.858670        23.3656 
  39   0.0000       0.933182        25.3932 
  40   0.0000       0.937844        25.5200 
  41   0.0000       1.031738        28.0750 
  42   0.0000       1.077381        29.3170 
  43   0.0000       1.079246        29.3678 
  44   0.0000       1.172117        31.8949 
  45   0.0000       1.315917        35.8079 
  46   0.0000       1.400794        38.1175 
  47   0.0000       1.449370        39.4394 
  48   0.0000       1.500137        40.8208 
  49   0.0000       1.514533        41.2125 
  50   0.0000       1.581214        43.0270 
  51   0.0000       1.598369        43.4938 
  52   0.0000       1.630738        44.3746 
  53   0.0000       1.679021        45.6885 
  54   0.0000       1.724243        46.9190 
  55   0.0000       1.799047        48.9546 
  56   0.0000       1.817087        49.4455 
  57   0.0000       1.832487        49.8645 
  58   0.0000       1.882831        51.2344 
  59   0.0000       1.889962        51.4285 
  60   0.0000       2.004495        54.5451 
  61   0.0000       2.032096        55.2961 
  62   0.0000       2.162751        58.8515 
  63   0.0000       2.229001        60.6542 
  64   0.0000       2.319103        63.1060 
  65   0.0000       2.354316        64.0642 
  66   0.0000       2.403698        65.4079 
  67   0.0000       2.441071        66.4249 
  68   0.0000       2.469176        67.1897 
  69   0.0000       2.523542        68.6691 
  70   0.0000       2.535706        69.0001 
  71   0.0000       2.611567        71.0644 
  72   0.0000       2.647093        72.0311 
  73   0.0000       2.654116        72.2222 
  74   0.0000       2.748261        74.7840 
  75   0.0000       2.808363        76.4194 
  76   0.0000       2.879933        78.3670 
  77   0.0000       2.962473        80.6130 
  78   0.0000       2.970664        80.8359 
  79   0.0000       2.997894        81.5768 
  80   0.0000       3.088349        84.0382 
  81   0.0000       3.103456        84.4493 
  82   0.0000       3.112950        84.7077 
  83   0.0000       3.141259        85.4780 
  84   0.0000       3.164190        86.1020 
  85   0.0000       3.196958        86.9936 
  86   0.0000       3.338345        90.8410 
  87   0.0000       3.367065        91.6225 
  88   0.0000       3.455984        94.0421 
  89   0.0000       3.498093        95.1879 
  90   0.0000       3.526262        95.9545 
  91   0.0000       3.639949        99.0480 
  92   0.0000       3.715533       101.1048 
  93   0.0000       3.886936       105.7689 
  94   0.0000       4.033836       109.7663 
  95   0.0000       4.116247       112.0088 
  96   0.0000       4.129530       112.3702 
  97   0.0000       4.292498       116.8048 
  98   0.0000       4.390851       119.4811 
  99   0.0000       4.522797       123.0716 
 100   0.0000       4.574826       124.4873 
 101   0.0000       4.735500       128.8595 
 102   0.0000       5.203355       141.5905 
 103   0.0000       5.250778       142.8809 
 104   0.0000       5.360125       145.8564 
 105   0.0000       5.384687       146.5248 
 106   0.0000       5.710311       155.3855 
 107   0.0000       5.732261       155.9827 
 108   0.0000       5.896009       160.4386 
 109   0.0000       6.368804       173.3040 
 110   0.0000       6.433225       175.0569 
 111   0.0000       6.770822       184.2434 
 112   0.0000       6.807630       185.2450 
 113   0.0000       6.967536       189.5963 
 114   0.0000      22.129346       602.1701 
 115   0.0000      22.403160       609.6210 
 116   0.0000      43.720721      1189.7013 

                    ********************************
                    * MULLIKEN POPULATION ANALYSIS *
                    ********************************

-----------------------
MULLIKEN ATOMIC CHARGES
-----------------------
   0 O :   -0.371094
   1 C :   -0.069330
   2 C :   -0.129921
   3 H :    0.135202
   4 H :    0.119746
   5 H :    0.159697
   6 H :    0.155700
Sum of atomic charges:    0.0000000

--------------------------------
MULLIKEN REDUCED ORBITAL CHARGES
--------------------------------
  0 O s       :     3.917237  s :     3.917237
      pz      :     1.925065  p :     4.430020
      px      :     1.239102
      py      :     1.265853
      dz2     :     0.003177  d :     0.022663
      dxz     :     0.000248
      dyz     :     0.004958
      dx2y2   :     0.008185
      dxy     :     0.006096
      f0      :     0.000134  f :     0.001174
      f+1     :     0.000062
      f-1     :     0.000288
      f+2     :     0.000145
      f-2     :     0.000022
      f+3     :     0.000241
      f-3     :     0.000284
  1 C s       :     3.198302  s :     3.198302
      pz      :     1.080205  p :     2.709551
      px      :     0.910732
      py      :     0.718614
      dz2     :     0.010979  d :     0.151638
      dxz     :     0.022298
      dyz     :     0.042593
      dx2y2   :     0.023702
      dxy     :     0.052066
      f0      :     0.001672  f :     0.009840
      f+1     :     0.001239
      f-1     :     0.000680
      f+2     :     0.003027
      f-2     :     0.000066
      f+3     :     0.002246
      f-3     :     0.000908
  2 C s       :     3.278308  s :     3.278308
      pz      :     1.040450  p :     2.792284
      px      :     1.000898
      py      :     0.750936
      dz2     :     0.006320  d :     0.054410
      dxz     :     0.021344
      dyz     :     0.005206
      dx2y2   :     0.006267
      dxy     :     0.015273
      f0      :     0.000551  f :     0.004919
      f+1     :     0.001010
      f-1     :     0.000181
      f+2     :     0.000731
      f-2     :     0.000292
      f+3     :     0.000843
      f-3     :     0.001312
  3 H s       :     0.842857  s :     0.842857
      pz      :     0.010396  p :     0.021942
      px      :     0.006617
      py      :     0.004929
  4 H s       :     0.860316  s :     0.860316
      pz      :     0.009508  p :     0.019937
      px      :     0.006352
      py      :     0.004077
  5 H s       :     0.815899  s :     0.815899
      pz      :     0.011668  p :     0.024403
      px      :     0.007631
      py      :     0.005104
  6 H s       :     0.822575  s :     0.822575
      pz      :     0.011079  p :     0.021725
      px      :     0.006057
      py      :     0.004589


                     *******************************
                     * LOEWDIN POPULATION ANALYSIS *
                     *******************************

----------------------
LOEWDIN ATOMIC CHARGES
----------------------
   0 O :   -0.066566
   1 C :   -0.424975
   2 C :   -0.028862
   3 H :    0.127950
   4 H :    0.129337
   5 H :    0.116384
   6 H :    0.146731

-------------------------------
LOEWDIN REDUCED ORBITAL CHARGES
-------------------------------
  0 O s       :     3.586861  s :     3.586861
      pz      :     1.856383  p :     4.425463
      px      :     1.193947
      py      :     1.375132
      dz2     :     0.006699  d :     0.051005
      dxz     :     0.000261
      dyz     :     0.013581
      dx2y2   :     0.016861
      dxy     :     0.013604
      f0      :     0.000333  f :     0.003237
      f+1     :     0.000091
      f-1     :     0.000533
      f+2     :     0.000640
      f-2     :     0.000013
      f+3     :     0.000945
      f-3     :     0.000682
  1 C s       :     2.839971  s :     2.839971
      pz      :     1.053692  p :     2.937354
      px      :     1.054029
      py      :     0.829633
      dz2     :     0.064497  d :     0.578732
      dxz     :     0.116552
      dyz     :     0.109037
      dx2y2   :     0.128991
      dxy     :     0.159655
      f0      :     0.009848  f :     0.068919
      f+1     :     0.005901
      f-1     :     0.006714
      f+2     :     0.016764
      f-2     :     0.000994
      f+3     :     0.015769
      f-3     :     0.012929
  2 C s       :     2.887358  s :     2.887358
      pz      :     1.070416  p :     2.873866
      px      :     1.119772
      py      :     0.683678
      dz2     :     0.032628  d :     0.240611
      dxz     :     0.104895
      dyz     :     0.015838
      dx2y2   :     0.040747
      dxy     :     0.046502
      f0      :     0.003696  f :     0.027028
      f+1     :     0.003708
      f-1     :     0.001578
      f+2     :     0.004429
      f-2     :     0.002059
      f+3     :     0.004752
      f-3     :     0.006805
  3 H s       :     0.810640  s :     0.810640
      pz      :     0.030681  p :     0.061409
      px      :     0.017685
      py      :     0.013044
  4 H s       :     0.816291  s :     0.816291
      pz      :     0.027419  p :     0.054372
      px      :     0.016344
      py      :     0.010609
  5 H s       :     0.808834  s :     0.808834
      pz      :     0.037525  p :     0.074782
      px      :     0.022012
      py      :     0.015244
  6 H s       :     0.792847  s :     0.792847
      pz      :     0.031861  p :     0.060422
      px      :     0.015948
      py      :     0.012613


                      *****************************
                      * MAYER POPULATION ANALYSIS *
                      *****************************

  NA   - Mulliken gross atomic population
  ZA   - Total nuclear charge
  QA   - Mulliken gross atomic charge
  VA   - Mayer's total valence
  BVA  - Mayer's bonded valence
  FA   - Mayer's free valence

  ATOM       NA         ZA         QA         VA         BVA        FA
  0 O      8.3711     8.0000    -0.3711     1.7955     1.7955     0.0000
  1 C      6.0693     6.0000    -0.0693     3.9769     3.9769     0.0000
  2 C      6.1299     6.0000    -0.1299     3.8494     3.8494     0.0000
  3 H      0.8648     1.0000     0.1352     0.9778     0.9778     0.0000
  4 H      0.8803     1.0000     0.1197     0.9723     0.9723     0.0000
  5 H      0.8403     1.0000     0.1597     0.9610     0.9610     0.0000
  6 H      0.8443     1.0000     0.1557     0.9624     0.9624     0.0000

  Mayer bond orders larger than 0.100000
B(  0-O ,  1-C ) :   0.9320 B(  0-O ,  2-C ) :   0.8609 B(  1-C ,  2-C ) :   1.0925 
B(  1-C ,  3-H ) :   0.9781 B(  1-C ,  4-H ) :   0.9646 B(  2-C ,  5-H ) :   0.9477 
B(  2-C ,  6-H ) :   0.9452 

-------
TIMINGS
-------

Total SCF time: 0 days 0 hours 0 min 3 sec 

Total time                  ....       3.572 sec
Sum of individual times     ....       3.265 sec  ( 91.4%)

Fock matrix formation       ....       2.972 sec  ( 83.2%)
  Split-RI-J                ....       0.310 sec  ( 10.4% of F)
  Chain of spheres X        ....       2.058 sec  ( 69.3% of F)
  XC integration            ....       0.572 sec  ( 19.2% of F)
    Basis function eval.    ....       0.158 sec  ( 27.7% of XC)
    Density eval.           ....       0.116 sec  ( 20.4% of XC)
    XC-Functional eval.     ....       0.034 sec  (  6.0% of XC)
    XC-Potential eval.      ....       0.191 sec  ( 33.5% of XC)
Diagonalization             ....       0.022 sec  (  0.6%)
Density matrix formation    ....       0.002 sec  (  0.1%)
Population analysis         ....       0.003 sec  (  0.1%)
Initial guess               ....       0.017 sec  (  0.5%)
Orbital Transformation      ....       0.000 sec  (  0.0%)
Orbital Orthonormalization  ....       0.000 sec  (  0.0%)
DIIS solution               ....       0.018 sec  (  0.5%)
SOSCF solution              ....       0.018 sec  (  0.5%)
Grid generation             ....       0.213 sec  (  6.0%)

Maximum memory used throughout the entire SCF-calculation: 61.0 MB


-------------------------------------------------------------------------------
                          DFT DISPERSION CORRECTION                            
                                                                               
                              DFTD3 V3.1  Rev 1                                
                          USING Becke-Johnson damping                          
-------------------------------------------------------------------------------
The PBE0 functional is recognized
Active option DFTDOPT                   ...         4   

molecular C6(AA) [au] = 393.473600 


            DFT-D V3
 parameters
 s6 scaling factor         :     1.0000 
 a1 scaling factor         :     0.4145 
 s8 scaling factor         :     1.2177 
 a2 scaling factor         :     4.8593 
 ad hoc parameters k1-k3   :    16.0000     1.3333    -4.0000 

 Edisp/kcal,au: -1.652860817398  -0.002634001094 
 E6   /kcal   :  -1.078960436 
 E8   /kcal   :  -0.573900381 
 % E8         :  34.721639899 

-------------------------   ----------------
Dispersion correction           -0.002634001
-------------------------   ----------------


-------------------------   --------------------
FINAL SINGLE POINT ENERGY      -153.555084553463
-------------------------   --------------------



           ************************************************************
           *        Program running with 8 parallel MPI-processes     *
           *              working on a common directory               *
           ************************************************************
------------------------------------------------------------------------------
                         ORCA SCF GRADIENT CALCULATION
------------------------------------------------------------------------------

 ... reading COSX grid (gridx3)
Gradient of the Kohn-Sham DFT energy:
Kohn-Sham wavefunction type      ... RKS
Hartree-Fock exchange scaling    ...    0.250
Number of operators              ...    1
Number of atoms                  ...    7
Basis set dimensions             ...  117
Integral neglect threshold       ... 2.5e-11
Integral primitive cutoff        ... 2.5e-12
SHARK Integral package           ... ON

Nuc. rep. gradient       (SHARK) ... done (  0.0 sec)
HCore & Overlap gradient (SHARK) ... done (  0.0 sec)
RI-J gradient            (SHARK) ... done (  0.1 sec)
COSX-gradient                    ... done (  0.4 sec)
Exchange-correlation gradient    ... done
Dispersion correction            ... done

------------------
CARTESIAN GRADIENT
------------------

   1   O   :   -0.083992163    0.011216472    0.004041672
   2   C   :    0.081714932   -0.034359919    0.024518072
   3   C   :    0.053320510    0.000882753   -0.061234377
   4   H   :   -0.013738973    0.036155266    0.000773989
   5   H   :   -0.021201703    0.024807360   -0.020587068
   6   H   :   -0.018362440   -0.011521940    0.038870412
   7   H   :    0.002178913   -0.027184497    0.013577527

Difference to translation invariance:
           :   -0.0000809252   -0.0000045069   -0.0000397723

Difference to rotation invariance:
           :   -0.0000519281    0.0000687351    0.0002695075

Norm of the cartesian gradient     ...    0.1677606816
RMS gradient                       ...    0.0366083820
MAX gradient                       ...    0.0839921634

-------
TIMINGS
-------

Total SCF gradient time            ...        0.791 sec

One electron gradient       ....       0.010 sec  (  1.3%)
RI-J Coulomb gradient       ....       0.085 sec  ( 10.7%)
COSX gradient               ....       0.364 sec  ( 46.0%)
XC gradient                 ....       0.175 sec  ( 22.2%)

Maximum memory used throughout the entire SCFGRAD-calculation: 35.8 MB

                            ***************************************
                            *     ORCA property calculations      *
                            ***************************************

                                    ---------------------
                                    Active property flags
                                    ---------------------
   (+) Dipole Moment


------------------------------------------------------------------------------
                       ORCA ELECTRIC PROPERTIES CALCULATION
------------------------------------------------------------------------------

Dipole Moment Calculation                       ... on
Quadrupole Moment Calculation                   ... off
Polarizability Calculation                      ... off
GBWName                                         ... ox_gs_D_orca0005.gbw
Electron density                                ... ox_gs_D_orca0005.scfp
The origin for moment calculation is the CENTER OF MASS  = (-0.508655,  0.079357 -0.046805)

-------------
DIPOLE MOMENT
-------------
                                X             Y             Z
Electronic contribution:     -0.36182       1.49541      -0.05003
Nuclear contribution   :      0.92537      -2.66878       0.06151
                        -----------------------------------------
Total Dipole Moment    :      0.56355      -1.17337       0.01148
                        -----------------------------------------
Magnitude (a.u.)       :      1.30174
Magnitude (Debye)      :      3.30875



--------------------
Rotational spectrum 
--------------------
 
Rotational constants in cm-1:     1.114134     0.431066     0.355625 
Rotational constants in MHz : 33400.890240 12923.048534 10661.354684 

 Dipole components along the rotational axes: 
x,y,z [a.u.] :     1.191714    -0.523764     0.002097 
x,y,z [Debye]:     3.029097    -1.331302     0.005329 

 

Timings for individual modules:

Sum of individual times         ...        5.032 sec (=   0.084 min)
GTO integral calculation        ...        0.301 sec (=   0.005 min)   6.0 %
SCF iterations                  ...        3.744 sec (=   0.062 min)  74.4 %
SCF Gradient evaluation         ...        0.987 sec (=   0.016 min)  19.6 %
                             ****ORCA TERMINATED NORMALLY****
TOTAL RUN TIME: 0 days 0 hours 0 minutes 5 seconds 356 msec
