
                                 *****************
                                 * O   R   C   A *
                                 *****************

                                            #,                                       
                                            ###                                      
                                            ####                                     
                                            #####                                    
                                            ######                                   
                                           ########,                                 
                                     ,,################,,,,,                         
                               ,,#################################,,                 
                          ,,##########################################,,             
                       ,#########################################, ''#####,          
                    ,#############################################,,   '####,        
                  ,##################################################,,,,####,       
                ,###########''''           ''''###############################       
              ,#####''   ,,,,##########,,,,          '''####'''          '####       
            ,##' ,,,,###########################,,,                        '##       
           ' ,,###''''                  '''############,,,                           
         ,,##''                                '''############,,,,        ,,,,,,###''
      ,#''                                            '''#######################'''  
     '                                                          ''''####''''         
             ,#######,   #######,   ,#######,      ##                                
            ,#'     '#,  ##    ##  ,#'     '#,    #''#        ######   ,####,        
            ##       ##  ##   ,#'  ##            #'  '#       #        #'  '#        
            ##       ##  #######   ##           ,######,      #####,   #    #        
            '#,     ,#'  ##    ##  '#,     ,#' ,#      #,         ##   #,  ,#        
             '#######'   ##     ##  '#######'  #'      '#     #####' # '####'        



                  #######################################################
                  #                        -***-                        #
                  #          Department of theory and spectroscopy      #
                  #    Directorship and core code : Frank Neese         #
                  #        Max Planck Institute fuer Kohlenforschung    #
                  #                Kaiser Wilhelm Platz 1               #
                  #                 D-45470 Muelheim/Ruhr               #
                  #                      Germany                        #
                  #                                                     #
                  #                  All rights reserved                #
                  #                        -***-                        #
                  #######################################################


                         Program Version 5.0.2 -  RELEASE  -


 With contributions from (in alphabetic order):
   Daniel Aravena         : Magnetic Suceptibility
   Michael Atanasov       : Ab Initio Ligand Field Theory (pilot matlab implementation)
   Alexander A. Auer      : GIAO ZORA, VPT2 properties, NMR spectrum
   Ute Becker             : Parallelization
   Giovanni Bistoni       : ED, misc. LED, open-shell LED, HFLD
   Martin Brehm           : Molecular dynamics
   Dmytro Bykov           : SCF Hessian
   Vijay G. Chilkuri      : MRCI spin determinant printing, contributions to CSF-ICE
   Dipayan Datta          : RHF DLPNO-CCSD density
   Achintya Kumar Dutta   : EOM-CC, STEOM-CC
   Dmitry Ganyushin       : Spin-Orbit,Spin-Spin,Magnetic field MRCI
   Miquel Garcia          : C-PCM and meta-GGA Hessian, CC/C-PCM, Gaussian charge scheme
   Yang Guo               : DLPNO-NEVPT2, F12-NEVPT2, CIM, IAO-localization
   Andreas Hansen         : Spin unrestricted coupled pair/coupled cluster methods
   Benjamin Helmich-Paris : MC-RPA, TRAH-SCF, COSX integrals
   Lee Huntington         : MR-EOM, pCC
   Robert Izsak           : Overlap fitted RIJCOSX, COSX-SCS-MP3, EOM
   Marcus Kettner         : VPT2
   Christian Kollmar      : KDIIS, OOCD, Brueckner-CCSD(T), CCSD density, CASPT2, CASPT2-K
   Simone Kossmann        : Meta GGA functionals, TD-DFT gradient, OOMP2, MP2 Hessian
   Martin Krupicka        : Initial AUTO-CI
   Lucas Lang             : DCDCAS
   Marvin Lechner         : AUTO-CI (C++ implementation), FIC-MRCC
   Dagmar Lenk            : GEPOL surface, SMD
   Dimitrios Liakos       : Extrapolation schemes; Compound Job, initial MDCI parallelization
   Dimitrios Manganas     : Further ROCIS development; embedding schemes
   Dimitrios Pantazis     : SARC Basis sets
   Anastasios Papadopoulos: AUTO-CI, single reference methods and gradients
   Taras Petrenko         : DFT Hessian,TD-DFT gradient, ASA, ECA, R-Raman, ABS, FL, XAS/XES, NRVS
   Peter Pinski           : DLPNO-MP2, DLPNO-MP2 Gradient
   Christoph Reimann      : Effective Core Potentials
   Marius Retegan         : Local ZFS, SOC
   Christoph Riplinger    : Optimizer, TS searches, QM/MM, DLPNO-CCSD(T), (RO)-DLPNO pert. Triples
   Tobias Risthaus        : Range-separated hybrids, TD-DFT gradient, RPA, STAB
   Michael Roemelt        : Original ROCIS implementation
   Masaaki Saitow         : Open-shell DLPNO-CCSD energy and density
   Barbara Sandhoefer     : DKH picture change effects
   Avijit Sen             : IP-ROCIS
   Kantharuban Sivalingam : CASSCF convergence, NEVPT2, FIC-MRCI
   Bernardo de Souza      : ESD, SOC TD-DFT
   Georgi Stoychev        : AutoAux, RI-MP2 NMR, DLPNO-MP2 response
   Willem Van den Heuvel  : Paramagnetic NMR
   Boris Wezisla          : Elementary symmetry handling
   Frank Wennmohs         : Technical directorship


 We gratefully acknowledge several colleagues who have allowed us to
 interface, adapt or use parts of their codes:
   Stefan Grimme, W. Hujo, H. Kruse, P. Pracht,  : VdW corrections, initial TS optimization,
                  C. Bannwarth, S. Ehlert          DFT functionals, gCP, sTDA/sTD-DF
   Ed Valeev, F. Pavosevic, A. Kumar             : LibInt (2-el integral package), F12 methods
   Garnet Chan, S. Sharma, J. Yang, R. Olivares  : DMRG
   Ulf Ekstrom                                   : XCFun DFT Library
   Mihaly Kallay                                 : mrcc  (arbitrary order and MRCC methods)
   Jiri Pittner, Ondrej Demel                    : Mk-CCSD
   Frank Weinhold                                : gennbo (NPA and NBO analysis)
   Christopher J. Cramer and Donald G. Truhlar   : smd solvation model
   Lars Goerigk                                  : TD-DFT with DH, B97 family of functionals
   V. Asgeirsson, H. Jonsson                     : NEB implementation
   FAccTs GmbH                                   : IRC, NEB, NEB-TS, DLPNO-Multilevel, CI-OPT
                                                   MM, QMMM, 2- and 3-layer-ONIOM, Crystal-QMMM,
                                                   LR-CPCM, SF, NACMEs, symmetry and pop. for TD-DFT,
                                                   nearIR, NL-DFT gradient (VV10), updates on ESD,
                                                   ML-optimized integration grids
   S Lehtola, MJT Oliveira, MAL Marques          : LibXC Library
   Liviu Ungur et al                             : ANISO software


 Your calculation uses the libint2 library for the computation of 2-el integrals
 For citations please refer to: http://libint.valeyev.net

 Your ORCA version has been built with support for libXC version: 5.1.0
 For citations please refer to: https://tddft.org/programs/libxc/

 This ORCA versions uses:
   CBLAS   interface :  Fast vector & matrix operations
   LAPACKE interface :  Fast linear algebra routines
   SCALAPACK package :  Parallel linear algebra routines
   Shared memory     :  Shared parallel matrices
   BLAS/LAPACK       :  OpenBLAS 0.3.15  USE64BITINT DYNAMIC_ARCH NO_AFFINITY SkylakeX SINGLE_THREADED
        Core in use  :  SkylakeX
   Copyright (c) 2011-2014, The OpenBLAS Project


Your calculation utilizes the atom-pairwise dispersion correction
with the Becke-Johnson damping scheme (D3BJ)
Cite in your paper:
S.Grimme, S.Ehrlich, L.Goerigk, J Comput Chem, (2011), 32, 1456–1465 
S.Grimme, J.Antony, S.Ehrlich and H.Krieg, J.Chem.Phys., 132, (2010), 154104 
   

================================================================================

----- Orbital basis set information -----
Your calculation utilizes the basis: def2-TZVP
   F. Weigend and R. Ahlrichs, Phys. Chem. Chem. Phys. 7, 3297 (2005).

----- AuxJ basis set information -----
Your calculation utilizes the auxiliary basis: def2/J
   F. Weigend, Phys. Chem. Chem. Phys. 8, 1057 (2006).

================================================================================
                                        WARNINGS
                       Please study these warnings very carefully!
================================================================================


INFO   : the flag for use of the SHARK integral package has been found!

================================================================================
                                       INPUT FILE
================================================================================
NAME = ox_gs_G_orca0005.inp
|  1> ! engrad PBE0 D3BJ def2-TZVP  
|  2> %pal nprocs 8 end
|  3> %maxcore 3000
|  4>  
|  5> *xyz 0 1 
|  6> O   -1.4911584237449411 0.8184344141699287 -0.02555341392420105
|  7> C   -0.7195048714647962 -0.4079624462374166 -0.003941161803605556
|  8> C   0.714908502173482 -0.5033134834371278 -0.030033509613540146
|  9> H   -1.2508724457871538 -0.6970964389528842 0.9268392624892083
| 10> H   -1.3062237491574344 -0.7027476765450035 -0.9388053153640997
| 11> H   1.3002565468029739 -0.6842774548779222 -0.9434854681006525
| 12> H   1.3021206003901733 -0.5944101792197387 0.9497804627166908
| 13> *
| 14> 
| 15>                          ****END OF INPUT****
================================================================================

                     *******************************
                     * Energy+Gradient Calculation *
                     *******************************

---------------------------------
CARTESIAN COORDINATES (ANGSTROEM)
---------------------------------
  O     -1.491158    0.818434   -0.025553
  C     -0.719505   -0.407962   -0.003941
  C      0.714909   -0.503313   -0.030034
  H     -1.250872   -0.697096    0.926839
  H     -1.306224   -0.702748   -0.938805
  H      1.300257   -0.684277   -0.943485
  H      1.302121   -0.594410    0.949780

----------------------------
CARTESIAN COORDINATES (A.U.)
----------------------------
  NO LB      ZA    FRAG     MASS         X           Y           Z
   0 O     8.0000    0    15.999   -2.817881    1.546617   -0.048289
   1 C     6.0000    0    12.011   -1.359667   -0.770937   -0.007448
   2 C     6.0000    0    12.011    1.350981   -0.951125   -0.056755
   3 H     1.0000    0     1.008   -2.363806   -1.317321    1.751472
   4 H     1.0000    0     1.008   -2.468405   -1.328001   -1.774085
   5 H     1.0000    0     1.008    2.457129   -1.293097   -1.782929
   6 H     1.0000    0     1.008    2.460651   -1.123272    1.794825

--------------------------------
INTERNAL COORDINATES (ANGSTROEM)
--------------------------------
 O      0   0   0     0.000000000000     0.00000000     0.00000000
 C      1   0   0     1.449125789366     0.00000000     0.00000000
 C      2   1   0     1.437815828742   125.95070322     0.00000000
 H      2   1   3     1.110091060693    88.74181942   124.85998701
 H      2   1   3     1.142413392368    86.14075302   236.91634776
 H      3   2   1     1.099897619224   123.84214666   262.88449026
 H      3   2   1     1.145928477981   120.06460317    94.81273586

---------------------------
INTERNAL COORDINATES (A.U.)
---------------------------
 O      0   0   0     0.000000000000     0.00000000     0.00000000
 C      1   0   0     2.738450875504     0.00000000     0.00000000
 C      2   1   0     2.717078147340   125.95070322     0.00000000
 H      2   1   3     2.097768088425    88.74181942   124.85998701
 H      2   1   3     2.158848443299    86.14075302   236.91634776
 H      3   2   1     2.078505275686   123.84214666   262.88449026
 H      3   2   1     2.165490992446   120.06460317    94.81273586

---------------------
BASIS SET INFORMATION
---------------------
There are 3 groups of distinct atoms

 Group   1 Type O   : 11s6p2d1f contracted to 5s3p2d1f pattern {62111/411/11/1}
 Group   2 Type C   : 11s6p2d1f contracted to 5s3p2d1f pattern {62111/411/11/1}
 Group   3 Type H   : 5s1p contracted to 3s1p pattern {311/1}

Atom   0O    basis set group =>   1
Atom   1C    basis set group =>   2
Atom   2C    basis set group =>   2
Atom   3H    basis set group =>   3
Atom   4H    basis set group =>   3
Atom   5H    basis set group =>   3
Atom   6H    basis set group =>   3
---------------------------------
AUXILIARY/J BASIS SET INFORMATION
---------------------------------
There are 3 groups of distinct atoms

 Group   1 Type O   : 12s5p4d2f1g contracted to 6s4p3d1f1g pattern {711111/2111/211/2/1}
 Group   2 Type C   : 12s5p4d2f1g contracted to 6s4p3d1f1g pattern {711111/2111/211/2/1}
 Group   3 Type H   : 5s2p1d contracted to 3s1p1d pattern {311/2/1}

Atom   0O    basis set group =>   1
Atom   1C    basis set group =>   2
Atom   2C    basis set group =>   2
Atom   3H    basis set group =>   3
Atom   4H    basis set group =>   3
Atom   5H    basis set group =>   3
Atom   6H    basis set group =>   3


           ************************************************************
           *        Program running with 8 parallel MPI-processes     *
           *              working on a common directory               *
           ************************************************************
------------------------------------------------------------------------------
                           ORCA GTO INTEGRAL CALCULATION
                           -- RI-GTO INTEGRALS CHOSEN --
------------------------------------------------------------------------------
------------------------------------------------------------------------------
                   ___                                                        
                  /   \      - P O W E R E D   B Y -                         
                 /     \                                                     
                 |  |  |   _    _      __       _____    __    __             
                 |  |  |  | |  | |    /  \     |  _  \  |  |  /  |          
                  \  \/   | |  | |   /    \    | | | |  |  | /  /          
                 / \  \   | |__| |  /  /\  \   | |_| |  |  |/  /          
                |  |  |   |  __  | /  /__\  \  |    /   |      \           
                |  |  |   | |  | | |   __   |  |    \   |  |\   \          
                \     /   | |  | | |  |  |  |  | |\  \  |  | \   \       
                 \___/    |_|  |_| |__|  |__|  |_| \__\ |__|  \__/        
                                                                              
                      - O R C A' S   B I G   F R I E N D -                    
                                      &                                       
                       - I N T E G R A L  F E E D E R -                       
                                                                              
 v1 FN, 2020, v2 2021                                                         
------------------------------------------------------------------------------


Reading SHARK input file ox_gs_G_orca0005.SHARKINP.tmp ... ok
----------------------
SHARK INTEGRAL PACKAGE
----------------------

Number of atoms                             ...      7
Number of basis functions                   ...    117
Number of shells                            ...     49
Maximum angular momentum                    ...      3
Integral batch strategy                     ... SHARK/LIBINT Hybrid
RI-J (if used) integral strategy            ... SPLIT-RIJ (Revised 2003 algorithm where possible)
Printlevel                                  ...      1
Contraction scheme used                     ... SEGMENTED contraction
Coulomb Range Separation                    ... NOT USED
Exchange Range Separation                   ... NOT USED
Finite Nucleus Model                        ... NOT USED
Auxiliary Coulomb fitting basis             ... AVAILABLE
   # of basis functions in Aux-J            ...    191
   # of shells in Aux-J                     ...     65
   Maximum angular momentum in Aux-J        ...      4
Auxiliary J/K fitting basis                 ... NOT available
Auxiliary Correlation fitting basis         ... NOT available
Auxiliary 'external' fitting basis          ... NOT available
Integral threshold                          ...     2.500000e-11
Primitive cut-off                           ...     2.500000e-12
Primitive pair pre-selection threshold      ...     2.500000e-12

Calculating pre-screening integrals         ... done (  0.0 sec) Dimension = 49
Organizing shell pair data                  ... done (  0.0 sec)
Shell pair information
Total number of shell pairs                 ...      1225
Shell pairs after pre-screening             ...      1208
Total number of primitive shell pairs       ...      3648
Primitive shell pairs kept                  ...      3043
          la=0 lb=0:    367 shell pairs
          la=1 lb=0:    348 shell pairs
          la=1 lb=1:     91 shell pairs
          la=2 lb=0:    159 shell pairs
          la=2 lb=1:     78 shell pairs
          la=2 lb=2:     21 shell pairs
          la=3 lb=0:     81 shell pairs
          la=3 lb=1:     39 shell pairs
          la=3 lb=2:     18 shell pairs
          la=3 lb=3:      6 shell pairs

Calculating one electron integrals          ... done (  0.0 sec)
Calculating RI/J V-Matrix + Cholesky decomp.... done (  0.0 sec)
Calculating Nuclear repulsion               ... done (  0.0 sec) ENN=     66.250438038451 Eh

SHARK setup successfully completed in   0.1 seconds

Maximum memory used throughout the entire GTOINT-calculation: 14.9 MB


           ************************************************************
           *        Program running with 8 parallel MPI-processes     *
           *              working on a common directory               *
           ************************************************************
-------------------------------------------------------------------------------
                                 ORCA SCF
-------------------------------------------------------------------------------

------------
SCF SETTINGS
------------
Hamiltonian:
 Density Functional     Method          .... DFT(GTOs)
 Exchange Functional    Exchange        .... PBE
   PBE kappa parameter   XKappa         ....  0.804000
   PBE mue parameter    XMuePBE         ....  0.219520
 Correlation Functional Correlation     .... PBE
   PBE beta parameter  CBetaPBE         ....  0.066725
 LDA part of GGA corr.  LDAOpt          .... PW91-LDA
 Gradients option       PostSCFGGA      .... off
 Hybrid DFT is turned on
   Fraction HF Exchange ScalHFX         ....  0.250000
   Scaling of DF-GGA-X  ScalDFX         ....  0.750000
   Scaling of DF-GGA-C  ScalDFC         ....  1.000000
   Scaling of DF-LDA-C  ScalLDAC        ....  1.000000
   Perturbative correction              ....  0.000000
   Density functional embedding theory  .... OFF
   NL short-range parameter             ....  6.900000
 RI-approximation to the Coulomb term is turned on
   Number of AuxJ basis functions       .... 191
   RIJ-COSX (HFX calculated with COS-X)).... on


General Settings:
 Integral files         IntName         .... ox_gs_G_orca0005
 Hartree-Fock type      HFTyp           .... RHF
 Total Charge           Charge          ....    0
 Multiplicity           Mult            ....    1
 Number of Electrons    NEL             ....   24
 Basis Dimension        Dim             ....  117
 Nuclear Repulsion      ENuc            ....     66.2504380385 Eh

Convergence Acceleration:
 DIIS                   CNVDIIS         .... on
   Start iteration      DIISMaxIt       ....    12
   Startup error        DIISStart       ....  0.200000
   # of expansion vecs  DIISMaxEq       ....     5
   Bias factor          DIISBfac        ....   1.050
   Max. coefficient     DIISMaxC        ....  10.000
 Trust-Rad. Augm. Hess. CNVTRAH         .... auto
   Auto Start mean grad. ratio tolernc. ....  1.125000
   Auto Start start iteration           ....    20
   Auto Start num. interpolation iter.  ....    10
   Max. Number of Micro iterations      ....    16
   Max. Number of Macro iterations      .... Maxiter - #DIIS iter
   Number of Davidson start vectors     ....     2
   Converg. threshold I  (grad. norm)   ....   1.000e-05
   Converg. threshold II (energy diff.) ....   1.000e-08
   Grad. Scal. Fac. for Micro threshold ....   0.100
   Minimum threshold for Micro iter.    ....   0.010
   NR start threshold (gradient norm)   ....   0.001
   Initial trust radius                 ....   0.400
   Minimum AH scaling param. (alpha)    ....   1.000
   Maximum AH scaling param. (alpha)    .... 1000.000
   Orbital update algorithm             .... Taylor
   White noise on init. David. guess    .... on
   Maximum white noise                  ....   0.010
   Quad. conv. algorithm                .... NR
 SOSCF                  CNVSOSCF        .... on
   Start iteration      SOSCFMaxIt      ....   150
   Startup grad/error   SOSCFStart      ....  0.003300
 Level Shifting         CNVShift        .... on
   Level shift para.    LevelShift      ....    0.2500
   Turn off err/grad.   ShiftErr        ....    0.0010
 Zerner damping         CNVZerner       .... off
 Static damping         CNVDamp         .... on
   Fraction old density DampFac         ....    0.7000
   Max. Damping (<1)    DampMax         ....    0.9800
   Min. Damping (>=0)   DampMin         ....    0.0000
   Turn off err/grad.   DampErr         ....    0.1000
 Fernandez-Rico         CNVRico         .... off

SCF Procedure:
 Maximum # iterations   MaxIter         ....   125
 SCF integral mode      SCFMode         .... Direct
   Integral package                     .... SHARK and LIBINT hybrid scheme
 Reset frequency        DirectResetFreq ....    20
 Integral Threshold     Thresh          ....  2.500e-11 Eh
 Primitive CutOff       TCut            ....  2.500e-12 Eh

Convergence Tolerance:
 Convergence Check Mode ConvCheckMode   .... Total+1el-Energy
 Convergence forced     ConvForced      .... 0
 Energy Change          TolE            ....  1.000e-08 Eh
 1-El. energy change                    ....  1.000e-05 Eh
 Orbital Gradient       TolG            ....  1.000e-05
 Orbital Rotation angle TolX            ....  1.000e-05
 DIIS Error             TolErr          ....  5.000e-07


Diagonalization of the overlap matrix:
Smallest eigenvalue                        ... 4.064e-04
Time for diagonalization                   ...    0.001 sec
Threshold for overlap eigenvalues          ... 1.000e-08
Number of eigenvalues below threshold      ... 0
Time for construction of square roots      ...    0.001 sec
Total time needed                          ...    0.003 sec

Time for model grid setup =    0.022 sec

------------------------------
INITIAL GUESS: MODEL POTENTIAL
------------------------------
Loading Hartree-Fock densities                     ... done
Calculating cut-offs                               ... done
Initializing the effective Hamiltonian             ... done
Setting up the integral package (SHARK)            ... done
Starting the Coulomb interaction                   ... done (   0.0 sec)
Reading the grid                                   ... done
Mapping shells                                     ... done
Starting the XC term evaluation                    ... done (   0.0 sec)
  promolecular density results
     # of electrons  =     23.998065027
     EX              =    -19.433961117
     EC              =     -0.762038513
     EX+EC           =    -20.195999630
Transforming the Hamiltonian                       ... done (   0.0 sec)
Diagonalizing the Hamiltonian                      ... done (   0.0 sec)
Back transforming the eigenvectors                 ... done (   0.0 sec)
Now organizing SCF variables                       ... done
                      ------------------
                      INITIAL GUESS DONE (   0.0 sec)
                      ------------------
-------------------
DFT GRID GENERATION
-------------------

General Integration Accuracy     IntAcc      ... 4.388
Radial Grid Type                 RadialGrid  ... OptM3 with GC (2021)
Angular Grid (max. ang.)         AngularGrid ... 4 (Lebedev-302)
Angular grid pruning method      GridPruning ... 4 (adaptive)
Weight generation scheme         WeightScheme... Becke
Basis function cutoff            BFCut       ... 1.0000e-11
Integration weight cutoff        WCut        ... 1.0000e-14
Angular grids for H and He will be reduced by one unit
Partially contracted basis set               ... off
Rotationally invariant grid construction     ... off

Total number of grid points                  ...    31357
Total number of batches                      ...      494
Average number of points per batch           ...       63
Average number of grid points per atom       ...     4480
Time for grid setup =    0.108 sec

--------------------
COSX GRID GENERATION
--------------------

GRIDX 1
-------
General Integration Accuracy     IntAcc      ... 3.816
Radial Grid Type                 RadialGrid  ... OptM3 with GC (2021)
Angular Grid (max. ang.)         AngularGrid ... 1 (Lebedev-50)
Angular grid pruning method      GridPruning ... 4 (adaptive)
Weight generation scheme         WeightScheme... Becke
Basis function cutoff            BFCut       ... 1.0000e-11
Integration weight cutoff        WCut        ... 1.0000e-14
Angular grids for H and He will be reduced by one unit
Partially contracted basis set               ... on
Rotationally invariant grid construction     ... off

Total number of grid points                  ...     4043
Total number of batches                      ...       68
Average number of points per batch           ...       59
Average number of grid points per atom       ...      578
UseSFitting                                  ... on

GRIDX 2
-------
General Integration Accuracy     IntAcc      ... 4.020
Radial Grid Type                 RadialGrid  ... OptM3 with GC (2021)
Angular Grid (max. ang.)         AngularGrid ... 2 (Lebedev-110)
Angular grid pruning method      GridPruning ... 4 (adaptive)
Weight generation scheme         WeightScheme... Becke
Basis function cutoff            BFCut       ... 1.0000e-11
Integration weight cutoff        WCut        ... 1.0000e-14
Angular grids for H and He will be reduced by one unit
Partially contracted basis set               ... on
Rotationally invariant grid construction     ... off

Total number of grid points                  ...     8751
Total number of batches                      ...      140
Average number of points per batch           ...       62
Average number of grid points per atom       ...     1250
UseSFitting                                  ... on

GRIDX 3
-------
General Integration Accuracy     IntAcc      ... 4.338
Radial Grid Type                 RadialGrid  ... OptM3 with GC (2021)
Angular Grid (max. ang.)         AngularGrid ... 3 (Lebedev-194)
Angular grid pruning method      GridPruning ... 4 (adaptive)
Weight generation scheme         WeightScheme... Becke
Basis function cutoff            BFCut       ... 1.0000e-11
Integration weight cutoff        WCut        ... 1.0000e-14
Angular grids for H and He will be reduced by one unit
Partially contracted basis set               ... on
Rotationally invariant grid construction     ... off

Total number of grid points                  ...    19288
Total number of batches                      ...      306
Average number of points per batch           ...       63
Average number of grid points per atom       ...     2755
UseSFitting                                  ... on

Time for X-Grid setup             =    0.073 sec

--------------
SCF ITERATIONS
--------------
ITER       Energy         Delta-E        Max-DP      RMS-DP      [F,P]     Damp
               ***  Starting incremental Fock matrix formation  ***
  0   -153.2401821700   0.000000000000 0.30905925  0.00686144  0.3801149 0.7000
  1   -153.3662360159  -0.126053845993 0.10225599  0.00257458  0.0960304 0.7000
                               ***Turning on DIIS***
  2   -153.3221444346   0.044091581336 0.08159395  0.00221890  0.1434483 0.7000
  3   -153.3795055132  -0.057361078537 0.21086687  0.00539063  0.0429509 0.0000
  4   -153.4413812237  -0.061875710596 0.00779651  0.00030211  0.1566149 0.7000
  5   -153.4456781795  -0.004296955765 0.00945901  0.00039007  0.1475898 0.7000
  6   -153.4481785684  -0.002500388889 0.00943384  0.00040098  0.1411631 0.7000
  7   -153.4490732199  -0.000894651544 0.00882955  0.00037867  0.1370879 0.7000
  8   -153.4489309631   0.000142256881 0.04301027  0.00137824  0.1342547 0.7000
  9   -153.4718891610  -0.022958197951 0.04820686  0.00191441  0.0276168 0.0000
 10   -153.4653001398   0.006589021197 0.00973650  0.00025161  0.1188851 0.7000
 11   -153.4704577648  -0.005157624949 0.01089038  0.00029342  0.1027010 0.7000
 12   -153.4756314938  -0.005173729065 0.03178865  0.00092036  0.0838655 0.0000
 13   -153.4863025775  -0.010671083691 0.00539003  0.00022081  0.0235731 0.0000
 14   -153.4871657898  -0.000863212279 0.00546863  0.00015984  0.0115246 0.0000
 15   -153.4874609316  -0.000295141843 0.00321244  0.00011434  0.0034520 0.0000
                      *** Initiating the SOSCF procedure ***
                           *** Shutting down DIIS ***
                      *** Re-Reading the Fockian *** 
                      *** Removing any level shift *** 
ITER      Energy       Delta-E        Grad      Rot      Max-DP    RMS-DP
 16   -153.48758940  -0.0001284713  0.002204  0.002204  0.002691  0.000100
               *** Restarting incremental Fock matrix formation ***
 17   -153.48768563  -0.0000962320  0.001695  0.019002  0.006391  0.000274
 18   -153.48789624  -0.0002106054  0.002032  0.137377  0.047290  0.001912
 19   -153.48745746   0.0004387756  0.007509  0.028905  0.008947  0.000396
 20   -153.48806104  -0.0006035765  0.003659  0.086593  0.029652  0.001237
 21   -153.48813089  -0.0000698516  0.002681  0.041003  0.014504  0.000567
 22   -153.48831381  -0.0001829148  0.000572  0.005808  0.001432  0.000065
 23   -153.48832183  -0.0000080210  0.000294  0.002544  0.000935  0.000044
 24   -153.48832431  -0.0000024854  0.000230  0.002078  0.000552  0.000027
 25   -153.48832529  -0.0000009805  0.000064  0.002232  0.000587  0.000027
 26   -153.48832554  -0.0000002419  0.000017  0.000412  0.000119  0.000005
 27   -153.48832555  -0.0000000167  0.000015  0.000080  0.000024  0.000001
                  ***Gradient check signals convergence***
              ***Rediagonalizing the Fockian in SOSCF/NRSCF***

               *****************************************************
               *                     SUCCESS                       *
               *           SCF CONVERGED AFTER  28 CYCLES          *
               *****************************************************

Old exchange energy                            =     -4.938411046 Eh
New exchange energy                            =     -4.938420398 Eh
Exchange energy change after final integration =     -0.000009353 Eh
Total energy after final integration           =   -153.488334910 Eh
Final COS-X integration done in                =     0.302 sec

----------------
TOTAL SCF ENERGY
----------------

Total Energy       :         -153.48833491 Eh           -4176.62993 eV

Components:
Nuclear Repulsion  :           66.25043804 Eh            1802.76607 eV
Electronic Energy  :         -219.73877295 Eh           -5979.39600 eV
One Electron Energy:         -339.46683343 Eh           -9237.36216 eV
Two Electron Energy:          119.72806049 Eh            3257.96616 eV
Max COSX asymmetry :            0.00000407 Eh               0.00011 eV

Virial components:
Potential Energy   :         -306.18525284 Eh           -8331.72431 eV
Kinetic Energy     :          152.69691793 Eh            4155.09438 eV
Virial Ratio       :            2.00518293


DFT components:
N(Alpha)           :       11.999994349370 electrons
N(Beta)            :       11.999994349370 electrons
N(Total)           :       23.999988698740 electrons
E(X)               :      -14.849438445074 Eh       
E(C)               :       -0.769385838539 Eh       
E(XC)              :      -15.618824283614 Eh       
DFET-embed. en.    :        0.000000000000 Eh       

---------------
SCF CONVERGENCE
---------------

  Last Energy change         ...   -4.2608e-09  Tolerance :   1.0000e-08
  Last MAX-Density change    ...    1.6653e-15  Tolerance :   1.0000e-07
  Last RMS-Density change    ...    2.6501e-17  Tolerance :   5.0000e-09
  Last Orbital Gradient      ...    1.8097e-06  Tolerance :   1.0000e-05
  Last Orbital Rotation      ...    2.6266e-05  Tolerance :   1.0000e-05

             **** THE GBW FILE WAS UPDATED (ox_gs_G_orca0005.gbw) ****
             **** DENSITY ox_gs_G_orca0005.scfp WAS UPDATED ****
             **** ENERGY FILE WAS UPDATED (ox_gs_G_orca0005.en.tmp) ****
             **** THE GBW FILE WAS UPDATED (ox_gs_G_orca0005.gbw) ****
             **** DENSITY ox_gs_G_orca0005.scfp WAS UPDATED ****
----------------
ORBITAL ENERGIES
----------------

  NO   OCC          E(Eh)            E(eV) 
   0   2.0000     -19.171254      -521.6763 
   1   2.0000     -10.314606      -280.6747 
   2   2.0000     -10.286570      -279.9118 
   3   2.0000      -0.968904       -26.3652 
   4   2.0000      -0.785070       -21.3628 
   5   2.0000      -0.616365       -16.7721 
   6   2.0000      -0.518083       -14.0977 
   7   2.0000      -0.479513       -13.0482 
   8   2.0000      -0.425562       -11.5801 
   9   2.0000      -0.389112       -10.5883 
  10   2.0000      -0.247573        -6.7368 
  11   2.0000      -0.224735        -6.1154 
  12   0.0000      -0.166372        -4.5272 
  13   0.0000       0.042925         1.1680 
  14   0.0000       0.066979         1.8226 
  15   0.0000       0.081144         2.2080 
  16   0.0000       0.140529         3.8240 
  17   0.0000       0.140985         3.8364 
  18   0.0000       0.181888         4.9494 
  19   0.0000       0.220996         6.0136 
  20   0.0000       0.231270         6.2932 
  21   0.0000       0.234922         6.3925 
  22   0.0000       0.240062         6.5324 
  23   0.0000       0.326670         8.8891 
  24   0.0000       0.361996         9.8504 
  25   0.0000       0.390140        10.6163 
  26   0.0000       0.405922        11.0457 
  27   0.0000       0.421637        11.4733 
  28   0.0000       0.441277        12.0078 
  29   0.0000       0.465016        12.6537 
  30   0.0000       0.510442        13.8898 
  31   0.0000       0.528375        14.3778 
  32   0.0000       0.544672        14.8213 
  33   0.0000       0.601008        16.3543 
  34   0.0000       0.612361        16.6632 
  35   0.0000       0.735642        20.0178 
  36   0.0000       0.776261        21.1231 
  37   0.0000       0.835920        22.7465 
  38   0.0000       0.881532        23.9877 
  39   0.0000       0.915199        24.9038 
  40   0.0000       0.940408        25.5898 
  41   0.0000       1.007337        27.4110 
  42   0.0000       1.091211        29.6934 
  43   0.0000       1.131689        30.7948 
  44   0.0000       1.211207        32.9586 
  45   0.0000       1.349637        36.7255 
  46   0.0000       1.436657        39.0934 
  47   0.0000       1.453087        39.5405 
  48   0.0000       1.502000        40.8715 
  49   0.0000       1.546527        42.0831 
  50   0.0000       1.557495        42.3816 
  51   0.0000       1.566854        42.6363 
  52   0.0000       1.606064        43.7032 
  53   0.0000       1.618718        44.0476 
  54   0.0000       1.717633        46.7392 
  55   0.0000       1.755233        47.7623 
  56   0.0000       1.794674        48.8356 
  57   0.0000       1.838806        50.0365 
  58   0.0000       1.871755        50.9330 
  59   0.0000       1.960601        53.3507 
  60   0.0000       1.980322        53.8873 
  61   0.0000       2.036472        55.4152 
  62   0.0000       2.075204        56.4692 
  63   0.0000       2.213889        60.2430 
  64   0.0000       2.256778        61.4100 
  65   0.0000       2.305743        62.7424 
  66   0.0000       2.372165        64.5499 
  67   0.0000       2.453929        66.7748 
  68   0.0000       2.498465        67.9867 
  69   0.0000       2.526757        68.7566 
  70   0.0000       2.549180        69.3667 
  71   0.0000       2.581319        70.2413 
  72   0.0000       2.620666        71.3120 
  73   0.0000       2.678149        72.8761 
  74   0.0000       2.687575        73.1326 
  75   0.0000       2.832791        77.0842 
  76   0.0000       2.845490        77.4297 
  77   0.0000       2.889106        78.6166 
  78   0.0000       2.971320        80.8537 
  79   0.0000       2.985819        81.2483 
  80   0.0000       3.029378        82.4336 
  81   0.0000       3.040306        82.7309 
  82   0.0000       3.113002        84.7091 
  83   0.0000       3.120537        84.9141 
  84   0.0000       3.150194        85.7211 
  85   0.0000       3.268102        88.9296 
  86   0.0000       3.286564        89.4320 
  87   0.0000       3.366522        91.6077 
  88   0.0000       3.402778        92.5943 
  89   0.0000       3.408891        92.7606 
  90   0.0000       3.478856        94.6645 
  91   0.0000       3.615100        98.3719 
  92   0.0000       3.699657       100.6728 
  93   0.0000       3.845070       104.6297 
  94   0.0000       4.052786       110.2819 
  95   0.0000       4.073765       110.8528 
  96   0.0000       4.107337       111.7663 
  97   0.0000       4.258652       115.8838 
  98   0.0000       4.321557       117.5956 
  99   0.0000       4.546508       123.7168 
 100   0.0000       4.595864       125.0598 
 101   0.0000       4.709926       128.1636 
 102   0.0000       5.215321       141.9161 
 103   0.0000       5.233234       142.4035 
 104   0.0000       5.384201       146.5116 
 105   0.0000       5.418472       147.4441 
 106   0.0000       5.736488       156.0978 
 107   0.0000       5.843647       159.0137 
 108   0.0000       5.920567       161.1068 
 109   0.0000       6.389097       173.8562 
 110   0.0000       6.392745       173.9554 
 111   0.0000       6.789154       184.7423 
 112   0.0000       6.811162       185.3411 
 113   0.0000       6.984975       190.0708 
 114   0.0000      21.978623       598.0687 
 115   0.0000      22.373183       608.8053 
 116   0.0000      43.780819      1191.3366 

                    ********************************
                    * MULLIKEN POPULATION ANALYSIS *
                    ********************************

-----------------------
MULLIKEN ATOMIC CHARGES
-----------------------
   0 O :   -0.425555
   1 C :   -0.160758
   2 C :   -0.105769
   3 H :    0.131208
   4 H :    0.228083
   5 H :    0.166658
   6 H :    0.166133
Sum of atomic charges:   -0.0000000

--------------------------------
MULLIKEN REDUCED ORBITAL CHARGES
--------------------------------
  0 O s       :     3.904745  s :     3.904745
      pz      :     1.576828  p :     4.497464
      px      :     1.690252
      py      :     1.230383
      dz2     :     0.002864  d :     0.022115
      dxz     :     0.001041
      dyz     :     0.004834
      dx2y2   :     0.005031
      dxy     :     0.008345
      f0      :     0.000104  f :     0.001231
      f+1     :     0.000070
      f-1     :     0.000159
      f+2     :     0.000083
      f-2     :     0.000132
      f+3     :     0.000419
      f-3     :     0.000264
  1 C s       :     3.217990  s :     3.217990
      pz      :     1.034534  p :     2.787835
      px      :     0.905298
      py      :     0.848002
      dz2     :     0.011795  d :     0.143666
      dxz     :     0.030599
      dyz     :     0.032699
      dx2y2   :     0.042497
      dxy     :     0.026077
      f0      :     0.001164  f :     0.011268
      f+1     :     0.001214
      f-1     :     0.000398
      f+2     :     0.001089
      f-2     :     0.001145
      f+3     :     0.001718
      f-3     :     0.004540
  2 C s       :     3.295317  s :     3.295317
      pz      :     1.060795  p :     2.760510
      px      :     0.961849
      py      :     0.737866
      dz2     :     0.005011  d :     0.046160
      dxz     :     0.026195
      dyz     :     0.001342
      dx2y2   :     0.005417
      dxy     :     0.008196
      f0      :     0.000395  f :     0.003783
      f+1     :     0.001006
      f-1     :     0.000075
      f+2     :     0.000731
      f-2     :     0.000047
      f+3     :     0.000566
      f-3     :     0.000962
  3 H s       :     0.845767  s :     0.845767
      pz      :     0.010209  p :     0.023024
      px      :     0.006991
      py      :     0.005825
  4 H s       :     0.748081  s :     0.748081
      pz      :     0.009723  p :     0.023836
      px      :     0.007822
      py      :     0.006291
  5 H s       :     0.811218  s :     0.811218
      pz      :     0.011015  p :     0.022124
      px      :     0.006851
      py      :     0.004258
  6 H s       :     0.813419  s :     0.813419
      pz      :     0.010918  p :     0.020449
      px      :     0.005968
      py      :     0.003563


                     *******************************
                     * LOEWDIN POPULATION ANALYSIS *
                     *******************************

----------------------
LOEWDIN ATOMIC CHARGES
----------------------
   0 O :   -0.168517
   1 C :   -0.439048
   2 C :   -0.033980
   3 H :    0.140521
   4 H :    0.227148
   5 H :    0.129267
   6 H :    0.144609

-------------------------------
LOEWDIN REDUCED ORBITAL CHARGES
-------------------------------
  0 O s       :     3.592878  s :     3.592878
      pz      :     1.534441  p :     4.519614
      px      :     1.667833
      py      :     1.317340
      dz2     :     0.006427  d :     0.052714
      dxz     :     0.002715
      dyz     :     0.012708
      dx2y2   :     0.013840
      dxy     :     0.017024
      f0      :     0.000404  f :     0.003310
      f+1     :     0.000172
      f-1     :     0.000395
      f+2     :     0.000215
      f-2     :     0.000439
      f+3     :     0.000980
      f-3     :     0.000705
  1 C s       :     2.828149  s :     2.828149
      pz      :     1.027619  p :     2.987771
      px      :     1.047846
      py      :     0.912305
      dz2     :     0.069537  d :     0.552313
      dxz     :     0.110281
      dyz     :     0.085410
      dx2y2   :     0.166393
      dxy     :     0.120691
      f0      :     0.008406  f :     0.070816
      f+1     :     0.007389
      f-1     :     0.004513
      f+2     :     0.005747
      f-2     :     0.008938
      f+3     :     0.013919
      f-3     :     0.021905
  2 C s       :     2.942635  s :     2.942635
      pz      :     1.065266  p :     2.851029
      px      :     1.093449
      py      :     0.692313
      dz2     :     0.027402  d :     0.218716
      dxz     :     0.121654
      dyz     :     0.002912
      dx2y2   :     0.035192
      dxy     :     0.031555
      f0      :     0.003612  f :     0.021601
      f+1     :     0.003449
      f-1     :     0.000518
      f+2     :     0.004538
      f-2     :     0.000433
      f+3     :     0.004493
      f-3     :     0.004558
  3 H s       :     0.797715  s :     0.797715
      pz      :     0.029176  p :     0.061764
      px      :     0.016899
      py      :     0.015690
  4 H s       :     0.713841  s :     0.713841
      pz      :     0.026531  p :     0.059011
      px      :     0.017932
      py      :     0.014547
  5 H s       :     0.805328  s :     0.805328
      pz      :     0.033583  p :     0.065405
      px      :     0.019170
      py      :     0.012652
  6 H s       :     0.797923  s :     0.797923
      pz      :     0.031851  p :     0.057468
      px      :     0.015877
      py      :     0.009740


                      *****************************
                      * MAYER POPULATION ANALYSIS *
                      *****************************

  NA   - Mulliken gross atomic population
  ZA   - Total nuclear charge
  QA   - Mulliken gross atomic charge
  VA   - Mayer's total valence
  BVA  - Mayer's bonded valence
  FA   - Mayer's free valence

  ATOM       NA         ZA         QA         VA         BVA        FA
  0 O      8.4256     8.0000    -0.4256     1.6568     1.6568     0.0000
  1 C      6.1608     6.0000    -0.1608     4.1935     4.1935    -0.0000
  2 C      6.1058     6.0000    -0.1058     3.6719     3.6719    -0.0000
  3 H      0.8688     1.0000     0.1312     0.9537     0.9537    -0.0000
  4 H      0.7719     1.0000     0.2281     0.9423     0.9423    -0.0000
  5 H      0.8333     1.0000     0.1667     0.9580     0.9580    -0.0000
  6 H      0.8339     1.0000     0.1661     0.9557     0.9557    -0.0000

  Mayer bond orders larger than 0.100000
B(  0-O ,  1-C ) :   1.1345 B(  0-O ,  2-C ) :   0.4830 B(  1-C ,  2-C ) :   1.2496 
B(  1-C ,  3-H ) :   0.9712 B(  1-C ,  4-H ) :   0.8225 B(  2-C ,  5-H ) :   0.9309 
B(  2-C ,  6-H ) :   0.9392 

-------
TIMINGS
-------

Total SCF time: 0 days 0 hours 0 min 5 sec 

Total time                  ....       5.163 sec
Sum of individual times     ....       4.818 sec  ( 93.3%)

Fock matrix formation       ....       4.487 sec  ( 86.9%)
  Split-RI-J                ....       0.440 sec  (  9.8% of F)
  Chain of spheres X        ....       3.057 sec  ( 68.1% of F)
  XC integration            ....       0.932 sec  ( 20.8% of F)
    Basis function eval.    ....       0.255 sec  ( 27.3% of XC)
    Density eval.           ....       0.191 sec  ( 20.5% of XC)
    XC-Functional eval.     ....       0.055 sec  (  5.9% of XC)
    XC-Potential eval.      ....       0.329 sec  ( 35.3% of XC)
Diagonalization             ....       0.040 sec  (  0.8%)
Density matrix formation    ....       0.003 sec  (  0.1%)
Population analysis         ....       0.005 sec  (  0.1%)
Initial guess               ....       0.016 sec  (  0.3%)
Orbital Transformation      ....       0.000 sec  (  0.0%)
Orbital Orthonormalization  ....       0.000 sec  (  0.0%)
DIIS solution               ....       0.037 sec  (  0.7%)
SOSCF solution              ....       0.027 sec  (  0.5%)
Grid generation             ....       0.204 sec  (  3.9%)

Maximum memory used throughout the entire SCF-calculation: 61.0 MB


-------------------------------------------------------------------------------
                          DFT DISPERSION CORRECTION                            
                                                                               
                              DFTD3 V3.1  Rev 1                                
                          USING Becke-Johnson damping                          
-------------------------------------------------------------------------------
The PBE0 functional is recognized
Active option DFTDOPT                   ...         4   

molecular C6(AA) [au] = 395.450288 


            DFT-D V3
 parameters
 s6 scaling factor         :     1.0000 
 a1 scaling factor         :     0.4145 
 s8 scaling factor         :     1.2177 
 a2 scaling factor         :     4.8593 
 ad hoc parameters k1-k3   :    16.0000     1.3333    -4.0000 

 Edisp/kcal,au: -1.611885170354  -0.002568702251 
 E6   /kcal   :  -1.051250822 
 E8   /kcal   :  -0.560634348 
 % E8         :  34.781283328 

-------------------------   ----------------
Dispersion correction           -0.002568702
-------------------------   ----------------


-------------------------   --------------------
FINAL SINGLE POINT ENERGY      -153.490903612153
-------------------------   --------------------



           ************************************************************
           *        Program running with 8 parallel MPI-processes     *
           *              working on a common directory               *
           ************************************************************
------------------------------------------------------------------------------
                         ORCA SCF GRADIENT CALCULATION
------------------------------------------------------------------------------

 ... reading COSX grid (gridx3)
Gradient of the Kohn-Sham DFT energy:
Kohn-Sham wavefunction type      ... RKS
Hartree-Fock exchange scaling    ...    0.250
Number of operators              ...    1
Number of atoms                  ...    7
Basis set dimensions             ...  117
Integral neglect threshold       ... 2.5e-11
Integral primitive cutoff        ... 2.5e-12
SHARK Integral package           ... ON

Nuc. rep. gradient       (SHARK) ... done (  0.0 sec)
HCore & Overlap gradient (SHARK) ... done (  0.0 sec)
RI-J gradient            (SHARK) ... done (  0.1 sec)
COSX-gradient                    ... done (  0.4 sec)
Exchange-correlation gradient    ... done
Dispersion correction            ... done

------------------
CARTESIAN GRADIENT
------------------

   1   O   :   -0.008666446   -0.017042888    0.039111843
   2   C   :    0.034654983   -0.027114855   -0.050455431
   3   C   :   -0.007345006    0.013349742   -0.008125407
   4   H   :   -0.025513017    0.033003883    0.006300150
   5   H   :   -0.019500782    0.004760214   -0.010392796
   6   H   :    0.006149503   -0.014027665   -0.005329952
   7   H   :    0.020269748    0.007013782    0.028851920

Difference to translation invariance:
           :    0.0000489835   -0.0000577875   -0.0000396737

Difference to rotation invariance:
           :   -0.0001232913   -0.0001677541    0.0003019615

Norm of the cartesian gradient     ...    0.1025754657
RMS gradient                       ...    0.0223838017
MAX gradient                       ...    0.0504554312

-------
TIMINGS
-------

Total SCF gradient time            ...        0.760 sec

One electron gradient       ....       0.010 sec  (  1.3%)
RI-J Coulomb gradient       ....       0.082 sec  ( 10.8%)
COSX gradient               ....       0.352 sec  ( 46.4%)
XC gradient                 ....       0.168 sec  ( 22.1%)

Maximum memory used throughout the entire SCFGRAD-calculation: 35.8 MB

                            ***************************************
                            *     ORCA property calculations      *
                            ***************************************

                                    ---------------------
                                    Active property flags
                                    ---------------------
   (+) Dipole Moment


------------------------------------------------------------------------------
                       ORCA ELECTRIC PROPERTIES CALCULATION
------------------------------------------------------------------------------

Dipole Moment Calculation                       ... on
Quadrupole Moment Calculation                   ... off
Polarizability Calculation                      ... off
GBWName                                         ... ox_gs_G_orca0005.gbw
Electron density                                ... ox_gs_G_orca0005.scfp
The origin for moment calculation is the CENTER OF MASS  = (-1.023798, -0.023643 -0.035287)

-------------
DIPOLE MOMENT
-------------
                                X             Y             Z
Electronic contribution:     -0.87686       1.35723      -0.09546
Nuclear contribution   :      2.06155      -2.45369       0.06465
                        -----------------------------------------
Total Dipole Moment    :      1.18469      -1.09646      -0.03081
                        -----------------------------------------
Magnitude (a.u.)       :      1.61452
Magnitude (Debye)      :      4.10378



--------------------
Rotational spectrum 
--------------------
 
Rotational constants in cm-1:     1.789205     0.295798     0.284377 
Rotational constants in MHz : 53639.006010  8867.809322  8525.404047 

 Dipole components along the rotational axes: 
x,y,z [a.u.] :    -1.572598    -0.363596    -0.037366 
x,y,z [Debye]:    -3.997227    -0.924189    -0.094978 

 

Timings for individual modules:

Sum of individual times         ...        6.550 sec (=   0.109 min)
GTO integral calculation        ...        0.279 sec (=   0.005 min)   4.3 %
SCF iterations                  ...        5.329 sec (=   0.089 min)  81.3 %
SCF Gradient evaluation         ...        0.942 sec (=   0.016 min)  14.4 %
                             ****ORCA TERMINATED NORMALLY****
TOTAL RUN TIME: 0 days 0 hours 0 minutes 6 seconds 809 msec
