
                                 *****************
                                 * O   R   C   A *
                                 *****************

                                            #,                                       
                                            ###                                      
                                            ####                                     
                                            #####                                    
                                            ######                                   
                                           ########,                                 
                                     ,,################,,,,,                         
                               ,,#################################,,                 
                          ,,##########################################,,             
                       ,#########################################, ''#####,          
                    ,#############################################,,   '####,        
                  ,##################################################,,,,####,       
                ,###########''''           ''''###############################       
              ,#####''   ,,,,##########,,,,          '''####'''          '####       
            ,##' ,,,,###########################,,,                        '##       
           ' ,,###''''                  '''############,,,                           
         ,,##''                                '''############,,,,        ,,,,,,###''
      ,#''                                            '''#######################'''  
     '                                                          ''''####''''         
             ,#######,   #######,   ,#######,      ##                                
            ,#'     '#,  ##    ##  ,#'     '#,    #''#        ######   ,####,        
            ##       ##  ##   ,#'  ##            #'  '#       #        #'  '#        
            ##       ##  #######   ##           ,######,      #####,   #    #        
            '#,     ,#'  ##    ##  '#,     ,#' ,#      #,         ##   #,  ,#        
             '#######'   ##     ##  '#######'  #'      '#     #####' # '####'        



                  #######################################################
                  #                        -***-                        #
                  #          Department of theory and spectroscopy      #
                  #    Directorship and core code : Frank Neese         #
                  #        Max Planck Institute fuer Kohlenforschung    #
                  #                Kaiser Wilhelm Platz 1               #
                  #                 D-45470 Muelheim/Ruhr               #
                  #                      Germany                        #
                  #                                                     #
                  #                  All rights reserved                #
                  #                        -***-                        #
                  #######################################################


                         Program Version 5.0.2 -  RELEASE  -


 With contributions from (in alphabetic order):
   Daniel Aravena         : Magnetic Suceptibility
   Michael Atanasov       : Ab Initio Ligand Field Theory (pilot matlab implementation)
   Alexander A. Auer      : GIAO ZORA, VPT2 properties, NMR spectrum
   Ute Becker             : Parallelization
   Giovanni Bistoni       : ED, misc. LED, open-shell LED, HFLD
   Martin Brehm           : Molecular dynamics
   Dmytro Bykov           : SCF Hessian
   Vijay G. Chilkuri      : MRCI spin determinant printing, contributions to CSF-ICE
   Dipayan Datta          : RHF DLPNO-CCSD density
   Achintya Kumar Dutta   : EOM-CC, STEOM-CC
   Dmitry Ganyushin       : Spin-Orbit,Spin-Spin,Magnetic field MRCI
   Miquel Garcia          : C-PCM and meta-GGA Hessian, CC/C-PCM, Gaussian charge scheme
   Yang Guo               : DLPNO-NEVPT2, F12-NEVPT2, CIM, IAO-localization
   Andreas Hansen         : Spin unrestricted coupled pair/coupled cluster methods
   Benjamin Helmich-Paris : MC-RPA, TRAH-SCF, COSX integrals
   Lee Huntington         : MR-EOM, pCC
   Robert Izsak           : Overlap fitted RIJCOSX, COSX-SCS-MP3, EOM
   Marcus Kettner         : VPT2
   Christian Kollmar      : KDIIS, OOCD, Brueckner-CCSD(T), CCSD density, CASPT2, CASPT2-K
   Simone Kossmann        : Meta GGA functionals, TD-DFT gradient, OOMP2, MP2 Hessian
   Martin Krupicka        : Initial AUTO-CI
   Lucas Lang             : DCDCAS
   Marvin Lechner         : AUTO-CI (C++ implementation), FIC-MRCC
   Dagmar Lenk            : GEPOL surface, SMD
   Dimitrios Liakos       : Extrapolation schemes; Compound Job, initial MDCI parallelization
   Dimitrios Manganas     : Further ROCIS development; embedding schemes
   Dimitrios Pantazis     : SARC Basis sets
   Anastasios Papadopoulos: AUTO-CI, single reference methods and gradients
   Taras Petrenko         : DFT Hessian,TD-DFT gradient, ASA, ECA, R-Raman, ABS, FL, XAS/XES, NRVS
   Peter Pinski           : DLPNO-MP2, DLPNO-MP2 Gradient
   Christoph Reimann      : Effective Core Potentials
   Marius Retegan         : Local ZFS, SOC
   Christoph Riplinger    : Optimizer, TS searches, QM/MM, DLPNO-CCSD(T), (RO)-DLPNO pert. Triples
   Tobias Risthaus        : Range-separated hybrids, TD-DFT gradient, RPA, STAB
   Michael Roemelt        : Original ROCIS implementation
   Masaaki Saitow         : Open-shell DLPNO-CCSD energy and density
   Barbara Sandhoefer     : DKH picture change effects
   Avijit Sen             : IP-ROCIS
   Kantharuban Sivalingam : CASSCF convergence, NEVPT2, FIC-MRCI
   Bernardo de Souza      : ESD, SOC TD-DFT
   Georgi Stoychev        : AutoAux, RI-MP2 NMR, DLPNO-MP2 response
   Willem Van den Heuvel  : Paramagnetic NMR
   Boris Wezisla          : Elementary symmetry handling
   Frank Wennmohs         : Technical directorship


 We gratefully acknowledge several colleagues who have allowed us to
 interface, adapt or use parts of their codes:
   Stefan Grimme, W. Hujo, H. Kruse, P. Pracht,  : VdW corrections, initial TS optimization,
                  C. Bannwarth, S. Ehlert          DFT functionals, gCP, sTDA/sTD-DF
   Ed Valeev, F. Pavosevic, A. Kumar             : LibInt (2-el integral package), F12 methods
   Garnet Chan, S. Sharma, J. Yang, R. Olivares  : DMRG
   Ulf Ekstrom                                   : XCFun DFT Library
   Mihaly Kallay                                 : mrcc  (arbitrary order and MRCC methods)
   Jiri Pittner, Ondrej Demel                    : Mk-CCSD
   Frank Weinhold                                : gennbo (NPA and NBO analysis)
   Christopher J. Cramer and Donald G. Truhlar   : smd solvation model
   Lars Goerigk                                  : TD-DFT with DH, B97 family of functionals
   V. Asgeirsson, H. Jonsson                     : NEB implementation
   FAccTs GmbH                                   : IRC, NEB, NEB-TS, DLPNO-Multilevel, CI-OPT
                                                   MM, QMMM, 2- and 3-layer-ONIOM, Crystal-QMMM,
                                                   LR-CPCM, SF, NACMEs, symmetry and pop. for TD-DFT,
                                                   nearIR, NL-DFT gradient (VV10), updates on ESD,
                                                   ML-optimized integration grids
   S Lehtola, MJT Oliveira, MAL Marques          : LibXC Library
   Liviu Ungur et al                             : ANISO software


 Your calculation uses the libint2 library for the computation of 2-el integrals
 For citations please refer to: http://libint.valeyev.net

 Your ORCA version has been built with support for libXC version: 5.1.0
 For citations please refer to: https://tddft.org/programs/libxc/

 This ORCA versions uses:
   CBLAS   interface :  Fast vector & matrix operations
   LAPACKE interface :  Fast linear algebra routines
   SCALAPACK package :  Parallel linear algebra routines
   Shared memory     :  Shared parallel matrices
   BLAS/LAPACK       :  OpenBLAS 0.3.15  USE64BITINT DYNAMIC_ARCH NO_AFFINITY SkylakeX SINGLE_THREADED
        Core in use  :  SkylakeX
   Copyright (c) 2011-2014, The OpenBLAS Project


Your calculation utilizes the atom-pairwise dispersion correction
with the Becke-Johnson damping scheme (D3BJ)
Cite in your paper:
S.Grimme, S.Ehrlich, L.Goerigk, J Comput Chem, (2011), 32, 1456–1465 
S.Grimme, J.Antony, S.Ehrlich and H.Krieg, J.Chem.Phys., 132, (2010), 154104 
   

================================================================================

----- Orbital basis set information -----
Your calculation utilizes the basis: def2-TZVP
   F. Weigend and R. Ahlrichs, Phys. Chem. Chem. Phys. 7, 3297 (2005).

----- AuxJ basis set information -----
Your calculation utilizes the auxiliary basis: def2/J
   F. Weigend, Phys. Chem. Chem. Phys. 8, 1057 (2006).

================================================================================
                                        WARNINGS
                       Please study these warnings very carefully!
================================================================================


INFO   : the flag for use of the SHARK integral package has been found!

================================================================================
                                       INPUT FILE
================================================================================
NAME = ox_gs_A_orca0013.inp
|  1> ! engrad PBE0 D3BJ def2-TZVP  
|  2> %pal nprocs 8 end
|  3> %maxcore 3000
|  4>  
|  5> *xyz 0 1 
|  6> O   0.0005117030509793525 0.7178488774476025 0.02310528371316354
|  7> C   -0.7189366052213265 -0.4770313338579397 0.003490104249500946
|  8> C   0.7096238601569119 -0.4413446227374376 0.03310653372605234
|  9> H   -1.1845220891927324 -0.7301615849413424 1.0266278887328133
| 10> H   -1.3614271599761252 -0.6758601647517792 -0.8905603596757712
| 11> H   1.2778724133867516 -0.6994058359910297 -0.9303823325178637
| 12> H   1.2391728232670585 -0.6977390478472105 0.9624562748510512
| 13> *
| 14> 
| 15>                          ****END OF INPUT****
================================================================================

                     *******************************
                     * Energy+Gradient Calculation *
                     *******************************

---------------------------------
CARTESIAN COORDINATES (ANGSTROEM)
---------------------------------
  O      0.000512    0.717849    0.023105
  C     -0.718937   -0.477031    0.003490
  C      0.709624   -0.441345    0.033107
  H     -1.184522   -0.730162    1.026628
  H     -1.361427   -0.675860   -0.890560
  H      1.277872   -0.699406   -0.930382
  H      1.239173   -0.697739    0.962456

----------------------------
CARTESIAN COORDINATES (A.U.)
----------------------------
  NO LB      ZA    FRAG     MASS         X           Y           Z
   0 O     8.0000    0    15.999    0.000967    1.356538    0.043663
   1 C     6.0000    0    12.011   -1.358593   -0.901459    0.006595
   2 C     6.0000    0    12.011    1.340995   -0.834020    0.062562
   3 H     1.0000    0     1.008   -2.238422   -1.379805    1.940046
   4 H     1.0000    0     1.008   -2.572724   -1.277191   -1.682915
   5 H     1.0000    0     1.008    2.414829   -1.321685   -1.758168
   6 H     1.0000    0     1.008    2.341697   -1.318536    1.818779

--------------------------------
INTERNAL COORDINATES (ANGSTROEM)
--------------------------------
 O      0   0   0     0.000000000000     0.00000000     0.00000000
 C      1   0   0     1.394894025692     0.00000000     0.00000000
 C      1   2   0     1.358922237374    62.51830063     0.00000000
 H      2   1   3     1.152239425179   112.58828526   103.71270843
 H      2   1   3     1.118773099868   117.36602885   242.31324015
 H      3   1   2     1.147960279544   116.35215207   108.76884910
 H      3   1   2     1.099932337413   117.14745247   249.91679365

---------------------------
INTERNAL COORDINATES (A.U.)
---------------------------
 O      0   0   0     0.000000000000     0.00000000     0.00000000
 C      1   0   0     2.635967694401     0.00000000     0.00000000
 C      1   2   0     2.567990865932    62.51830063     0.00000000
 H      2   1   3     2.177416954294   112.58828526   103.71270843
 H      2   1   3     2.114174764749   117.36602885   242.31324015
 H      3   1   2     2.169330540957   116.35215207   108.76884910
 H      3   1   2     2.078570883555   117.14745247   249.91679365

---------------------
BASIS SET INFORMATION
---------------------
There are 3 groups of distinct atoms

 Group   1 Type O   : 11s6p2d1f contracted to 5s3p2d1f pattern {62111/411/11/1}
 Group   2 Type C   : 11s6p2d1f contracted to 5s3p2d1f pattern {62111/411/11/1}
 Group   3 Type H   : 5s1p contracted to 3s1p pattern {311/1}

Atom   0O    basis set group =>   1
Atom   1C    basis set group =>   2
Atom   2C    basis set group =>   2
Atom   3H    basis set group =>   3
Atom   4H    basis set group =>   3
Atom   5H    basis set group =>   3
Atom   6H    basis set group =>   3
---------------------------------
AUXILIARY/J BASIS SET INFORMATION
---------------------------------
There are 3 groups of distinct atoms

 Group   1 Type O   : 12s5p4d2f1g contracted to 6s4p3d1f1g pattern {711111/2111/211/2/1}
 Group   2 Type C   : 12s5p4d2f1g contracted to 6s4p3d1f1g pattern {711111/2111/211/2/1}
 Group   3 Type H   : 5s2p1d contracted to 3s1p1d pattern {311/2/1}

Atom   0O    basis set group =>   1
Atom   1C    basis set group =>   2
Atom   2C    basis set group =>   2
Atom   3H    basis set group =>   3
Atom   4H    basis set group =>   3
Atom   5H    basis set group =>   3
Atom   6H    basis set group =>   3


           ************************************************************
           *        Program running with 8 parallel MPI-processes     *
           *              working on a common directory               *
           ************************************************************
------------------------------------------------------------------------------
                           ORCA GTO INTEGRAL CALCULATION
                           -- RI-GTO INTEGRALS CHOSEN --
------------------------------------------------------------------------------
------------------------------------------------------------------------------
                   ___                                                        
                  /   \      - P O W E R E D   B Y -                         
                 /     \                                                     
                 |  |  |   _    _      __       _____    __    __             
                 |  |  |  | |  | |    /  \     |  _  \  |  |  /  |          
                  \  \/   | |  | |   /    \    | | | |  |  | /  /          
                 / \  \   | |__| |  /  /\  \   | |_| |  |  |/  /          
                |  |  |   |  __  | /  /__\  \  |    /   |      \           
                |  |  |   | |  | | |   __   |  |    \   |  |\   \          
                \     /   | |  | | |  |  |  |  | |\  \  |  | \   \       
                 \___/    |_|  |_| |__|  |__|  |_| \__\ |__|  \__/        
                                                                              
                      - O R C A' S   B I G   F R I E N D -                    
                                      &                                       
                       - I N T E G R A L  F E E D E R -                       
                                                                              
 v1 FN, 2020, v2 2021                                                         
------------------------------------------------------------------------------


Reading SHARK input file ox_gs_A_orca0013.SHARKINP.tmp ... ok
----------------------
SHARK INTEGRAL PACKAGE
----------------------

Number of atoms                             ...      7
Number of basis functions                   ...    117
Number of shells                            ...     49
Maximum angular momentum                    ...      3
Integral batch strategy                     ... SHARK/LIBINT Hybrid
RI-J (if used) integral strategy            ... SPLIT-RIJ (Revised 2003 algorithm where possible)
Printlevel                                  ...      1
Contraction scheme used                     ... SEGMENTED contraction
Coulomb Range Separation                    ... NOT USED
Exchange Range Separation                   ... NOT USED
Finite Nucleus Model                        ... NOT USED
Auxiliary Coulomb fitting basis             ... AVAILABLE
   # of basis functions in Aux-J            ...    191
   # of shells in Aux-J                     ...     65
   Maximum angular momentum in Aux-J        ...      4
Auxiliary J/K fitting basis                 ... NOT available
Auxiliary Correlation fitting basis         ... NOT available
Auxiliary 'external' fitting basis          ... NOT available
Integral threshold                          ...     2.500000e-11
Primitive cut-off                           ...     2.500000e-12
Primitive pair pre-selection threshold      ...     2.500000e-12

Calculating pre-screening integrals         ... done (  0.0 sec) Dimension = 49
Organizing shell pair data                  ... done (  0.0 sec)
Shell pair information
Total number of shell pairs                 ...      1225
Shell pairs after pre-screening             ...      1221
Total number of primitive shell pairs       ...      3648
Primitive shell pairs kept                  ...      3156
          la=0 lb=0:    374 shell pairs
          la=1 lb=0:    351 shell pairs
          la=1 lb=1:     91 shell pairs
          la=2 lb=0:    162 shell pairs
          la=2 lb=1:     78 shell pairs
          la=2 lb=2:     21 shell pairs
          la=3 lb=0:     81 shell pairs
          la=3 lb=1:     39 shell pairs
          la=3 lb=2:     18 shell pairs
          la=3 lb=3:      6 shell pairs

Calculating one electron integrals          ... done (  0.0 sec)
Calculating RI/J V-Matrix + Cholesky decomp.... done (  0.0 sec)
Calculating Nuclear repulsion               ... done (  0.0 sec) ENN=     76.487341329717 Eh

SHARK setup successfully completed in   0.1 seconds

Maximum memory used throughout the entire GTOINT-calculation: 14.9 MB


           ************************************************************
           *        Program running with 8 parallel MPI-processes     *
           *              working on a common directory               *
           ************************************************************
-------------------------------------------------------------------------------
                                 ORCA SCF
-------------------------------------------------------------------------------

------------
SCF SETTINGS
------------
Hamiltonian:
 Density Functional     Method          .... DFT(GTOs)
 Exchange Functional    Exchange        .... PBE
   PBE kappa parameter   XKappa         ....  0.804000
   PBE mue parameter    XMuePBE         ....  0.219520
 Correlation Functional Correlation     .... PBE
   PBE beta parameter  CBetaPBE         ....  0.066725
 LDA part of GGA corr.  LDAOpt          .... PW91-LDA
 Gradients option       PostSCFGGA      .... off
 Hybrid DFT is turned on
   Fraction HF Exchange ScalHFX         ....  0.250000
   Scaling of DF-GGA-X  ScalDFX         ....  0.750000
   Scaling of DF-GGA-C  ScalDFC         ....  1.000000
   Scaling of DF-LDA-C  ScalLDAC        ....  1.000000
   Perturbative correction              ....  0.000000
   Density functional embedding theory  .... OFF
   NL short-range parameter             ....  6.900000
 RI-approximation to the Coulomb term is turned on
   Number of AuxJ basis functions       .... 191
   RIJ-COSX (HFX calculated with COS-X)).... on


General Settings:
 Integral files         IntName         .... ox_gs_A_orca0013
 Hartree-Fock type      HFTyp           .... RHF
 Total Charge           Charge          ....    0
 Multiplicity           Mult            ....    1
 Number of Electrons    NEL             ....   24
 Basis Dimension        Dim             ....  117
 Nuclear Repulsion      ENuc            ....     76.4873413297 Eh

Convergence Acceleration:
 DIIS                   CNVDIIS         .... on
   Start iteration      DIISMaxIt       ....    12
   Startup error        DIISStart       ....  0.200000
   # of expansion vecs  DIISMaxEq       ....     5
   Bias factor          DIISBfac        ....   1.050
   Max. coefficient     DIISMaxC        ....  10.000
 Trust-Rad. Augm. Hess. CNVTRAH         .... auto
   Auto Start mean grad. ratio tolernc. ....  1.125000
   Auto Start start iteration           ....    20
   Auto Start num. interpolation iter.  ....    10
   Max. Number of Micro iterations      ....    16
   Max. Number of Macro iterations      .... Maxiter - #DIIS iter
   Number of Davidson start vectors     ....     2
   Converg. threshold I  (grad. norm)   ....   1.000e-05
   Converg. threshold II (energy diff.) ....   1.000e-08
   Grad. Scal. Fac. for Micro threshold ....   0.100
   Minimum threshold for Micro iter.    ....   0.010
   NR start threshold (gradient norm)   ....   0.001
   Initial trust radius                 ....   0.400
   Minimum AH scaling param. (alpha)    ....   1.000
   Maximum AH scaling param. (alpha)    .... 1000.000
   Orbital update algorithm             .... Taylor
   White noise on init. David. guess    .... on
   Maximum white noise                  ....   0.010
   Quad. conv. algorithm                .... NR
 SOSCF                  CNVSOSCF        .... on
   Start iteration      SOSCFMaxIt      ....   150
   Startup grad/error   SOSCFStart      ....  0.003300
 Level Shifting         CNVShift        .... on
   Level shift para.    LevelShift      ....    0.2500
   Turn off err/grad.   ShiftErr        ....    0.0010
 Zerner damping         CNVZerner       .... off
 Static damping         CNVDamp         .... on
   Fraction old density DampFac         ....    0.7000
   Max. Damping (<1)    DampMax         ....    0.9800
   Min. Damping (>=0)   DampMin         ....    0.0000
   Turn off err/grad.   DampErr         ....    0.1000
 Fernandez-Rico         CNVRico         .... off

SCF Procedure:
 Maximum # iterations   MaxIter         ....   125
 SCF integral mode      SCFMode         .... Direct
   Integral package                     .... SHARK and LIBINT hybrid scheme
 Reset frequency        DirectResetFreq ....    20
 Integral Threshold     Thresh          ....  2.500e-11 Eh
 Primitive CutOff       TCut            ....  2.500e-12 Eh

Convergence Tolerance:
 Convergence Check Mode ConvCheckMode   .... Total+1el-Energy
 Convergence forced     ConvForced      .... 0
 Energy Change          TolE            ....  1.000e-08 Eh
 1-El. energy change                    ....  1.000e-05 Eh
 Orbital Gradient       TolG            ....  1.000e-05
 Orbital Rotation angle TolX            ....  1.000e-05
 DIIS Error             TolErr          ....  5.000e-07


Diagonalization of the overlap matrix:
Smallest eigenvalue                        ... 2.940e-04
Time for diagonalization                   ...    0.001 sec
Threshold for overlap eigenvalues          ... 1.000e-08
Number of eigenvalues below threshold      ... 0
Time for construction of square roots      ...    0.001 sec
Total time needed                          ...    0.003 sec

Time for model grid setup =    0.022 sec

------------------------------
INITIAL GUESS: MODEL POTENTIAL
------------------------------
Loading Hartree-Fock densities                     ... done
Calculating cut-offs                               ... done
Initializing the effective Hamiltonian             ... done
Setting up the integral package (SHARK)            ... done
Starting the Coulomb interaction                   ... done (   0.0 sec)
Reading the grid                                   ... done
Mapping shells                                     ... done
Starting the XC term evaluation                    ... done (   0.0 sec)
  promolecular density results
     # of electrons  =     23.997227102
     EX              =    -19.555161806
     EC              =     -0.784310652
     EX+EC           =    -20.339472458
Transforming the Hamiltonian                       ... done (   0.0 sec)
Diagonalizing the Hamiltonian                      ... done (   0.0 sec)
Back transforming the eigenvectors                 ... done (   0.0 sec)
Now organizing SCF variables                       ... done
                      ------------------
                      INITIAL GUESS DONE (   0.0 sec)
                      ------------------
-------------------
DFT GRID GENERATION
-------------------

General Integration Accuracy     IntAcc      ... 4.388
Radial Grid Type                 RadialGrid  ... OptM3 with GC (2021)
Angular Grid (max. ang.)         AngularGrid ... 4 (Lebedev-302)
Angular grid pruning method      GridPruning ... 4 (adaptive)
Weight generation scheme         WeightScheme... Becke
Basis function cutoff            BFCut       ... 1.0000e-11
Integration weight cutoff        WCut        ... 1.0000e-14
Angular grids for H and He will be reduced by one unit
Partially contracted basis set               ... off
Rotationally invariant grid construction     ... off

Total number of grid points                  ...    31307
Total number of batches                      ...      492
Average number of points per batch           ...       63
Average number of grid points per atom       ...     4472
Time for grid setup =    0.109 sec

--------------------
COSX GRID GENERATION
--------------------

GRIDX 1
-------
General Integration Accuracy     IntAcc      ... 3.816
Radial Grid Type                 RadialGrid  ... OptM3 with GC (2021)
Angular Grid (max. ang.)         AngularGrid ... 1 (Lebedev-50)
Angular grid pruning method      GridPruning ... 4 (adaptive)
Weight generation scheme         WeightScheme... Becke
Basis function cutoff            BFCut       ... 1.0000e-11
Integration weight cutoff        WCut        ... 1.0000e-14
Angular grids for H and He will be reduced by one unit
Partially contracted basis set               ... on
Rotationally invariant grid construction     ... off

Total number of grid points                  ...     4034
Total number of batches                      ...       68
Average number of points per batch           ...       59
Average number of grid points per atom       ...      576
UseSFitting                                  ... on

GRIDX 2
-------
General Integration Accuracy     IntAcc      ... 4.020
Radial Grid Type                 RadialGrid  ... OptM3 with GC (2021)
Angular Grid (max. ang.)         AngularGrid ... 2 (Lebedev-110)
Angular grid pruning method      GridPruning ... 4 (adaptive)
Weight generation scheme         WeightScheme... Becke
Basis function cutoff            BFCut       ... 1.0000e-11
Integration weight cutoff        WCut        ... 1.0000e-14
Angular grids for H and He will be reduced by one unit
Partially contracted basis set               ... on
Rotationally invariant grid construction     ... off

Total number of grid points                  ...     8709
Total number of batches                      ...      139
Average number of points per batch           ...       62
Average number of grid points per atom       ...     1244
UseSFitting                                  ... on

GRIDX 3
-------
General Integration Accuracy     IntAcc      ... 4.338
Radial Grid Type                 RadialGrid  ... OptM3 with GC (2021)
Angular Grid (max. ang.)         AngularGrid ... 3 (Lebedev-194)
Angular grid pruning method      GridPruning ... 4 (adaptive)
Weight generation scheme         WeightScheme... Becke
Basis function cutoff            BFCut       ... 1.0000e-11
Integration weight cutoff        WCut        ... 1.0000e-14
Angular grids for H and He will be reduced by one unit
Partially contracted basis set               ... on
Rotationally invariant grid construction     ... off

Total number of grid points                  ...    19259
Total number of batches                      ...      306
Average number of points per batch           ...       62
Average number of grid points per atom       ...     2751
UseSFitting                                  ... on

Time for X-Grid setup             =    0.073 sec

--------------
SCF ITERATIONS
--------------
ITER       Energy         Delta-E        Max-DP      RMS-DP      [F,P]     Damp
               ***  Starting incremental Fock matrix formation  ***
  0   -153.5983286956   0.000000000000 0.03504624  0.00118351  0.1762598 0.7000
  1   -153.6292172808  -0.030888585197 0.01931584  0.00087110  0.0743047 0.7000
                               ***Turning on DIIS***
  2   -153.6415142621  -0.012296981287 0.02596469  0.00144479  0.0308838 0.0000
  3   -153.6609490538  -0.019434791634 0.01388853  0.00065041  0.0411516 0.0000
  4   -153.6651951027  -0.004246048962 0.00372238  0.00019133  0.0064777 0.0000
  5   -153.6653667308  -0.000171628079 0.00148678  0.00007096  0.0039533 0.0000
                      *** Initiating the SOSCF procedure ***
                           *** Shutting down DIIS ***
                      *** Re-Reading the Fockian *** 
                      *** Removing any level shift *** 
ITER      Energy       Delta-E        Grad      Rot      Max-DP    RMS-DP
  6   -153.66539063  -0.0000239021  0.000190  0.000190  0.000911  0.000035
               *** Restarting incremental Fock matrix formation ***
  7   -153.66538066   0.0000099702  0.000063  0.000094  0.000116  0.000004
  8   -153.66538063   0.0000000319  0.000096  0.000058  0.000074  0.000003
  9   -153.66538071  -0.0000000760  0.000008  0.000014  0.000016  0.000001
 10   -153.66538071   0.0000000006  0.000011  0.000008  0.000010  0.000000
                 **** Energy Check signals convergence ****
              ***Rediagonalizing the Fockian in SOSCF/NRSCF***

               *****************************************************
               *                     SUCCESS                       *
               *           SCF CONVERGED AFTER  11 CYCLES          *
               *****************************************************

Old exchange energy                            =     -4.996860947 Eh
New exchange energy                            =     -4.996844166 Eh
Exchange energy change after final integration =      0.000016780 Eh
Total energy after final integration           =   -153.665363928 Eh
Final COS-X integration done in                =     0.249 sec

----------------
TOTAL SCF ENERGY
----------------

Total Energy       :         -153.66536393 Eh           -4181.44713 eV

Components:
Nuclear Repulsion  :           76.48734133 Eh            2081.32637 eV
Electronic Energy  :         -230.15270526 Eh           -6262.77350 eV
One Electron Energy:         -359.55238619 Eh           -9783.91783 eV
Two Electron Energy:          129.39968093 Eh            3521.14433 eV
Max COSX asymmetry :            0.00000397 Eh               0.00011 eV

Virial components:
Potential Energy   :         -306.63675740 Eh           -8344.01037 eV
Kinetic Energy     :          152.97139347 Eh            4162.56324 eV
Virial Ratio       :            2.00453660


DFT components:
N(Alpha)           :       12.000002793629 electrons
N(Beta)            :       12.000002793629 electrons
N(Total)           :       24.000005587258 electrons
E(X)               :      -14.958021487266 Eh       
E(C)               :       -0.792844562607 Eh       
E(XC)              :      -15.750866049873 Eh       
DFET-embed. en.    :        0.000000000000 Eh       

---------------
SCF CONVERGENCE
---------------

  Last Energy change         ...   -1.7076e-09  Tolerance :   1.0000e-08
  Last MAX-Density change    ...    9.9920e-16  Tolerance :   1.0000e-07
  Last RMS-Density change    ...    1.7655e-17  Tolerance :   5.0000e-09
  Last Orbital Gradient      ...    2.0168e-07  Tolerance :   1.0000e-05
  Last Orbital Rotation      ...    4.0038e-07  Tolerance :   1.0000e-05

             **** THE GBW FILE WAS UPDATED (ox_gs_A_orca0013.gbw) ****
             **** DENSITY ox_gs_A_orca0013.scfp WAS UPDATED ****
             **** ENERGY FILE WAS UPDATED (ox_gs_A_orca0013.en.tmp) ****
             **** THE GBW FILE WAS UPDATED (ox_gs_A_orca0013.gbw) ****
             **** DENSITY ox_gs_A_orca0013.scfp WAS UPDATED ****
----------------
ORBITAL ENERGIES
----------------

  NO   OCC          E(Eh)            E(eV) 
   0   2.0000     -19.226930      -523.1914 
   1   2.0000     -10.280598      -279.7493 
   2   2.0000     -10.277734      -279.6714 
   3   2.0000      -1.144774       -31.1509 
   4   2.0000      -0.694379       -18.8950 
   5   2.0000      -0.649683       -17.6788 
   6   2.0000      -0.536410       -14.5965 
   7   2.0000      -0.508920       -13.8484 
   8   2.0000      -0.426926       -11.6173 
   9   2.0000      -0.384288       -10.4570 
  10   2.0000      -0.332032        -9.0351 
  11   2.0000      -0.291959        -7.9446 
  12   0.0000       0.057463         1.5636 
  13   0.0000       0.081908         2.2288 
  14   0.0000       0.088358         2.4043 
  15   0.0000       0.091213         2.4820 
  16   0.0000       0.116428         3.1682 
  17   0.0000       0.151080         4.1111 
  18   0.0000       0.190808         5.1921 
  19   0.0000       0.213940         5.8216 
  20   0.0000       0.269309         7.3283 
  21   0.0000       0.273926         7.4539 
  22   0.0000       0.301479         8.2037 
  23   0.0000       0.361488         9.8366 
  24   0.0000       0.381467        10.3802 
  25   0.0000       0.396274        10.7832 
  26   0.0000       0.402659        10.9569 
  27   0.0000       0.429295        11.6817 
  28   0.0000       0.451576        12.2880 
  29   0.0000       0.456122        12.4117 
  30   0.0000       0.486150        13.2288 
  31   0.0000       0.505591        13.7578 
  32   0.0000       0.523267        14.2388 
  33   0.0000       0.704490        19.1701 
  34   0.0000       0.713104        19.4045 
  35   0.0000       0.723216        19.6797 
  36   0.0000       0.828645        22.5486 
  37   0.0000       0.870238        23.6804 
  38   0.0000       0.899433        24.4748 
  39   0.0000       0.944662        25.7056 
  40   0.0000       1.036381        28.2014 
  41   0.0000       1.044528        28.4231 
  42   0.0000       1.062330        28.9075 
  43   0.0000       1.091309        29.6960 
  44   0.0000       1.174140        31.9500 
  45   0.0000       1.373433        37.3730 
  46   0.0000       1.456688        39.6385 
  47   0.0000       1.514987        41.2249 
  48   0.0000       1.524247        41.4769 
  49   0.0000       1.527296        41.5598 
  50   0.0000       1.571325        42.7579 
  51   0.0000       1.617696        44.0198 
  52   0.0000       1.648659        44.8623 
  53   0.0000       1.668974        45.4151 
  54   0.0000       1.767581        48.0983 
  55   0.0000       1.783524        48.5322 
  56   0.0000       1.809184        49.2304 
  57   0.0000       1.923445        52.3396 
  58   0.0000       1.953163        53.1483 
  59   0.0000       1.971793        53.6552 
  60   0.0000       2.116202        57.5848 
  61   0.0000       2.159954        58.7753 
  62   0.0000       2.179946        59.3193 
  63   0.0000       2.244259        61.0694 
  64   0.0000       2.287114        62.2355 
  65   0.0000       2.382921        64.8426 
  66   0.0000       2.415159        65.7198 
  67   0.0000       2.459460        66.9253 
  68   0.0000       2.537813        69.0574 
  69   0.0000       2.581459        70.2451 
  70   0.0000       2.624677        71.4211 
  71   0.0000       2.669197        72.6325 
  72   0.0000       2.689406        73.1825 
  73   0.0000       2.701501        73.5116 
  74   0.0000       2.746839        74.7453 
  75   0.0000       2.829698        77.0000 
  76   0.0000       2.860026        77.8253 
  77   0.0000       2.951050        80.3022 
  78   0.0000       3.025550        82.3294 
  79   0.0000       3.028597        82.4123 
  80   0.0000       3.066502        83.4438 
  81   0.0000       3.096715        84.2659 
  82   0.0000       3.106771        84.5395 
  83   0.0000       3.273126        89.0663 
  84   0.0000       3.329872        90.6104 
  85   0.0000       3.346689        91.0680 
  86   0.0000       3.378461        91.9326 
  87   0.0000       3.422033        93.1183 
  88   0.0000       3.542945        96.4084 
  89   0.0000       3.631878        98.8284 
  90   0.0000       3.656237        99.4913 
  91   0.0000       3.734916       101.6322 
  92   0.0000       3.912498       106.4645 
  93   0.0000       3.968974       108.0013 
  94   0.0000       4.077817       110.9630 
  95   0.0000       4.148804       112.8947 
  96   0.0000       4.231932       115.1567 
  97   0.0000       4.255300       115.7926 
  98   0.0000       4.358612       118.6039 
  99   0.0000       4.587919       124.8436 
 100   0.0000       4.688207       127.5726 
 101   0.0000       4.837756       131.6420 
 102   0.0000       5.326835       144.9506 
 103   0.0000       5.496604       149.5702 
 104   0.0000       5.766522       156.9150 
 105   0.0000       5.808268       158.0510 
 106   0.0000       5.859634       159.4488 
 107   0.0000       5.986531       162.9018 
 108   0.0000       6.133763       166.9082 
 109   0.0000       6.623665       180.2391 
 110   0.0000       6.660362       181.2377 
 111   0.0000       6.820152       185.5858 
 112   0.0000       6.981062       189.9644 
 113   0.0000       7.175013       195.2420 
 114   0.0000      22.258209       605.6767 
 115   0.0000      22.483569       611.8090 
 116   0.0000      43.902091      1194.6366 

                    ********************************
                    * MULLIKEN POPULATION ANALYSIS *
                    ********************************

-----------------------
MULLIKEN ATOMIC CHARGES
-----------------------
   0 O :   -0.300405
   1 C :   -0.080794
   2 C :   -0.054424
   3 H :    0.102196
   4 H :    0.125677
   5 H :    0.100557
   6 H :    0.107193
Sum of atomic charges:   -0.0000000

--------------------------------
MULLIKEN REDUCED ORBITAL CHARGES
--------------------------------
  0 O s       :     3.843697  s :     3.843697
      pz      :     1.808071  p :     4.405510
      px      :     1.310530
      py      :     1.286910
      dz2     :     0.006115  d :     0.048629
      dxz     :     0.003171
      dyz     :     0.007959
      dx2y2   :     0.014157
      dxy     :     0.017227
      f0      :     0.000317  f :     0.002568
      f+1     :     0.000225
      f-1     :     0.000507
      f+2     :     0.000106
      f-2     :     0.000249
      f+3     :     0.000404
      f-3     :     0.000760
  1 C s       :     3.226449  s :     3.226449
      pz      :     1.035083  p :     2.724661
      px      :     0.912000
      py      :     0.777578
      dz2     :     0.006122  d :     0.117150
      dxz     :     0.027737
      dyz     :     0.031928
      dx2y2   :     0.030662
      dxy     :     0.020702
      f0      :     0.001755  f :     0.012534
      f+1     :     0.001324
      f-1     :     0.000649
      f+2     :     0.001419
      f-2     :     0.001851
      f+3     :     0.002268
      f-3     :     0.003269
  2 C s       :     3.212794  s :     3.212794
      pz      :     1.028538  p :     2.703757
      px      :     0.902399
      py      :     0.772820
      dz2     :     0.005326  d :     0.124774
      dxz     :     0.029229
      dyz     :     0.034667
      dx2y2   :     0.032984
      dxy     :     0.022569
      f0      :     0.001785  f :     0.013100
      f+1     :     0.001407
      f-1     :     0.000729
      f+2     :     0.001374
      f-2     :     0.002039
      f+3     :     0.002274
      f-3     :     0.003492
  3 H s       :     0.878593  s :     0.878593
      pz      :     0.010891  p :     0.019211
      px      :     0.004808
      py      :     0.003512
  4 H s       :     0.854094  s :     0.854094
      pz      :     0.009777  p :     0.020229
      px      :     0.007019
      py      :     0.003433
  5 H s       :     0.880307  s :     0.880307
      pz      :     0.009980  p :     0.019136
      px      :     0.005778
      py      :     0.003377
  6 H s       :     0.872087  s :     0.872087
      pz      :     0.010697  p :     0.020719
      px      :     0.006175
      py      :     0.003847


                     *******************************
                     * LOEWDIN POPULATION ANALYSIS *
                     *******************************

----------------------
LOEWDIN ATOMIC CHARGES
----------------------
   0 O :    0.189245
   1 C :   -0.326150
   2 C :   -0.361554
   3 H :    0.130111
   4 H :    0.124057
   5 H :    0.125897
   6 H :    0.118394

-------------------------------
LOEWDIN REDUCED ORBITAL CHARGES
-------------------------------
  0 O s       :     3.331967  s :     3.331967
      pz      :     1.675883  p :     4.360328
      px      :     1.289036
      py      :     1.395409
      dz2     :     0.012292  d :     0.109913
      dxz     :     0.009930
      dyz     :     0.018418
      dx2y2   :     0.040548
      dxy     :     0.028725
      f0      :     0.000837  f :     0.008547
      f+1     :     0.000307
      f-1     :     0.001025
      f+2     :     0.000201
      f-2     :     0.001210
      f+3     :     0.001423
      f-3     :     0.003544
  1 C s       :     2.828068  s :     2.828068
      pz      :     1.032323  p :     2.918409
      px      :     1.044655
      py      :     0.841431
      dz2     :     0.054546  d :     0.498703
      dxz     :     0.140853
      dyz     :     0.090087
      dx2y2   :     0.111435
      dxy     :     0.101781
      f0      :     0.011728  f :     0.080970
      f+1     :     0.005876
      f-1     :     0.005979
      f+2     :     0.009049
      f-2     :     0.007820
      f+3     :     0.016121
      f-3     :     0.024397
  2 C s       :     2.814797  s :     2.814797
      pz      :     1.030596  p :     2.918258
      px      :     1.038357
      py      :     0.849305
      dz2     :     0.055416  d :     0.540005
      dxz     :     0.148199
      dyz     :     0.103327
      dx2y2   :     0.120084
      dxy     :     0.112978
      f0      :     0.012686  f :     0.088493
      f+1     :     0.006421
      f-1     :     0.006325
      f+2     :     0.009237
      f-2     :     0.009545
      f+3     :     0.017218
      f-3     :     0.027062
  3 H s       :     0.818338  s :     0.818338
      pz      :     0.029952  p :     0.051552
      px      :     0.012181
      py      :     0.009418
  4 H s       :     0.818749  s :     0.818749
      pz      :     0.028998  p :     0.057194
      px      :     0.018198
      py      :     0.009998
  5 H s       :     0.822262  s :     0.822262
      pz      :     0.028257  p :     0.051841
      px      :     0.014257
      py      :     0.009327
  6 H s       :     0.822744  s :     0.822744
      pz      :     0.031477  p :     0.058862
      px      :     0.016173
      py      :     0.011211


                      *****************************
                      * MAYER POPULATION ANALYSIS *
                      *****************************

  NA   - Mulliken gross atomic population
  ZA   - Total nuclear charge
  QA   - Mulliken gross atomic charge
  VA   - Mayer's total valence
  BVA  - Mayer's bonded valence
  FA   - Mayer's free valence

  ATOM       NA         ZA         QA         VA         BVA        FA
  0 O      8.3004     8.0000    -0.3004     2.0222     2.0222    -0.0000
  1 C      6.0808     6.0000    -0.0808     3.9708     3.9708     0.0000
  2 C      6.0544     6.0000    -0.0544     3.9910     3.9910     0.0000
  3 H      0.8978     1.0000     0.1022     0.9633     0.9633    -0.0000
  4 H      0.8743     1.0000     0.1257     0.9607     0.9607     0.0000
  5 H      0.8994     1.0000     0.1006     0.9614     0.9614    -0.0000
  6 H      0.8928     1.0000     0.1072     0.9593     0.9593     0.0000

  Mayer bond orders larger than 0.100000
B(  0-O ,  1-C ) :   0.9818 B(  0-O ,  2-C ) :   1.0055 B(  1-C ,  2-C ) :   1.0769 
B(  1-C ,  3-H ) :   0.9481 B(  1-C ,  4-H ) :   0.9462 B(  2-C ,  5-H ) :   0.9451 
B(  2-C ,  6-H ) :   0.9467 

-------
TIMINGS
-------

Total SCF time: 0 days 0 hours 0 min 2 sec 

Total time                  ....       2.472 sec
Sum of individual times     ....       2.286 sec  ( 92.5%)

Fock matrix formation       ....       2.022 sec  ( 81.8%)
  Split-RI-J                ....       0.229 sec  ( 11.3% of F)
  Chain of spheres X        ....       1.381 sec  ( 68.3% of F)
  XC integration            ....       0.390 sec  ( 19.3% of F)
    Basis function eval.    ....       0.103 sec  ( 26.5% of XC)
    Density eval.           ....       0.080 sec  ( 20.5% of XC)
    XC-Functional eval.     ....       0.021 sec  (  5.5% of XC)
    XC-Potential eval.      ....       0.137 sec  ( 35.1% of XC)
Diagonalization             ....       0.015 sec  (  0.6%)
Density matrix formation    ....       0.001 sec  (  0.1%)
Population analysis         ....       0.002 sec  (  0.1%)
Initial guess               ....       0.017 sec  (  0.7%)
Orbital Transformation      ....       0.000 sec  (  0.0%)
Orbital Orthonormalization  ....       0.000 sec  (  0.0%)
DIIS solution               ....       0.013 sec  (  0.5%)
SOSCF solution              ....       0.011 sec  (  0.4%)
Grid generation             ....       0.204 sec  (  8.3%)

Maximum memory used throughout the entire SCF-calculation: 61.1 MB


-------------------------------------------------------------------------------
                          DFT DISPERSION CORRECTION                            
                                                                               
                              DFTD3 V3.1  Rev 1                                
                          USING Becke-Johnson damping                          
-------------------------------------------------------------------------------
The PBE0 functional is recognized
Active option DFTDOPT                   ...         4   

molecular C6(AA) [au] = 351.060805 


            DFT-D V3
 parameters
 s6 scaling factor         :     1.0000 
 a1 scaling factor         :     0.4145 
 s8 scaling factor         :     1.2177 
 a2 scaling factor         :     4.8593 
 ad hoc parameters k1-k3   :    16.0000     1.3333    -4.0000 

 Edisp/kcal,au: -1.508694709688  -0.002404257802 
 E6   /kcal   :  -0.989144229 
 E8   /kcal   :  -0.519550481 
 % E8         :  34.437085107 

-------------------------   ----------------
Dispersion correction           -0.002404258
-------------------------   ----------------


-------------------------   --------------------
FINAL SINGLE POINT ENERGY      -153.667768185408
-------------------------   --------------------



           ************************************************************
           *        Program running with 8 parallel MPI-processes     *
           *              working on a common directory               *
           ************************************************************
------------------------------------------------------------------------------
                         ORCA SCF GRADIENT CALCULATION
------------------------------------------------------------------------------

 ... reading COSX grid (gridx3)
Gradient of the Kohn-Sham DFT energy:
Kohn-Sham wavefunction type      ... RKS
Hartree-Fock exchange scaling    ...    0.250
Number of operators              ...    1
Number of atoms                  ...    7
Basis set dimensions             ...  117
Integral neglect threshold       ... 2.5e-11
Integral primitive cutoff        ... 2.5e-12
SHARK Integral package           ... ON

Nuc. rep. gradient       (SHARK) ... done (  0.0 sec)
HCore & Overlap gradient (SHARK) ... done (  0.0 sec)
RI-J gradient            (SHARK) ... done (  0.1 sec)
COSX-gradient                    ... done (  0.3 sec)
Exchange-correlation gradient    ... done
Dispersion correction            ... done

------------------
CARTESIAN GRADIENT
------------------

   1   O   :    0.010788841   -0.039272209    0.000709948
   2   C   :    0.048646894    0.018635754   -0.031547786
   3   C   :   -0.052976922    0.039413124    0.032873430
   4   H   :   -0.005631185   -0.007153749    0.033829954
   5   H   :   -0.016248387   -0.001629987   -0.014392323
   6   H   :    0.012822484   -0.008649590   -0.027793667
   7   H   :    0.002603473   -0.001595506    0.006369061

Difference to translation invariance:
           :    0.0000051976   -0.0002521635    0.0000486184

Difference to rotation invariance:
           :   -0.0000194282    0.0000449022   -0.0000287580

Norm of the cartesian gradient     ...    0.1164974723
RMS gradient                       ...    0.0254218326
MAX gradient                       ...    0.0529769221

-------
TIMINGS
-------

Total SCF gradient time            ...        0.677 sec

One electron gradient       ....       0.010 sec  (  1.4%)
RI-J Coulomb gradient       ....       0.074 sec  ( 10.9%)
COSX gradient               ....       0.299 sec  ( 44.2%)
XC gradient                 ....       0.156 sec  ( 23.0%)

Maximum memory used throughout the entire SCFGRAD-calculation: 35.9 MB

                            ***************************************
                            *     ORCA property calculations      *
                            ***************************************

                                    ---------------------
                                    Active property flags
                                    ---------------------
   (+) Dipole Moment


------------------------------------------------------------------------------
                       ORCA ELECTRIC PROPERTIES CALCULATION
------------------------------------------------------------------------------

Dipole Moment Calculation                       ... on
Quadrupole Moment Calculation                   ... off
Polarizability Calculation                      ... off
GBWName                                         ... ox_gs_A_orca0013.gbw
Electron density                                ... ox_gs_A_orca0013.scfp
The origin for moment calculation is the CENTER OF MASS  = (-0.005697, -0.101723  0.041983)

-------------
DIPOLE MOMENT
-------------
                                X             Y             Z
Electronic contribution:      0.00330       1.76469      -0.07744
Nuclear contribution   :     -0.01575      -2.41645       0.07439
                        -----------------------------------------
Total Dipole Moment    :     -0.01245      -0.65175      -0.00305
                        -----------------------------------------
Magnitude (a.u.)       :      0.65188
Magnitude (Debye)      :      1.65695



--------------------
Rotational spectrum 
--------------------
 
Rotational constants in cm-1:     0.896943     0.751197     0.497154 
Rotational constants in MHz : 26889.683720 22520.332322 14904.299390 

 Dipole components along the rotational axes: 
x,y,z [a.u.] :     0.081140    -0.646783    -0.005889 
x,y,z [Debye]:     0.206241    -1.643993    -0.014969 

 

Timings for individual modules:

Sum of individual times         ...        3.911 sec (=   0.065 min)
GTO integral calculation        ...        0.325 sec (=   0.005 min)   8.3 %
SCF iterations                  ...        2.679 sec (=   0.045 min)  68.5 %
SCF Gradient evaluation         ...        0.906 sec (=   0.015 min)  23.2 %
                             ****ORCA TERMINATED NORMALLY****
TOTAL RUN TIME: 0 days 0 hours 0 minutes 4 seconds 192 msec
