
                                 *****************
                                 * O   R   C   A *
                                 *****************

                                            #,                                       
                                            ###                                      
                                            ####                                     
                                            #####                                    
                                            ######                                   
                                           ########,                                 
                                     ,,################,,,,,                         
                               ,,#################################,,                 
                          ,,##########################################,,             
                       ,#########################################, ''#####,          
                    ,#############################################,,   '####,        
                  ,##################################################,,,,####,       
                ,###########''''           ''''###############################       
              ,#####''   ,,,,##########,,,,          '''####'''          '####       
            ,##' ,,,,###########################,,,                        '##       
           ' ,,###''''                  '''############,,,                           
         ,,##''                                '''############,,,,        ,,,,,,###''
      ,#''                                            '''#######################'''  
     '                                                          ''''####''''         
             ,#######,   #######,   ,#######,      ##                                
            ,#'     '#,  ##    ##  ,#'     '#,    #''#        ######   ,####,        
            ##       ##  ##   ,#'  ##            #'  '#       #        #'  '#        
            ##       ##  #######   ##           ,######,      #####,   #    #        
            '#,     ,#'  ##    ##  '#,     ,#' ,#      #,         ##   #,  ,#        
             '#######'   ##     ##  '#######'  #'      '#     #####' # '####'        



                  #######################################################
                  #                        -***-                        #
                  #          Department of theory and spectroscopy      #
                  #    Directorship and core code : Frank Neese         #
                  #        Max Planck Institute fuer Kohlenforschung    #
                  #                Kaiser Wilhelm Platz 1               #
                  #                 D-45470 Muelheim/Ruhr               #
                  #                      Germany                        #
                  #                                                     #
                  #                  All rights reserved                #
                  #                        -***-                        #
                  #######################################################


                         Program Version 5.0.2 -  RELEASE  -


 With contributions from (in alphabetic order):
   Daniel Aravena         : Magnetic Suceptibility
   Michael Atanasov       : Ab Initio Ligand Field Theory (pilot matlab implementation)
   Alexander A. Auer      : GIAO ZORA, VPT2 properties, NMR spectrum
   Ute Becker             : Parallelization
   Giovanni Bistoni       : ED, misc. LED, open-shell LED, HFLD
   Martin Brehm           : Molecular dynamics
   Dmytro Bykov           : SCF Hessian
   Vijay G. Chilkuri      : MRCI spin determinant printing, contributions to CSF-ICE
   Dipayan Datta          : RHF DLPNO-CCSD density
   Achintya Kumar Dutta   : EOM-CC, STEOM-CC
   Dmitry Ganyushin       : Spin-Orbit,Spin-Spin,Magnetic field MRCI
   Miquel Garcia          : C-PCM and meta-GGA Hessian, CC/C-PCM, Gaussian charge scheme
   Yang Guo               : DLPNO-NEVPT2, F12-NEVPT2, CIM, IAO-localization
   Andreas Hansen         : Spin unrestricted coupled pair/coupled cluster methods
   Benjamin Helmich-Paris : MC-RPA, TRAH-SCF, COSX integrals
   Lee Huntington         : MR-EOM, pCC
   Robert Izsak           : Overlap fitted RIJCOSX, COSX-SCS-MP3, EOM
   Marcus Kettner         : VPT2
   Christian Kollmar      : KDIIS, OOCD, Brueckner-CCSD(T), CCSD density, CASPT2, CASPT2-K
   Simone Kossmann        : Meta GGA functionals, TD-DFT gradient, OOMP2, MP2 Hessian
   Martin Krupicka        : Initial AUTO-CI
   Lucas Lang             : DCDCAS
   Marvin Lechner         : AUTO-CI (C++ implementation), FIC-MRCC
   Dagmar Lenk            : GEPOL surface, SMD
   Dimitrios Liakos       : Extrapolation schemes; Compound Job, initial MDCI parallelization
   Dimitrios Manganas     : Further ROCIS development; embedding schemes
   Dimitrios Pantazis     : SARC Basis sets
   Anastasios Papadopoulos: AUTO-CI, single reference methods and gradients
   Taras Petrenko         : DFT Hessian,TD-DFT gradient, ASA, ECA, R-Raman, ABS, FL, XAS/XES, NRVS
   Peter Pinski           : DLPNO-MP2, DLPNO-MP2 Gradient
   Christoph Reimann      : Effective Core Potentials
   Marius Retegan         : Local ZFS, SOC
   Christoph Riplinger    : Optimizer, TS searches, QM/MM, DLPNO-CCSD(T), (RO)-DLPNO pert. Triples
   Tobias Risthaus        : Range-separated hybrids, TD-DFT gradient, RPA, STAB
   Michael Roemelt        : Original ROCIS implementation
   Masaaki Saitow         : Open-shell DLPNO-CCSD energy and density
   Barbara Sandhoefer     : DKH picture change effects
   Avijit Sen             : IP-ROCIS
   Kantharuban Sivalingam : CASSCF convergence, NEVPT2, FIC-MRCI
   Bernardo de Souza      : ESD, SOC TD-DFT
   Georgi Stoychev        : AutoAux, RI-MP2 NMR, DLPNO-MP2 response
   Willem Van den Heuvel  : Paramagnetic NMR
   Boris Wezisla          : Elementary symmetry handling
   Frank Wennmohs         : Technical directorship


 We gratefully acknowledge several colleagues who have allowed us to
 interface, adapt or use parts of their codes:
   Stefan Grimme, W. Hujo, H. Kruse, P. Pracht,  : VdW corrections, initial TS optimization,
                  C. Bannwarth, S. Ehlert          DFT functionals, gCP, sTDA/sTD-DF
   Ed Valeev, F. Pavosevic, A. Kumar             : LibInt (2-el integral package), F12 methods
   Garnet Chan, S. Sharma, J. Yang, R. Olivares  : DMRG
   Ulf Ekstrom                                   : XCFun DFT Library
   Mihaly Kallay                                 : mrcc  (arbitrary order and MRCC methods)
   Jiri Pittner, Ondrej Demel                    : Mk-CCSD
   Frank Weinhold                                : gennbo (NPA and NBO analysis)
   Christopher J. Cramer and Donald G. Truhlar   : smd solvation model
   Lars Goerigk                                  : TD-DFT with DH, B97 family of functionals
   V. Asgeirsson, H. Jonsson                     : NEB implementation
   FAccTs GmbH                                   : IRC, NEB, NEB-TS, DLPNO-Multilevel, CI-OPT
                                                   MM, QMMM, 2- and 3-layer-ONIOM, Crystal-QMMM,
                                                   LR-CPCM, SF, NACMEs, symmetry and pop. for TD-DFT,
                                                   nearIR, NL-DFT gradient (VV10), updates on ESD,
                                                   ML-optimized integration grids
   S Lehtola, MJT Oliveira, MAL Marques          : LibXC Library
   Liviu Ungur et al                             : ANISO software


 Your calculation uses the libint2 library for the computation of 2-el integrals
 For citations please refer to: http://libint.valeyev.net

 Your ORCA version has been built with support for libXC version: 5.1.0
 For citations please refer to: https://tddft.org/programs/libxc/

 This ORCA versions uses:
   CBLAS   interface :  Fast vector & matrix operations
   LAPACKE interface :  Fast linear algebra routines
   SCALAPACK package :  Parallel linear algebra routines
   Shared memory     :  Shared parallel matrices
   BLAS/LAPACK       :  OpenBLAS 0.3.15  USE64BITINT DYNAMIC_ARCH NO_AFFINITY SkylakeX SINGLE_THREADED
        Core in use  :  SkylakeX
   Copyright (c) 2011-2014, The OpenBLAS Project


Your calculation utilizes the atom-pairwise dispersion correction
with the Becke-Johnson damping scheme (D3BJ)
Cite in your paper:
S.Grimme, S.Ehrlich, L.Goerigk, J Comput Chem, (2011), 32, 1456–1465 
S.Grimme, J.Antony, S.Ehrlich and H.Krieg, J.Chem.Phys., 132, (2010), 154104 
   

================================================================================

----- Orbital basis set information -----
Your calculation utilizes the basis: def2-TZVP
   F. Weigend and R. Ahlrichs, Phys. Chem. Chem. Phys. 7, 3297 (2005).

----- AuxJ basis set information -----
Your calculation utilizes the auxiliary basis: def2/J
   F. Weigend, Phys. Chem. Chem. Phys. 8, 1057 (2006).

================================================================================
                                        WARNINGS
                       Please study these warnings very carefully!
================================================================================


INFO   : the flag for use of the SHARK integral package has been found!

================================================================================
                                       INPUT FILE
================================================================================
NAME = ox_gs_F_orca0000.inp
|  1> ! engrad PBE0 D3BJ def2-TZVP  
|  2> %pal nprocs 8 end
|  3> %maxcore 3000
|  4>  
|  5> *xyz 0 1 
|  6> O   -1.265058514003664 0.9132293698639687 0.055134151675986426
|  7> C   -0.7544984765587788 -0.46029148298487277 -0.0808503006753906
|  8> C   0.7153138155710214 -0.3997427774984171 -0.031349639334271755
|  9> H   -1.2771202940971755 -0.6339061312405424 1.0223990654318929
| 10> H   -1.2869007175906662 -0.6338785388415773 -0.869570088871734
| 11> H   1.2559973709213061 -0.6232669834812637 -0.8699526538929536
| 12> H   1.298241618012366 -0.7623255980631373 0.9629740774466586
| 13> *
| 14> 
| 15>                          ****END OF INPUT****
================================================================================

                     *******************************
                     * Energy+Gradient Calculation *
                     *******************************

---------------------------------
CARTESIAN COORDINATES (ANGSTROEM)
---------------------------------
  O     -1.265059    0.913229    0.055134
  C     -0.754498   -0.460291   -0.080850
  C      0.715314   -0.399743   -0.031350
  H     -1.277120   -0.633906    1.022399
  H     -1.286901   -0.633879   -0.869570
  H      1.255997   -0.623267   -0.869953
  H      1.298242   -0.762326    0.962974

----------------------------
CARTESIAN COORDINATES (A.U.)
----------------------------
  NO LB      ZA    FRAG     MASS         X           Y           Z
   0 O     8.0000    0    15.999   -2.390614    1.725753    0.104188
   1 C     6.0000    0    12.011   -1.425795   -0.869825   -0.152785
   2 C     6.0000    0    12.011    1.351747   -0.755404   -0.059242
   3 H     1.0000    0     1.008   -2.413408   -1.197909    1.932054
   4 H     1.0000    0     1.008   -2.431890   -1.197857   -1.643249
   5 H     1.0000    0     1.008    2.373491   -1.177804   -1.643972
   6 H     1.0000    0     1.008    2.453321   -1.440587    1.819757

--------------------------------
INTERNAL COORDINATES (ANGSTROEM)
--------------------------------
 O      0   0   0     0.000000000000     0.00000000     0.00000000
 C      1   0   0     1.471639513036     0.00000000     0.00000000
 C      2   1   0     1.471891516147   107.75462563     0.00000000
 H      2   1   3     1.233059112157    84.35826300   112.91124541
 H      2   1   3     0.967297015662    92.97399858   230.86728475
 H      3   2   1     1.022524715454   119.43607223   247.79980073
 H      3   2   1     1.208284229137   119.80780625   105.42706201

---------------------------
INTERNAL COORDINATES (A.U.)
---------------------------
 O      0   0   0     0.000000000000     0.00000000     0.00000000
 C      1   0   0     2.780995647495     0.00000000     0.00000000
 C      2   1   0     2.781471864360   107.75462563     0.00000000
 H      2   1   3     2.330144028912    84.35826300   112.91124541
 H      2   1   3     1.827926449761    92.97399858   230.86728475
 H      3   2   1     1.932291677373   119.43607223   247.79980073
 H      3   2   1     2.283326285005   119.80780625   105.42706201

---------------------
BASIS SET INFORMATION
---------------------
There are 3 groups of distinct atoms

 Group   1 Type O   : 11s6p2d1f contracted to 5s3p2d1f pattern {62111/411/11/1}
 Group   2 Type C   : 11s6p2d1f contracted to 5s3p2d1f pattern {62111/411/11/1}
 Group   3 Type H   : 5s1p contracted to 3s1p pattern {311/1}

Atom   0O    basis set group =>   1
Atom   1C    basis set group =>   2
Atom   2C    basis set group =>   2
Atom   3H    basis set group =>   3
Atom   4H    basis set group =>   3
Atom   5H    basis set group =>   3
Atom   6H    basis set group =>   3
---------------------------------
AUXILIARY/J BASIS SET INFORMATION
---------------------------------
There are 3 groups of distinct atoms

 Group   1 Type O   : 12s5p4d2f1g contracted to 6s4p3d1f1g pattern {711111/2111/211/2/1}
 Group   2 Type C   : 12s5p4d2f1g contracted to 6s4p3d1f1g pattern {711111/2111/211/2/1}
 Group   3 Type H   : 5s2p1d contracted to 3s1p1d pattern {311/2/1}

Atom   0O    basis set group =>   1
Atom   1C    basis set group =>   2
Atom   2C    basis set group =>   2
Atom   3H    basis set group =>   3
Atom   4H    basis set group =>   3
Atom   5H    basis set group =>   3
Atom   6H    basis set group =>   3


           ************************************************************
           *        Program running with 8 parallel MPI-processes     *
           *              working on a common directory               *
           ************************************************************
------------------------------------------------------------------------------
                           ORCA GTO INTEGRAL CALCULATION
                           -- RI-GTO INTEGRALS CHOSEN --
------------------------------------------------------------------------------
------------------------------------------------------------------------------
                   ___                                                        
                  /   \      - P O W E R E D   B Y -                         
                 /     \                                                     
                 |  |  |   _    _      __       _____    __    __             
                 |  |  |  | |  | |    /  \     |  _  \  |  |  /  |          
                  \  \/   | |  | |   /    \    | | | |  |  | /  /          
                 / \  \   | |__| |  /  /\  \   | |_| |  |  |/  /          
                |  |  |   |  __  | /  /__\  \  |    /   |      \           
                |  |  |   | |  | | |   __   |  |    \   |  |\   \          
                \     /   | |  | | |  |  |  |  | |\  \  |  | \   \       
                 \___/    |_|  |_| |__|  |__|  |_| \__\ |__|  \__/        
                                                                              
                      - O R C A' S   B I G   F R I E N D -                    
                                      &                                       
                       - I N T E G R A L  F E E D E R -                       
                                                                              
 v1 FN, 2020, v2 2021                                                         
------------------------------------------------------------------------------


Reading SHARK input file ox_gs_F_orca0000.SHARKINP.tmp ... ok
----------------------
SHARK INTEGRAL PACKAGE
----------------------

Number of atoms                             ...      7
Number of basis functions                   ...    117
Number of shells                            ...     49
Maximum angular momentum                    ...      3
Integral batch strategy                     ... SHARK/LIBINT Hybrid
RI-J (if used) integral strategy            ... SPLIT-RIJ (Revised 2003 algorithm where possible)
Printlevel                                  ...      1
Contraction scheme used                     ... SEGMENTED contraction
Coulomb Range Separation                    ... NOT USED
Exchange Range Separation                   ... NOT USED
Finite Nucleus Model                        ... NOT USED
Auxiliary Coulomb fitting basis             ... AVAILABLE
   # of basis functions in Aux-J            ...    191
   # of shells in Aux-J                     ...     65
   Maximum angular momentum in Aux-J        ...      4
Auxiliary J/K fitting basis                 ... NOT available
Auxiliary Correlation fitting basis         ... NOT available
Auxiliary 'external' fitting basis          ... NOT available
Integral threshold                          ...     2.500000e-11
Primitive cut-off                           ...     2.500000e-12
Primitive pair pre-selection threshold      ...     2.500000e-12

Calculating pre-screening integrals         ... done (  0.0 sec) Dimension = 49
Organizing shell pair data                  ... done (  0.0 sec)
Shell pair information
Total number of shell pairs                 ...      1225
Shell pairs after pre-screening             ...      1211
Total number of primitive shell pairs       ...      3648
Primitive shell pairs kept                  ...      3058
          la=0 lb=0:    367 shell pairs
          la=1 lb=0:    349 shell pairs
          la=1 lb=1:     91 shell pairs
          la=2 lb=0:    161 shell pairs
          la=2 lb=1:     78 shell pairs
          la=2 lb=2:     21 shell pairs
          la=3 lb=0:     81 shell pairs
          la=3 lb=1:     39 shell pairs
          la=3 lb=2:     18 shell pairs
          la=3 lb=3:      6 shell pairs

Calculating one electron integrals          ... done (  0.0 sec)
Calculating RI/J V-Matrix + Cholesky decomp.... done (  0.0 sec)
Calculating Nuclear repulsion               ... done (  0.0 sec) ENN=     66.841801110643 Eh

SHARK setup successfully completed in   0.1 seconds

Maximum memory used throughout the entire GTOINT-calculation: 14.9 MB


           ************************************************************
           *        Program running with 8 parallel MPI-processes     *
           *              working on a common directory               *
           ************************************************************
-------------------------------------------------------------------------------
                                 ORCA SCF
-------------------------------------------------------------------------------

------------
SCF SETTINGS
------------
Hamiltonian:
 Density Functional     Method          .... DFT(GTOs)
 Exchange Functional    Exchange        .... PBE
   PBE kappa parameter   XKappa         ....  0.804000
   PBE mue parameter    XMuePBE         ....  0.219520
 Correlation Functional Correlation     .... PBE
   PBE beta parameter  CBetaPBE         ....  0.066725
 LDA part of GGA corr.  LDAOpt          .... PW91-LDA
 Gradients option       PostSCFGGA      .... off
 Hybrid DFT is turned on
   Fraction HF Exchange ScalHFX         ....  0.250000
   Scaling of DF-GGA-X  ScalDFX         ....  0.750000
   Scaling of DF-GGA-C  ScalDFC         ....  1.000000
   Scaling of DF-LDA-C  ScalLDAC        ....  1.000000
   Perturbative correction              ....  0.000000
   Density functional embedding theory  .... OFF
   NL short-range parameter             ....  6.900000
 RI-approximation to the Coulomb term is turned on
   Number of AuxJ basis functions       .... 191
   RIJ-COSX (HFX calculated with COS-X)).... on


General Settings:
 Integral files         IntName         .... ox_gs_F_orca0000
 Hartree-Fock type      HFTyp           .... RHF
 Total Charge           Charge          ....    0
 Multiplicity           Mult            ....    1
 Number of Electrons    NEL             ....   24
 Basis Dimension        Dim             ....  117
 Nuclear Repulsion      ENuc            ....     66.8418011106 Eh

Convergence Acceleration:
 DIIS                   CNVDIIS         .... on
   Start iteration      DIISMaxIt       ....    12
   Startup error        DIISStart       ....  0.200000
   # of expansion vecs  DIISMaxEq       ....     5
   Bias factor          DIISBfac        ....   1.050
   Max. coefficient     DIISMaxC        ....  10.000
 Trust-Rad. Augm. Hess. CNVTRAH         .... auto
   Auto Start mean grad. ratio tolernc. ....  1.125000
   Auto Start start iteration           ....    20
   Auto Start num. interpolation iter.  ....    10
   Max. Number of Micro iterations      ....    16
   Max. Number of Macro iterations      .... Maxiter - #DIIS iter
   Number of Davidson start vectors     ....     2
   Converg. threshold I  (grad. norm)   ....   1.000e-05
   Converg. threshold II (energy diff.) ....   1.000e-08
   Grad. Scal. Fac. for Micro threshold ....   0.100
   Minimum threshold for Micro iter.    ....   0.010
   NR start threshold (gradient norm)   ....   0.001
   Initial trust radius                 ....   0.400
   Minimum AH scaling param. (alpha)    ....   1.000
   Maximum AH scaling param. (alpha)    .... 1000.000
   Orbital update algorithm             .... Taylor
   White noise on init. David. guess    .... on
   Maximum white noise                  ....   0.010
   Quad. conv. algorithm                .... NR
 SOSCF                  CNVSOSCF        .... on
   Start iteration      SOSCFMaxIt      ....   150
   Startup grad/error   SOSCFStart      ....  0.003300
 Level Shifting         CNVShift        .... on
   Level shift para.    LevelShift      ....    0.2500
   Turn off err/grad.   ShiftErr        ....    0.0010
 Zerner damping         CNVZerner       .... off
 Static damping         CNVDamp         .... on
   Fraction old density DampFac         ....    0.7000
   Max. Damping (<1)    DampMax         ....    0.9800
   Min. Damping (>=0)   DampMin         ....    0.0000
   Turn off err/grad.   DampErr         ....    0.1000
 Fernandez-Rico         CNVRico         .... off

SCF Procedure:
 Maximum # iterations   MaxIter         ....   125
 SCF integral mode      SCFMode         .... Direct
   Integral package                     .... SHARK and LIBINT hybrid scheme
 Reset frequency        DirectResetFreq ....    20
 Integral Threshold     Thresh          ....  2.500e-11 Eh
 Primitive CutOff       TCut            ....  2.500e-12 Eh

Convergence Tolerance:
 Convergence Check Mode ConvCheckMode   .... Total+1el-Energy
 Convergence forced     ConvForced      .... 0
 Energy Change          TolE            ....  1.000e-08 Eh
 1-El. energy change                    ....  1.000e-05 Eh
 Orbital Gradient       TolG            ....  1.000e-05
 Orbital Rotation angle TolX            ....  1.000e-05
 DIIS Error             TolErr          ....  5.000e-07


Diagonalization of the overlap matrix:
Smallest eigenvalue                        ... 5.203e-04
Time for diagonalization                   ...    0.001 sec
Threshold for overlap eigenvalues          ... 1.000e-08
Number of eigenvalues below threshold      ... 0
Time for construction of square roots      ...    0.001 sec
Total time needed                          ...    0.003 sec

Time for model grid setup =    0.024 sec

------------------------------
INITIAL GUESS: MODEL POTENTIAL
------------------------------
Loading Hartree-Fock densities                     ... done
Calculating cut-offs                               ... done
Initializing the effective Hamiltonian             ... done
Setting up the integral package (SHARK)            ... done
Starting the Coulomb interaction                   ... done (   0.1 sec)
Reading the grid                                   ... done
Mapping shells                                     ... done
Starting the XC term evaluation                    ... done (   0.0 sec)
  promolecular density results
     # of electrons  =     23.997128596
     EX              =    -19.435324605
     EC              =     -0.761684030
     EX+EC           =    -20.197008635
Transforming the Hamiltonian                       ... done (   0.0 sec)
Diagonalizing the Hamiltonian                      ... done (   0.0 sec)
Back transforming the eigenvectors                 ... done (   0.0 sec)
Now organizing SCF variables                       ... done
                      ------------------
                      INITIAL GUESS DONE (   0.2 sec)
                      ------------------
-------------------
DFT GRID GENERATION
-------------------

General Integration Accuracy     IntAcc      ... 4.388
Radial Grid Type                 RadialGrid  ... OptM3 with GC (2021)
Angular Grid (max. ang.)         AngularGrid ... 4 (Lebedev-302)
Angular grid pruning method      GridPruning ... 4 (adaptive)
Weight generation scheme         WeightScheme... Becke
Basis function cutoff            BFCut       ... 1.0000e-11
Integration weight cutoff        WCut        ... 1.0000e-14
Angular grids for H and He will be reduced by one unit
Partially contracted basis set               ... off
Rotationally invariant grid construction     ... off

Total number of grid points                  ...    31341
Total number of batches                      ...      494
Average number of points per batch           ...       63
Average number of grid points per atom       ...     4477
Time for grid setup =    0.111 sec

--------------------
COSX GRID GENERATION
--------------------

GRIDX 1
-------
General Integration Accuracy     IntAcc      ... 3.816
Radial Grid Type                 RadialGrid  ... OptM3 with GC (2021)
Angular Grid (max. ang.)         AngularGrid ... 1 (Lebedev-50)
Angular grid pruning method      GridPruning ... 4 (adaptive)
Weight generation scheme         WeightScheme... Becke
Basis function cutoff            BFCut       ... 1.0000e-11
Integration weight cutoff        WCut        ... 1.0000e-14
Angular grids for H and He will be reduced by one unit
Partially contracted basis set               ... on
Rotationally invariant grid construction     ... off

Total number of grid points                  ...     4043
Total number of batches                      ...       67
Average number of points per batch           ...       60
Average number of grid points per atom       ...      578
UseSFitting                                  ... on

GRIDX 2
-------
General Integration Accuracy     IntAcc      ... 4.020
Radial Grid Type                 RadialGrid  ... OptM3 with GC (2021)
Angular Grid (max. ang.)         AngularGrid ... 2 (Lebedev-110)
Angular grid pruning method      GridPruning ... 4 (adaptive)
Weight generation scheme         WeightScheme... Becke
Basis function cutoff            BFCut       ... 1.0000e-11
Integration weight cutoff        WCut        ... 1.0000e-14
Angular grids for H and He will be reduced by one unit
Partially contracted basis set               ... on
Rotationally invariant grid construction     ... off

Total number of grid points                  ...     8748
Total number of batches                      ...      140
Average number of points per batch           ...       62
Average number of grid points per atom       ...     1250
UseSFitting                                  ... on

GRIDX 3
-------
General Integration Accuracy     IntAcc      ... 4.338
Radial Grid Type                 RadialGrid  ... OptM3 with GC (2021)
Angular Grid (max. ang.)         AngularGrid ... 3 (Lebedev-194)
Angular grid pruning method      GridPruning ... 4 (adaptive)
Weight generation scheme         WeightScheme... Becke
Basis function cutoff            BFCut       ... 1.0000e-11
Integration weight cutoff        WCut        ... 1.0000e-14
Angular grids for H and He will be reduced by one unit
Partially contracted basis set               ... on
Rotationally invariant grid construction     ... off

Total number of grid points                  ...    19282
Total number of batches                      ...      305
Average number of points per batch           ...       63
Average number of grid points per atom       ...     2755
UseSFitting                                  ... on

Time for X-Grid setup             =    0.075 sec

--------------
SCF ITERATIONS
--------------
ITER       Energy         Delta-E        Max-DP      RMS-DP      [F,P]     Damp
               ***  Starting incremental Fock matrix formation  ***
  0   -153.2242843513   0.000000000000 0.10225788  0.00391133  0.3796254 0.7000
  1   -153.3586254527  -0.134341101437 0.05252350  0.00183306  0.0693064 0.7000
                               ***Turning on DIIS***
  2   -153.3598966539  -0.001271201165 0.06000075  0.00301043  0.0989500 0.0000
  3   -153.4484331661  -0.088536512228 0.02596536  0.00125036  0.0823609 0.0000
  4   -153.4601375968  -0.011704430666 0.01095094  0.00042839  0.0463288 0.0000
  5   -153.4633846725  -0.003247075680 0.00596452  0.00024668  0.0217787 0.0000
  6   -153.4642579733  -0.000873300862 0.00289862  0.00010056  0.0052319 0.0000
                      *** Initiating the SOSCF procedure ***
                           *** Shutting down DIIS ***
                      *** Re-Reading the Fockian *** 
                      *** Removing any level shift *** 
ITER      Energy       Delta-E        Grad      Rot      Max-DP    RMS-DP
  7   -153.46435633  -0.0000983559  0.001818  0.001818  0.001638  0.000063
               *** Restarting incremental Fock matrix formation ***
  8   -153.46440640  -0.0000500706  0.001315  0.006050  0.002069  0.000104
  9   -153.46444032  -0.0000339170  0.000862  0.019232  0.006227  0.000239
 10   -153.46439360   0.0000467141  0.003041  0.006079  0.002818  0.000098
 11   -153.46445510  -0.0000614925  0.000948  0.006422  0.002360  0.000115
 12   -153.46446352  -0.0000084297  0.000626  0.004702  0.001691  0.000077
 13   -153.46447554  -0.0000120120  0.000175  0.006099  0.001833  0.000071
 14   -153.46448002  -0.0000044808  0.000197  0.012645  0.003821  0.000139
 15   -153.46448416  -0.0000041426  0.000243  0.001154  0.000349  0.000016
 16   -153.46448486  -0.0000007037  0.000047  0.000621  0.000187  0.000008
 17   -153.46448494  -0.0000000795  0.000011  0.000040  0.000015  0.000001
                  ***Gradient check signals convergence***
              ***Rediagonalizing the Fockian in SOSCF/NRSCF***

               *****************************************************
               *                     SUCCESS                       *
               *           SCF CONVERGED AFTER  18 CYCLES          *
               *****************************************************

Old exchange energy                            =     -4.942335856 Eh
New exchange energy                            =     -4.942340298 Eh
Exchange energy change after final integration =     -0.000004442 Eh
Total energy after final integration           =   -153.464489388 Eh
Final COS-X integration done in                =     0.239 sec

----------------
TOTAL SCF ENERGY
----------------

Total Energy       :         -153.46448939 Eh           -4175.98106 eV

Components:
Nuclear Repulsion  :           66.84180111 Eh            1818.85788 eV
Electronic Energy  :         -220.30629050 Eh           -5994.83894 eV
One Electron Energy:         -340.52932423 Eh           -9266.27400 eV
Two Electron Energy:          120.22303374 Eh            3271.43506 eV
Max COSX asymmetry :            0.00000249 Eh               0.00007 eV

Virial components:
Potential Energy   :         -306.23290972 Eh           -8333.02112 eV
Kinetic Energy     :          152.76842033 Eh            4157.04006 eV
Virial Ratio       :            2.00455637


DFT components:
N(Alpha)           :       12.000004429339 electrons
N(Beta)            :       12.000004429339 electrons
N(Total)           :       24.000008858678 electrons
E(X)               :      -14.858499894914 Eh       
E(C)               :       -0.767941536644 Eh       
E(XC)              :      -15.626441431558 Eh       
DFET-embed. en.    :        0.000000000000 Eh       

---------------
SCF CONVERGENCE
---------------

  Last Energy change         ...   -2.0901e-09  Tolerance :   1.0000e-08
  Last MAX-Density change    ...    8.8818e-16  Tolerance :   1.0000e-07
  Last RMS-Density change    ...    2.0947e-17  Tolerance :   5.0000e-09
  Last Orbital Gradient      ...    2.1085e-06  Tolerance :   1.0000e-05
  Last Orbital Rotation      ...    9.6930e-06  Tolerance :   1.0000e-05

             **** THE GBW FILE WAS UPDATED (ox_gs_F_orca0000.gbw) ****
             **** DENSITY ox_gs_F_orca0000.scfp WAS UPDATED ****
             **** ENERGY FILE WAS UPDATED (ox_gs_F_orca0000.en.tmp) ****
             **** THE GBW FILE WAS UPDATED (ox_gs_F_orca0000.gbw) ****
             **** DENSITY ox_gs_F_orca0000.scfp WAS UPDATED ****
----------------
ORBITAL ENERGIES
----------------

  NO   OCC          E(Eh)            E(eV) 
   0   2.0000     -19.183894      -522.0203 
   1   2.0000     -10.323744      -280.9233 
   2   2.0000     -10.275878      -279.6209 
   3   2.0000      -0.971765       -26.4431 
   4   2.0000      -0.777524       -21.1575 
   5   2.0000      -0.629820       -17.1383 
   6   2.0000      -0.524931       -14.2841 
   7   2.0000      -0.472868       -12.8674 
   8   2.0000      -0.422531       -11.4976 
   9   2.0000      -0.382578       -10.4105 
  10   2.0000      -0.257746        -7.0136 
  11   2.0000      -0.237511        -6.4630 
  12   0.0000      -0.165073        -4.4919 
  13   0.0000       0.028647         0.7795 
  14   0.0000       0.074650         2.0313 
  15   0.0000       0.087417         2.3787 
  16   0.0000       0.121742         3.3128 
  17   0.0000       0.144659         3.9364 
  18   0.0000       0.185988         5.0610 
  19   0.0000       0.205573         5.5939 
  20   0.0000       0.226861         6.1732 
  21   0.0000       0.235482         6.4078 
  22   0.0000       0.258783         7.0418 
  23   0.0000       0.325694         8.8626 
  24   0.0000       0.342213         9.3121 
  25   0.0000       0.356629         9.7044 
  26   0.0000       0.386136        10.5073 
  27   0.0000       0.400745        10.9048 
  28   0.0000       0.446863        12.1598 
  29   0.0000       0.463726        12.6186 
  30   0.0000       0.513739        13.9795 
  31   0.0000       0.550244        14.9729 
  32   0.0000       0.557267        15.1640 
  33   0.0000       0.595246        16.1975 
  34   0.0000       0.679172        18.4812 
  35   0.0000       0.720438        19.6041 
  36   0.0000       0.779995        21.2247 
  37   0.0000       0.840721        22.8772 
  38   0.0000       0.890727        24.2379 
  39   0.0000       0.909236        24.7416 
  40   0.0000       0.945992        25.7417 
  41   0.0000       1.021561        27.7981 
  42   0.0000       1.070886        29.1403 
  43   0.0000       1.095356        29.8062 
  44   0.0000       1.177789        32.0493 
  45   0.0000       1.326536        36.0969 
  46   0.0000       1.404913        38.2296 
  47   0.0000       1.441284        39.2193 
  48   0.0000       1.490395        40.5557 
  49   0.0000       1.532508        41.7017 
  50   0.0000       1.560871        42.4735 
  51   0.0000       1.579150        42.9709 
  52   0.0000       1.619758        44.0759 
  53   0.0000       1.628442        44.3122 
  54   0.0000       1.691670        46.0327 
  55   0.0000       1.756281        47.7908 
  56   0.0000       1.791790        48.7571 
  57   0.0000       1.849553        50.3289 
  58   0.0000       1.855979        50.5037 
  59   0.0000       1.917748        52.1846 
  60   0.0000       1.992703        54.2242 
  61   0.0000       2.018067        54.9144 
  62   0.0000       2.134840        58.0919 
  63   0.0000       2.188718        59.5580 
  64   0.0000       2.297183        62.5095 
  65   0.0000       2.334584        63.5273 
  66   0.0000       2.352214        64.0070 
  67   0.0000       2.428325        66.0781 
  68   0.0000       2.469796        67.2066 
  69   0.0000       2.518243        68.5249 
  70   0.0000       2.540126        69.1203 
  71   0.0000       2.581896        70.2570 
  72   0.0000       2.618514        71.2534 
  73   0.0000       2.658080        72.3300 
  74   0.0000       2.751144        74.8624 
  75   0.0000       2.804511        76.3146 
  76   0.0000       2.867861        78.0385 
  77   0.0000       2.971827        80.8675 
  78   0.0000       2.985942        81.2516 
  79   0.0000       3.018515        82.1380 
  80   0.0000       3.060876        83.2907 
  81   0.0000       3.089886        84.0801 
  82   0.0000       3.095827        84.2417 
  83   0.0000       3.114590        84.7523 
  84   0.0000       3.185488        86.6815 
  85   0.0000       3.264135        88.8216 
  86   0.0000       3.300571        89.8131 
  87   0.0000       3.343987        90.9945 
  88   0.0000       3.401829        92.5685 
  89   0.0000       3.422603        93.1337 
  90   0.0000       3.509053        95.4862 
  91   0.0000       3.624761        98.6348 
  92   0.0000       3.705953       100.8441 
  93   0.0000       3.800886       103.4274 
  94   0.0000       4.012479       109.1851 
  95   0.0000       4.078945       110.9937 
  96   0.0000       4.115511       111.9887 
  97   0.0000       4.247432       115.5785 
  98   0.0000       4.395595       119.6102 
  99   0.0000       4.564340       124.2020 
 100   0.0000       4.573920       124.4627 
 101   0.0000       4.742394       129.0471 
 102   0.0000       5.203639       141.5982 
 103   0.0000       5.230398       142.3264 
 104   0.0000       5.369716       146.1174 
 105   0.0000       5.390012       146.6697 
 106   0.0000       5.680070       154.5626 
 107   0.0000       5.729590       155.9101 
 108   0.0000       5.886801       160.1880 
 109   0.0000       6.358917       173.0349 
 110   0.0000       6.370824       173.3589 
 111   0.0000       6.758459       183.9070 
 112   0.0000       6.777089       184.4140 
 113   0.0000       6.983353       190.0267 
 114   0.0000      21.990991       598.4053 
 115   0.0000      22.387071       609.1832 
 116   0.0000      43.750128      1190.5015 

                    ********************************
                    * MULLIKEN POPULATION ANALYSIS *
                    ********************************

-----------------------
MULLIKEN ATOMIC CHARGES
-----------------------
   0 O :   -0.415100
   1 C :   -0.133889
   2 C :   -0.096308
   3 H :    0.181337
   4 H :    0.134219
   5 H :    0.154508
   6 H :    0.175234
Sum of atomic charges:   -0.0000000

--------------------------------
MULLIKEN REDUCED ORBITAL CHARGES
--------------------------------
  0 O s       :     3.915923  s :     3.915923
      pz      :     1.742201  p :     4.477591
      px      :     1.374306
      py      :     1.361085
      dz2     :     0.002730  d :     0.020522
      dxz     :     0.000418
      dyz     :     0.005041
      dx2y2   :     0.006704
      dxy     :     0.005628
      f0      :     0.000107  f :     0.001064
      f+1     :     0.000062
      f-1     :     0.000176
      f+2     :     0.000120
      f-2     :     0.000060
      f+3     :     0.000321
      f-3     :     0.000218
  1 C s       :     3.224652  s :     3.224652
      pz      :     1.067662  p :     2.751195
      px      :     0.893109
      py      :     0.790424
      dz2     :     0.016074  d :     0.148771
      dxz     :     0.022234
      dyz     :     0.033898
      dx2y2   :     0.024802
      dxy     :     0.051763
      f0      :     0.001500  f :     0.009271
      f+1     :     0.001352
      f-1     :     0.000534
      f+2     :     0.001662
      f-2     :     0.000733
      f+3     :     0.002238
      f-3     :     0.001253
  2 C s       :     3.286945  s :     3.286945
      pz      :     1.050895  p :     2.759230
      px      :     1.010504
      py      :     0.697831
      dz2     :     0.004234  d :     0.046248
      dxz     :     0.023233
      dyz     :     0.003289
      dx2y2   :     0.004353
      dxy     :     0.011139
      f0      :     0.000352  f :     0.003884
      f+1     :     0.000942
      f-1     :     0.000149
      f+2     :     0.000647
      f-2     :     0.000185
      f+3     :     0.000569
      f-3     :     0.001040
  3 H s       :     0.799692  s :     0.799692
      pz      :     0.009113  p :     0.018971
      px      :     0.004565
      py      :     0.005294
  4 H s       :     0.839421  s :     0.839421
      pz      :     0.010572  p :     0.026360
      px      :     0.008216
      py      :     0.007571
  5 H s       :     0.821101  s :     0.821101
      pz      :     0.011206  p :     0.024391
      px      :     0.008287
      py      :     0.004897
  6 H s       :     0.806436  s :     0.806436
      pz      :     0.009128  p :     0.018331
      px      :     0.005318
      py      :     0.003885


                     *******************************
                     * LOEWDIN POPULATION ANALYSIS *
                     *******************************

----------------------
LOEWDIN ATOMIC CHARGES
----------------------
   0 O :   -0.135560
   1 C :   -0.411910
   2 C :   -0.006281
   3 H :    0.195880
   4 H :    0.087674
   5 H :    0.102887
   6 H :    0.167309

-------------------------------
LOEWDIN REDUCED ORBITAL CHARGES
-------------------------------
  0 O s       :     3.608398  s :     3.608398
      pz      :     1.685815  p :     4.475114
      px      :     1.339088
      py      :     1.450211
      dz2     :     0.005848  d :     0.049083
      dxz     :     0.000987
      dyz     :     0.013316
      dx2y2   :     0.016333
      dxy     :     0.012599
      f0      :     0.000321  f :     0.002965
      f+1     :     0.000113
      f-1     :     0.000412
      f+2     :     0.000415
      f-2     :     0.000180
      f+3     :     0.000755
      f-3     :     0.000769
  1 C s       :     2.837409  s :     2.837409
      pz      :     1.043117  p :     2.966086
      px      :     1.038017
      py      :     0.884952
      dz2     :     0.077402  d :     0.547569
      dxz     :     0.096308
      dyz     :     0.086224
      dx2y2   :     0.126450
      dxy     :     0.161186
      f0      :     0.008571  f :     0.060846
      f+1     :     0.007038
      f-1     :     0.005569
      f+2     :     0.008806
      f-2     :     0.004661
      f+3     :     0.018125
      f-3     :     0.008076
  2 C s       :     2.935466  s :     2.935466
      pz      :     1.077939  p :     2.840120
      px      :     1.121229
      py      :     0.640951
      dz2     :     0.025391  d :     0.209596
      dxz     :     0.106247
      dyz     :     0.010043
      dx2y2   :     0.032846
      dxy     :     0.035070
      f0      :     0.002712  f :     0.021099
      f+1     :     0.003221
      f-1     :     0.001048
      f+2     :     0.003705
      f-2     :     0.001858
      f+3     :     0.003801
      f-3     :     0.004754
  3 H s       :     0.757693  s :     0.757693
      pz      :     0.024100  p :     0.046427
      px      :     0.010484
      py      :     0.011843
  4 H s       :     0.825725  s :     0.825725
      pz      :     0.036848  p :     0.086601
      px      :     0.026268
      py      :     0.023485
  5 H s       :     0.819326  s :     0.819326
      pz      :     0.037717  p :     0.077787
      px      :     0.024770
      py      :     0.015300
  6 H s       :     0.783563  s :     0.783563
      pz      :     0.025988  p :     0.049128
      px      :     0.012971
      py      :     0.010169


                      *****************************
                      * MAYER POPULATION ANALYSIS *
                      *****************************

  NA   - Mulliken gross atomic population
  ZA   - Total nuclear charge
  QA   - Mulliken gross atomic charge
  VA   - Mayer's total valence
  BVA  - Mayer's bonded valence
  FA   - Mayer's free valence

  ATOM       NA         ZA         QA         VA         BVA        FA
  0 O      8.4151     8.0000    -0.4151     1.6866     1.6866    -0.0000
  1 C      6.1339     6.0000    -0.1339     4.0550     4.0550     0.0000
  2 C      6.0963     6.0000    -0.0963     3.7219     3.7219    -0.0000
  3 H      0.8187     1.0000     0.1813     0.9679     0.9679    -0.0000
  4 H      0.8658     1.0000     0.1342     0.9882     0.9882     0.0000
  5 H      0.8455     1.0000     0.1545     0.9654     0.9654    -0.0000
  6 H      0.8248     1.0000     0.1752     0.9586     0.9586    -0.0000

  Mayer bond orders larger than 0.100000
B(  0-O ,  1-C ) :   0.9756 B(  0-O ,  2-C ) :   0.6786 B(  1-C ,  2-C ) :   1.1537 
B(  1-C ,  3-H ) :   0.9177 B(  1-C ,  4-H ) :   0.9906 B(  2-C ,  5-H ) :   0.9492 
B(  2-C ,  6-H ) :   0.9324 

-------
TIMINGS
-------

Total SCF time: 0 days 0 hours 0 min 3 sec 

Total time                  ....       3.817 sec
Sum of individual times     ....       3.560 sec  ( 93.3%)

Fock matrix formation       ....       3.134 sec  ( 82.1%)
  Split-RI-J                ....       0.318 sec  ( 10.2% of F)
  Chain of spheres X        ....       2.179 sec  ( 69.5% of F)
  XC integration            ....       0.599 sec  ( 19.1% of F)
    Basis function eval.    ....       0.162 sec  ( 27.0% of XC)
    Density eval.           ....       0.122 sec  ( 20.3% of XC)
    XC-Functional eval.     ....       0.035 sec  (  5.8% of XC)
    XC-Potential eval.      ....       0.212 sec  ( 35.3% of XC)
Diagonalization             ....       0.018 sec  (  0.5%)
Density matrix formation    ....       0.002 sec  (  0.1%)
Population analysis         ....       0.003 sec  (  0.1%)
Initial guess               ....       0.153 sec  (  4.0%)
Orbital Transformation      ....       0.000 sec  (  0.0%)
Orbital Orthonormalization  ....       0.000 sec  (  0.0%)
DIIS solution               ....       0.016 sec  (  0.4%)
SOSCF solution              ....       0.024 sec  (  0.6%)
Grid generation             ....       0.211 sec  (  5.5%)

Maximum memory used throughout the entire SCF-calculation: 61.0 MB


-------------------------------------------------------------------------------
                          DFT DISPERSION CORRECTION                            
                                                                               
                              DFTD3 V3.1  Rev 1                                
                          USING Becke-Johnson damping                          
-------------------------------------------------------------------------------
The PBE0 functional is recognized
Active option DFTDOPT                   ...         4   

molecular C6(AA) [au] = 396.380518 


            DFT-D V3
 parameters
 s6 scaling factor         :     1.0000 
 a1 scaling factor         :     0.4145 
 s8 scaling factor         :     1.2177 
 a2 scaling factor         :     4.8593 
 ad hoc parameters k1-k3   :    16.0000     1.3333    -4.0000 

 Edisp/kcal,au: -1.632965532872  -0.002602295943 
 E6   /kcal   :  -1.065103645 
 E8   /kcal   :  -0.567861888 
 % E8         :  34.774885124 

-------------------------   ----------------
Dispersion correction           -0.002602296
-------------------------   ----------------


-------------------------   --------------------
FINAL SINGLE POINT ENERGY      -153.467091683792
-------------------------   --------------------



           ************************************************************
           *        Program running with 8 parallel MPI-processes     *
           *              working on a common directory               *
           ************************************************************
------------------------------------------------------------------------------
                         ORCA SCF GRADIENT CALCULATION
------------------------------------------------------------------------------

 ... reading COSX grid (gridx3)
Gradient of the Kohn-Sham DFT energy:
Kohn-Sham wavefunction type      ... RKS
Hartree-Fock exchange scaling    ...    0.250
Number of operators              ...    1
Number of atoms                  ...    7
Basis set dimensions             ...  117
Integral neglect threshold       ... 2.5e-11
Integral primitive cutoff        ... 2.5e-12
SHARK Integral package           ... ON

Nuc. rep. gradient       (SHARK) ... done (  0.0 sec)
HCore & Overlap gradient (SHARK) ... done (  0.0 sec)
RI-J gradient            (SHARK) ... done (  0.2 sec)
COSX-gradient                    ... done (  0.3 sec)
Exchange-correlation gradient    ... done
Dispersion correction            ... done

------------------
CARTESIAN GRADIENT
------------------

   1   O   :   -0.047524161   -0.027780747   -0.004715026
   2   C   :   -0.016288173   -0.053260721   -0.145605134
   3   C   :    0.046288284    0.037151988   -0.086052334
   4   H   :   -0.033716333    0.028219639    0.052458464
   5   H   :    0.047393313    0.060472278    0.095372773
   6   H   :   -0.028282188   -0.004414980    0.048046493
   7   H   :    0.032215114   -0.040402554    0.040387710

Difference to translation invariance:
           :    0.0000858549   -0.0000150971   -0.0001070542

Difference to rotation invariance:
           :   -0.0002645765   -0.0002432464    0.0000978624

Norm of the cartesian gradient     ...    0.2557273852
RMS gradient                       ...    0.0558042905
MAX gradient                       ...    0.1456051338

-------
TIMINGS
-------

Total SCF gradient time            ...        0.989 sec

One electron gradient       ....       0.011 sec  (  1.1%)
RI-J Coulomb gradient       ....       0.250 sec  ( 25.2%)
COSX gradient               ....       0.347 sec  ( 35.0%)
XC gradient                 ....       0.163 sec  ( 16.5%)

Maximum memory used throughout the entire SCFGRAD-calculation: 35.8 MB

                            ***************************************
                            *     ORCA property calculations      *
                            ***************************************

                                    ---------------------
                                    Active property flags
                                    ---------------------
   (+) Dipole Moment


------------------------------------------------------------------------------
                       ORCA ELECTRIC PROPERTIES CALCULATION
------------------------------------------------------------------------------

Dipole Moment Calculation                       ... on
Quadrupole Moment Calculation                   ... off
Polarizability Calculation                      ... off
GBWName                                         ... ox_gs_F_orca0000.gbw
Electron density                                ... ox_gs_F_orca0000.scfp
The origin for moment calculation is the CENTER OF MASS  = (-0.888826,  0.068904 -0.009340)

-------------
DIPOLE MOMENT
-------------
                                X             Y             Z
Electronic contribution:     -0.79113       1.39390      -0.36986
Nuclear contribution   :      1.74414      -2.61320       0.25009
                        -----------------------------------------
Total Dipole Moment    :      0.95302      -1.21930      -0.11977
                        -----------------------------------------
Magnitude (a.u.)       :      1.55218
Magnitude (Debye)      :      3.94534



--------------------
Rotational spectrum 
--------------------
 
Rotational constants in cm-1:     1.380772     0.337269     0.306104 
Rotational constants in MHz : 41394.513472 10111.082752  9176.759823 

 Dipole components along the rotational axes: 
x,y,z [a.u.] :     1.462475    -0.519524     0.023192 
x,y,z [Debye]:     3.717316    -1.320524     0.058950 

 

Timings for individual modules:

Sum of individual times         ...        5.794 sec (=   0.097 min)
GTO integral calculation        ...        0.477 sec (=   0.008 min)   8.2 %
SCF iterations                  ...        4.011 sec (=   0.067 min)  69.2 %
SCF Gradient evaluation         ...        1.306 sec (=   0.022 min)  22.5 %
                             ****ORCA TERMINATED NORMALLY****
TOTAL RUN TIME: 0 days 0 hours 0 minutes 6 seconds 193 msec
