
                                 *****************
                                 * O   R   C   A *
                                 *****************

                                            #,                                       
                                            ###                                      
                                            ####                                     
                                            #####                                    
                                            ######                                   
                                           ########,                                 
                                     ,,################,,,,,                         
                               ,,#################################,,                 
                          ,,##########################################,,             
                       ,#########################################, ''#####,          
                    ,#############################################,,   '####,        
                  ,##################################################,,,,####,       
                ,###########''''           ''''###############################       
              ,#####''   ,,,,##########,,,,          '''####'''          '####       
            ,##' ,,,,###########################,,,                        '##       
           ' ,,###''''                  '''############,,,                           
         ,,##''                                '''############,,,,        ,,,,,,###''
      ,#''                                            '''#######################'''  
     '                                                          ''''####''''         
             ,#######,   #######,   ,#######,      ##                                
            ,#'     '#,  ##    ##  ,#'     '#,    #''#        ######   ,####,        
            ##       ##  ##   ,#'  ##            #'  '#       #        #'  '#        
            ##       ##  #######   ##           ,######,      #####,   #    #        
            '#,     ,#'  ##    ##  '#,     ,#' ,#      #,         ##   #,  ,#        
             '#######'   ##     ##  '#######'  #'      '#     #####' # '####'        



                  #######################################################
                  #                        -***-                        #
                  #          Department of theory and spectroscopy      #
                  #    Directorship and core code : Frank Neese         #
                  #        Max Planck Institute fuer Kohlenforschung    #
                  #                Kaiser Wilhelm Platz 1               #
                  #                 D-45470 Muelheim/Ruhr               #
                  #                      Germany                        #
                  #                                                     #
                  #                  All rights reserved                #
                  #                        -***-                        #
                  #######################################################


                         Program Version 5.0.2 -  RELEASE  -


 With contributions from (in alphabetic order):
   Daniel Aravena         : Magnetic Suceptibility
   Michael Atanasov       : Ab Initio Ligand Field Theory (pilot matlab implementation)
   Alexander A. Auer      : GIAO ZORA, VPT2 properties, NMR spectrum
   Ute Becker             : Parallelization
   Giovanni Bistoni       : ED, misc. LED, open-shell LED, HFLD
   Martin Brehm           : Molecular dynamics
   Dmytro Bykov           : SCF Hessian
   Vijay G. Chilkuri      : MRCI spin determinant printing, contributions to CSF-ICE
   Dipayan Datta          : RHF DLPNO-CCSD density
   Achintya Kumar Dutta   : EOM-CC, STEOM-CC
   Dmitry Ganyushin       : Spin-Orbit,Spin-Spin,Magnetic field MRCI
   Miquel Garcia          : C-PCM and meta-GGA Hessian, CC/C-PCM, Gaussian charge scheme
   Yang Guo               : DLPNO-NEVPT2, F12-NEVPT2, CIM, IAO-localization
   Andreas Hansen         : Spin unrestricted coupled pair/coupled cluster methods
   Benjamin Helmich-Paris : MC-RPA, TRAH-SCF, COSX integrals
   Lee Huntington         : MR-EOM, pCC
   Robert Izsak           : Overlap fitted RIJCOSX, COSX-SCS-MP3, EOM
   Marcus Kettner         : VPT2
   Christian Kollmar      : KDIIS, OOCD, Brueckner-CCSD(T), CCSD density, CASPT2, CASPT2-K
   Simone Kossmann        : Meta GGA functionals, TD-DFT gradient, OOMP2, MP2 Hessian
   Martin Krupicka        : Initial AUTO-CI
   Lucas Lang             : DCDCAS
   Marvin Lechner         : AUTO-CI (C++ implementation), FIC-MRCC
   Dagmar Lenk            : GEPOL surface, SMD
   Dimitrios Liakos       : Extrapolation schemes; Compound Job, initial MDCI parallelization
   Dimitrios Manganas     : Further ROCIS development; embedding schemes
   Dimitrios Pantazis     : SARC Basis sets
   Anastasios Papadopoulos: AUTO-CI, single reference methods and gradients
   Taras Petrenko         : DFT Hessian,TD-DFT gradient, ASA, ECA, R-Raman, ABS, FL, XAS/XES, NRVS
   Peter Pinski           : DLPNO-MP2, DLPNO-MP2 Gradient
   Christoph Reimann      : Effective Core Potentials
   Marius Retegan         : Local ZFS, SOC
   Christoph Riplinger    : Optimizer, TS searches, QM/MM, DLPNO-CCSD(T), (RO)-DLPNO pert. Triples
   Tobias Risthaus        : Range-separated hybrids, TD-DFT gradient, RPA, STAB
   Michael Roemelt        : Original ROCIS implementation
   Masaaki Saitow         : Open-shell DLPNO-CCSD energy and density
   Barbara Sandhoefer     : DKH picture change effects
   Avijit Sen             : IP-ROCIS
   Kantharuban Sivalingam : CASSCF convergence, NEVPT2, FIC-MRCI
   Bernardo de Souza      : ESD, SOC TD-DFT
   Georgi Stoychev        : AutoAux, RI-MP2 NMR, DLPNO-MP2 response
   Willem Van den Heuvel  : Paramagnetic NMR
   Boris Wezisla          : Elementary symmetry handling
   Frank Wennmohs         : Technical directorship


 We gratefully acknowledge several colleagues who have allowed us to
 interface, adapt or use parts of their codes:
   Stefan Grimme, W. Hujo, H. Kruse, P. Pracht,  : VdW corrections, initial TS optimization,
                  C. Bannwarth, S. Ehlert          DFT functionals, gCP, sTDA/sTD-DF
   Ed Valeev, F. Pavosevic, A. Kumar             : LibInt (2-el integral package), F12 methods
   Garnet Chan, S. Sharma, J. Yang, R. Olivares  : DMRG
   Ulf Ekstrom                                   : XCFun DFT Library
   Mihaly Kallay                                 : mrcc  (arbitrary order and MRCC methods)
   Jiri Pittner, Ondrej Demel                    : Mk-CCSD
   Frank Weinhold                                : gennbo (NPA and NBO analysis)
   Christopher J. Cramer and Donald G. Truhlar   : smd solvation model
   Lars Goerigk                                  : TD-DFT with DH, B97 family of functionals
   V. Asgeirsson, H. Jonsson                     : NEB implementation
   FAccTs GmbH                                   : IRC, NEB, NEB-TS, DLPNO-Multilevel, CI-OPT
                                                   MM, QMMM, 2- and 3-layer-ONIOM, Crystal-QMMM,
                                                   LR-CPCM, SF, NACMEs, symmetry and pop. for TD-DFT,
                                                   nearIR, NL-DFT gradient (VV10), updates on ESD,
                                                   ML-optimized integration grids
   S Lehtola, MJT Oliveira, MAL Marques          : LibXC Library
   Liviu Ungur et al                             : ANISO software


 Your calculation uses the libint2 library for the computation of 2-el integrals
 For citations please refer to: http://libint.valeyev.net

 Your ORCA version has been built with support for libXC version: 5.1.0
 For citations please refer to: https://tddft.org/programs/libxc/

 This ORCA versions uses:
   CBLAS   interface :  Fast vector & matrix operations
   LAPACKE interface :  Fast linear algebra routines
   SCALAPACK package :  Parallel linear algebra routines
   Shared memory     :  Shared parallel matrices
   BLAS/LAPACK       :  OpenBLAS 0.3.15  USE64BITINT DYNAMIC_ARCH NO_AFFINITY SkylakeX SINGLE_THREADED
        Core in use  :  SkylakeX
   Copyright (c) 2011-2014, The OpenBLAS Project


Your calculation utilizes the atom-pairwise dispersion correction
with the Becke-Johnson damping scheme (D3BJ)
Cite in your paper:
S.Grimme, S.Ehrlich, L.Goerigk, J Comput Chem, (2011), 32, 1456–1465 
S.Grimme, J.Antony, S.Ehrlich and H.Krieg, J.Chem.Phys., 132, (2010), 154104 
   

================================================================================

----- Orbital basis set information -----
Your calculation utilizes the basis: def2-TZVP
   F. Weigend and R. Ahlrichs, Phys. Chem. Chem. Phys. 7, 3297 (2005).

----- AuxJ basis set information -----
Your calculation utilizes the auxiliary basis: def2/J
   F. Weigend, Phys. Chem. Chem. Phys. 8, 1057 (2006).

================================================================================
                                        WARNINGS
                       Please study these warnings very carefully!
================================================================================


INFO   : the flag for use of the SHARK integral package has been found!

================================================================================
                                       INPUT FILE
================================================================================
NAME = ox_gs_A_orca0006.inp
|  1> ! engrad PBE0 D3BJ def2-TZVP  
|  2> %pal nprocs 8 end
|  3> %maxcore 3000
|  4>  
|  5> *xyz 0 1 
|  6> O   -0.04952676625653442 0.7386094235198615 0.004982678254382061
|  7> C   -0.7540633727058099 -0.5245536615533066 0.0034281487403013664
|  8> C   0.6757743543136947 -0.4233408684682409 -0.04597121171169016
|  9> H   -1.186326209749123 -0.7074334746168118 0.9038731441897162
| 10> H   -1.2231469091315166 -0.7298141258216978 -0.9086032232697936
| 11> H   1.3291799577141212 -0.7486450217280614 -0.9107445270733848
| 12> H   1.2768170097124212 -0.6291796664111344 0.8581286344560959
| 13> *
| 14> 
| 15>                          ****END OF INPUT****
================================================================================

                     *******************************
                     * Energy+Gradient Calculation *
                     *******************************

---------------------------------
CARTESIAN COORDINATES (ANGSTROEM)
---------------------------------
  O     -0.049527    0.738609    0.004983
  C     -0.754063   -0.524554    0.003428
  C      0.675774   -0.423341   -0.045971
  H     -1.186326   -0.707433    0.903873
  H     -1.223147   -0.729814   -0.908603
  H      1.329180   -0.748645   -0.910745
  H      1.276817   -0.629180    0.858129

----------------------------
CARTESIAN COORDINATES (A.U.)
----------------------------
  NO LB      ZA    FRAG     MASS         X           Y           Z
   0 O     8.0000    0    15.999   -0.093592    1.395770    0.009416
   1 C     6.0000    0    12.011   -1.424973   -0.991263    0.006478
   2 C     6.0000    0    12.011    1.277028   -0.799998   -0.086873
   3 H     1.0000    0     1.008   -2.241832   -1.336856    1.708073
   4 H     1.0000    0     1.008   -2.311413   -1.379149   -1.717011
   5 H     1.0000    0     1.008    2.511786   -1.414734   -1.721058
   6 H     1.0000    0     1.008    2.412834   -1.188977    1.621628

--------------------------------
INTERNAL COORDINATES (ANGSTROEM)
--------------------------------
 O      0   0   0     0.000000000000     0.00000000     0.00000000
 C      1   0   0     1.446359300409     0.00000000     0.00000000
 C      1   2   0     1.370688329072    61.14291854     0.00000000
 H      2   1   3     1.015429651007   111.32738041   110.15257107
 H      2   1   3     1.045931377227   113.00356295   253.63507314
 H      3   1   2     1.131633580999   125.28379334   115.53300697
 H      3   1   2     1.104997020896   114.53936934   247.60106775

---------------------------
INTERNAL COORDINATES (A.U.)
---------------------------
 O      0   0   0     0.000000000000     0.00000000     0.00000000
 C      1   0   0     2.733222969024     0.00000000     0.00000000
 C      1   2   0     2.590225556908    61.14291854     0.00000000
 H      2   1   3     1.918883948667   111.32738041   110.15257107
 H      2   1   3     1.976523857834   113.00356295   253.63507314
 H      3   1   2     2.138477552037   125.28379334   115.53300697
 H      3   1   2     2.088141748291   114.53936934   247.60106775

---------------------
BASIS SET INFORMATION
---------------------
There are 3 groups of distinct atoms

 Group   1 Type O   : 11s6p2d1f contracted to 5s3p2d1f pattern {62111/411/11/1}
 Group   2 Type C   : 11s6p2d1f contracted to 5s3p2d1f pattern {62111/411/11/1}
 Group   3 Type H   : 5s1p contracted to 3s1p pattern {311/1}

Atom   0O    basis set group =>   1
Atom   1C    basis set group =>   2
Atom   2C    basis set group =>   2
Atom   3H    basis set group =>   3
Atom   4H    basis set group =>   3
Atom   5H    basis set group =>   3
Atom   6H    basis set group =>   3
---------------------------------
AUXILIARY/J BASIS SET INFORMATION
---------------------------------
There are 3 groups of distinct atoms

 Group   1 Type O   : 12s5p4d2f1g contracted to 6s4p3d1f1g pattern {711111/2111/211/2/1}
 Group   2 Type C   : 12s5p4d2f1g contracted to 6s4p3d1f1g pattern {711111/2111/211/2/1}
 Group   3 Type H   : 5s2p1d contracted to 3s1p1d pattern {311/2/1}

Atom   0O    basis set group =>   1
Atom   1C    basis set group =>   2
Atom   2C    basis set group =>   2
Atom   3H    basis set group =>   3
Atom   4H    basis set group =>   3
Atom   5H    basis set group =>   3
Atom   6H    basis set group =>   3


           ************************************************************
           *        Program running with 8 parallel MPI-processes     *
           *              working on a common directory               *
           ************************************************************
------------------------------------------------------------------------------
                           ORCA GTO INTEGRAL CALCULATION
                           -- RI-GTO INTEGRALS CHOSEN --
------------------------------------------------------------------------------
------------------------------------------------------------------------------
                   ___                                                        
                  /   \      - P O W E R E D   B Y -                         
                 /     \                                                     
                 |  |  |   _    _      __       _____    __    __             
                 |  |  |  | |  | |    /  \     |  _  \  |  |  /  |          
                  \  \/   | |  | |   /    \    | | | |  |  | /  /          
                 / \  \   | |__| |  /  /\  \   | |_| |  |  |/  /          
                |  |  |   |  __  | /  /__\  \  |    /   |      \           
                |  |  |   | |  | | |   __   |  |    \   |  |\   \          
                \     /   | |  | | |  |  |  |  | |\  \  |  | \   \       
                 \___/    |_|  |_| |__|  |__|  |_| \__\ |__|  \__/        
                                                                              
                      - O R C A' S   B I G   F R I E N D -                    
                                      &                                       
                       - I N T E G R A L  F E E D E R -                       
                                                                              
 v1 FN, 2020, v2 2021                                                         
------------------------------------------------------------------------------


Reading SHARK input file ox_gs_A_orca0006.SHARKINP.tmp ... ok
----------------------
SHARK INTEGRAL PACKAGE
----------------------

Number of atoms                             ...      7
Number of basis functions                   ...    117
Number of shells                            ...     49
Maximum angular momentum                    ...      3
Integral batch strategy                     ... SHARK/LIBINT Hybrid
RI-J (if used) integral strategy            ... SPLIT-RIJ (Revised 2003 algorithm where possible)
Printlevel                                  ...      1
Contraction scheme used                     ... SEGMENTED contraction
Coulomb Range Separation                    ... NOT USED
Exchange Range Separation                   ... NOT USED
Finite Nucleus Model                        ... NOT USED
Auxiliary Coulomb fitting basis             ... AVAILABLE
   # of basis functions in Aux-J            ...    191
   # of shells in Aux-J                     ...     65
   Maximum angular momentum in Aux-J        ...      4
Auxiliary J/K fitting basis                 ... NOT available
Auxiliary Correlation fitting basis         ... NOT available
Auxiliary 'external' fitting basis          ... NOT available
Integral threshold                          ...     2.500000e-11
Primitive cut-off                           ...     2.500000e-12
Primitive pair pre-selection threshold      ...     2.500000e-12

Calculating pre-screening integrals         ... done (  0.0 sec) Dimension = 49
Organizing shell pair data                  ... done (  0.0 sec)
Shell pair information
Total number of shell pairs                 ...      1225
Shell pairs after pre-screening             ...      1221
Total number of primitive shell pairs       ...      3648
Primitive shell pairs kept                  ...      3160
          la=0 lb=0:    374 shell pairs
          la=1 lb=0:    351 shell pairs
          la=1 lb=1:     91 shell pairs
          la=2 lb=0:    162 shell pairs
          la=2 lb=1:     78 shell pairs
          la=2 lb=2:     21 shell pairs
          la=3 lb=0:     81 shell pairs
          la=3 lb=1:     39 shell pairs
          la=3 lb=2:     18 shell pairs
          la=3 lb=3:      6 shell pairs

Calculating one electron integrals          ... done (  0.0 sec)
Calculating RI/J V-Matrix + Cholesky decomp.... done (  0.0 sec)
Calculating Nuclear repulsion               ... done (  0.0 sec) ENN=     76.435653432263 Eh

SHARK setup successfully completed in   0.1 seconds

Maximum memory used throughout the entire GTOINT-calculation: 14.9 MB


           ************************************************************
           *        Program running with 8 parallel MPI-processes     *
           *              working on a common directory               *
           ************************************************************
-------------------------------------------------------------------------------
                                 ORCA SCF
-------------------------------------------------------------------------------

------------
SCF SETTINGS
------------
Hamiltonian:
 Density Functional     Method          .... DFT(GTOs)
 Exchange Functional    Exchange        .... PBE
   PBE kappa parameter   XKappa         ....  0.804000
   PBE mue parameter    XMuePBE         ....  0.219520
 Correlation Functional Correlation     .... PBE
   PBE beta parameter  CBetaPBE         ....  0.066725
 LDA part of GGA corr.  LDAOpt          .... PW91-LDA
 Gradients option       PostSCFGGA      .... off
 Hybrid DFT is turned on
   Fraction HF Exchange ScalHFX         ....  0.250000
   Scaling of DF-GGA-X  ScalDFX         ....  0.750000
   Scaling of DF-GGA-C  ScalDFC         ....  1.000000
   Scaling of DF-LDA-C  ScalLDAC        ....  1.000000
   Perturbative correction              ....  0.000000
   Density functional embedding theory  .... OFF
   NL short-range parameter             ....  6.900000
 RI-approximation to the Coulomb term is turned on
   Number of AuxJ basis functions       .... 191
   RIJ-COSX (HFX calculated with COS-X)).... on


General Settings:
 Integral files         IntName         .... ox_gs_A_orca0006
 Hartree-Fock type      HFTyp           .... RHF
 Total Charge           Charge          ....    0
 Multiplicity           Mult            ....    1
 Number of Electrons    NEL             ....   24
 Basis Dimension        Dim             ....  117
 Nuclear Repulsion      ENuc            ....     76.4356534323 Eh

Convergence Acceleration:
 DIIS                   CNVDIIS         .... on
   Start iteration      DIISMaxIt       ....    12
   Startup error        DIISStart       ....  0.200000
   # of expansion vecs  DIISMaxEq       ....     5
   Bias factor          DIISBfac        ....   1.050
   Max. coefficient     DIISMaxC        ....  10.000
 Trust-Rad. Augm. Hess. CNVTRAH         .... auto
   Auto Start mean grad. ratio tolernc. ....  1.125000
   Auto Start start iteration           ....    20
   Auto Start num. interpolation iter.  ....    10
   Max. Number of Micro iterations      ....    16
   Max. Number of Macro iterations      .... Maxiter - #DIIS iter
   Number of Davidson start vectors     ....     2
   Converg. threshold I  (grad. norm)   ....   1.000e-05
   Converg. threshold II (energy diff.) ....   1.000e-08
   Grad. Scal. Fac. for Micro threshold ....   0.100
   Minimum threshold for Micro iter.    ....   0.010
   NR start threshold (gradient norm)   ....   0.001
   Initial trust radius                 ....   0.400
   Minimum AH scaling param. (alpha)    ....   1.000
   Maximum AH scaling param. (alpha)    .... 1000.000
   Orbital update algorithm             .... Taylor
   White noise on init. David. guess    .... on
   Maximum white noise                  ....   0.010
   Quad. conv. algorithm                .... NR
 SOSCF                  CNVSOSCF        .... on
   Start iteration      SOSCFMaxIt      ....   150
   Startup grad/error   SOSCFStart      ....  0.003300
 Level Shifting         CNVShift        .... on
   Level shift para.    LevelShift      ....    0.2500
   Turn off err/grad.   ShiftErr        ....    0.0010
 Zerner damping         CNVZerner       .... off
 Static damping         CNVDamp         .... on
   Fraction old density DampFac         ....    0.7000
   Max. Damping (<1)    DampMax         ....    0.9800
   Min. Damping (>=0)   DampMin         ....    0.0000
   Turn off err/grad.   DampErr         ....    0.1000
 Fernandez-Rico         CNVRico         .... off

SCF Procedure:
 Maximum # iterations   MaxIter         ....   125
 SCF integral mode      SCFMode         .... Direct
   Integral package                     .... SHARK and LIBINT hybrid scheme
 Reset frequency        DirectResetFreq ....    20
 Integral Threshold     Thresh          ....  2.500e-11 Eh
 Primitive CutOff       TCut            ....  2.500e-12 Eh

Convergence Tolerance:
 Convergence Check Mode ConvCheckMode   .... Total+1el-Energy
 Convergence forced     ConvForced      .... 0
 Energy Change          TolE            ....  1.000e-08 Eh
 1-El. energy change                    ....  1.000e-05 Eh
 Orbital Gradient       TolG            ....  1.000e-05
 Orbital Rotation angle TolX            ....  1.000e-05
 DIIS Error             TolErr          ....  5.000e-07


Diagonalization of the overlap matrix:
Smallest eigenvalue                        ... 3.121e-04
Time for diagonalization                   ...    0.001 sec
Threshold for overlap eigenvalues          ... 1.000e-08
Number of eigenvalues below threshold      ... 0
Time for construction of square roots      ...    0.001 sec
Total time needed                          ...    0.003 sec

Time for model grid setup =    0.021 sec

------------------------------
INITIAL GUESS: MODEL POTENTIAL
------------------------------
Loading Hartree-Fock densities                     ... done
Calculating cut-offs                               ... done
Initializing the effective Hamiltonian             ... done
Setting up the integral package (SHARK)            ... done
Starting the Coulomb interaction                   ... done (   0.0 sec)
Reading the grid                                   ... done
Mapping shells                                     ... done
Starting the XC term evaluation                    ... done (   0.0 sec)
  promolecular density results
     # of electrons  =     23.996855093
     EX              =    -19.571878709
     EC              =     -0.785892513
     EX+EC           =    -20.357771222
Transforming the Hamiltonian                       ... done (   0.0 sec)
Diagonalizing the Hamiltonian                      ... done (   0.0 sec)
Back transforming the eigenvectors                 ... done (   0.0 sec)
Now organizing SCF variables                       ... done
                      ------------------
                      INITIAL GUESS DONE (   0.0 sec)
                      ------------------
-------------------
DFT GRID GENERATION
-------------------

General Integration Accuracy     IntAcc      ... 4.388
Radial Grid Type                 RadialGrid  ... OptM3 with GC (2021)
Angular Grid (max. ang.)         AngularGrid ... 4 (Lebedev-302)
Angular grid pruning method      GridPruning ... 4 (adaptive)
Weight generation scheme         WeightScheme... Becke
Basis function cutoff            BFCut       ... 1.0000e-11
Integration weight cutoff        WCut        ... 1.0000e-14
Angular grids for H and He will be reduced by one unit
Partially contracted basis set               ... off
Rotationally invariant grid construction     ... off

Total number of grid points                  ...    31289
Total number of batches                      ...      493
Average number of points per batch           ...       63
Average number of grid points per atom       ...     4470
Time for grid setup =    0.112 sec

--------------------
COSX GRID GENERATION
--------------------

GRIDX 1
-------
General Integration Accuracy     IntAcc      ... 3.816
Radial Grid Type                 RadialGrid  ... OptM3 with GC (2021)
Angular Grid (max. ang.)         AngularGrid ... 1 (Lebedev-50)
Angular grid pruning method      GridPruning ... 4 (adaptive)
Weight generation scheme         WeightScheme... Becke
Basis function cutoff            BFCut       ... 1.0000e-11
Integration weight cutoff        WCut        ... 1.0000e-14
Angular grids for H and He will be reduced by one unit
Partially contracted basis set               ... on
Rotationally invariant grid construction     ... off

Total number of grid points                  ...     4039
Total number of batches                      ...       68
Average number of points per batch           ...       59
Average number of grid points per atom       ...      577
UseSFitting                                  ... on

GRIDX 2
-------
General Integration Accuracy     IntAcc      ... 4.020
Radial Grid Type                 RadialGrid  ... OptM3 with GC (2021)
Angular Grid (max. ang.)         AngularGrid ... 2 (Lebedev-110)
Angular grid pruning method      GridPruning ... 4 (adaptive)
Weight generation scheme         WeightScheme... Becke
Basis function cutoff            BFCut       ... 1.0000e-11
Integration weight cutoff        WCut        ... 1.0000e-14
Angular grids for H and He will be reduced by one unit
Partially contracted basis set               ... on
Rotationally invariant grid construction     ... off

Total number of grid points                  ...     8707
Total number of batches                      ...      141
Average number of points per batch           ...       61
Average number of grid points per atom       ...     1244
UseSFitting                                  ... on

GRIDX 3
-------
General Integration Accuracy     IntAcc      ... 4.338
Radial Grid Type                 RadialGrid  ... OptM3 with GC (2021)
Angular Grid (max. ang.)         AngularGrid ... 3 (Lebedev-194)
Angular grid pruning method      GridPruning ... 4 (adaptive)
Weight generation scheme         WeightScheme... Becke
Basis function cutoff            BFCut       ... 1.0000e-11
Integration weight cutoff        WCut        ... 1.0000e-14
Angular grids for H and He will be reduced by one unit
Partially contracted basis set               ... on
Rotationally invariant grid construction     ... off

Total number of grid points                  ...    19246
Total number of batches                      ...      305
Average number of points per batch           ...       63
Average number of grid points per atom       ...     2749
UseSFitting                                  ... on

Time for X-Grid setup             =    0.072 sec

--------------
SCF ITERATIONS
--------------
ITER       Energy         Delta-E        Max-DP      RMS-DP      [F,P]     Damp
               ***  Starting incremental Fock matrix formation  ***
  0   -153.5956826702   0.000000000000 0.03257584  0.00115328  0.1703175 0.7000
  1   -153.6256757802  -0.029993109989 0.01810309  0.00085943  0.0737973 0.7000
                               ***Turning on DIIS***
  2   -153.6383043366  -0.012628556487 0.02810287  0.00148252  0.0353744 0.0000
  3   -153.6583041735  -0.019999836898 0.01340831  0.00063910  0.0391612 0.0000
  4   -153.6623345722  -0.004030398704 0.00346705  0.00017755  0.0075545 0.0000
  5   -153.6624917012  -0.000157128913 0.00150558  0.00006608  0.0042303 0.0000
                      *** Initiating the SOSCF procedure ***
                           *** Shutting down DIIS ***
                      *** Re-Reading the Fockian *** 
                      *** Removing any level shift *** 
ITER      Energy       Delta-E        Grad      Rot      Max-DP    RMS-DP
  6   -153.66251707  -0.0000253657  0.000138  0.000138  0.000943  0.000032
               *** Restarting incremental Fock matrix formation ***
  7   -153.66249852   0.0000185448  0.000060  0.000074  0.000106  0.000005
  8   -153.66249849   0.0000000357  0.000095  0.000051  0.000068  0.000003
  9   -153.66249857  -0.0000000831  0.000009  0.000013  0.000020  0.000001
 10   -153.66249857   0.0000000011  0.000010  0.000007  0.000012  0.000000
                  ***Gradient check signals convergence***
              ***Rediagonalizing the Fockian in SOSCF/NRSCF***

               *****************************************************
               *                     SUCCESS                       *
               *           SCF CONVERGED AFTER  11 CYCLES          *
               *****************************************************

Old exchange energy                            =     -5.010447258 Eh
New exchange energy                            =     -5.010433892 Eh
Exchange energy change after final integration =      0.000013367 Eh
Total energy after final integration           =   -153.662485205 Eh
Final COS-X integration done in                =     0.252 sec

----------------
TOTAL SCF ENERGY
----------------

Total Energy       :         -153.66248521 Eh           -4181.36880 eV

Components:
Nuclear Repulsion  :           76.43565343 Eh            2079.91987 eV
Electronic Energy  :         -230.09813864 Eh           -6261.28867 eV
One Electron Energy:         -359.44386693 Eh           -9780.96487 eV
Two Electron Energy:          129.34572829 Eh            3519.67620 eV
Max COSX asymmetry :            0.00000311 Eh               0.00008 eV

Virial components:
Potential Energy   :         -306.83699632 Eh           -8349.45915 eV
Kinetic Energy     :          153.17451112 Eh            4168.09035 eV
Virial Ratio       :            2.00318574


DFT components:
N(Alpha)           :       11.999997843788 electrons
N(Beta)            :       11.999997843788 electrons
N(Total)           :       23.999995687575 electrons
E(X)               :      -14.996459747278 Eh       
E(C)               :       -0.793481956797 Eh       
E(XC)              :      -15.789941704075 Eh       
DFET-embed. en.    :        0.000000000000 Eh       

---------------
SCF CONVERGENCE
---------------

  Last Energy change         ...   -3.3119e-09  Tolerance :   1.0000e-08
  Last MAX-Density change    ...    1.4433e-15  Tolerance :   1.0000e-07
  Last RMS-Density change    ...    2.1367e-17  Tolerance :   5.0000e-09
  Last Orbital Gradient      ...    5.9629e-07  Tolerance :   1.0000e-05
  Last Orbital Rotation      ...    1.0758e-06  Tolerance :   1.0000e-05

             **** THE GBW FILE WAS UPDATED (ox_gs_A_orca0006.gbw) ****
             **** DENSITY ox_gs_A_orca0006.scfp WAS UPDATED ****
             **** ENERGY FILE WAS UPDATED (ox_gs_A_orca0006.en.tmp) ****
             **** THE GBW FILE WAS UPDATED (ox_gs_A_orca0006.gbw) ****
             **** DENSITY ox_gs_A_orca0006.scfp WAS UPDATED ****
----------------
ORBITAL ENERGIES
----------------

  NO   OCC          E(Eh)            E(eV) 
   0   2.0000     -19.223946      -523.1102 
   1   2.0000     -10.274985      -279.5966 
   2   2.0000     -10.263614      -279.2871 
   3   2.0000      -1.122260       -30.5382 
   4   2.0000      -0.709341       -19.3021 
   5   2.0000      -0.655386       -17.8340 
   6   2.0000      -0.542219       -14.7545 
   7   2.0000      -0.508630       -13.8405 
   8   2.0000      -0.420826       -11.4512 
   9   2.0000      -0.394096       -10.7239 
  10   2.0000      -0.335828        -9.1383 
  11   2.0000      -0.289323        -7.8729 
  12   0.0000       0.064458         1.7540 
  13   0.0000       0.077155         2.0995 
  14   0.0000       0.089898         2.4462 
  15   0.0000       0.100682         2.7397 
  16   0.0000       0.111446         3.0326 
  17   0.0000       0.156921         4.2700 
  18   0.0000       0.188532         5.1302 
  19   0.0000       0.223096         6.0708 
  20   0.0000       0.269047         7.3211 
  21   0.0000       0.273894         7.4530 
  22   0.0000       0.295665         8.0455 
  23   0.0000       0.342948         9.3321 
  24   0.0000       0.390063        10.6141 
  25   0.0000       0.398921        10.8552 
  26   0.0000       0.405291        11.0285 
  27   0.0000       0.446619        12.1531 
  28   0.0000       0.454100        12.3567 
  29   0.0000       0.472639        12.8612 
  30   0.0000       0.503752        13.7078 
  31   0.0000       0.522961        14.2305 
  32   0.0000       0.543343        14.7851 
  33   0.0000       0.695497        18.9254 
  34   0.0000       0.712853        19.3977 
  35   0.0000       0.734841        19.9961 
  36   0.0000       0.829373        22.5684 
  37   0.0000       0.880389        23.9566 
  38   0.0000       0.887384        24.1470 
  39   0.0000       0.932073        25.3630 
  40   0.0000       1.023318        27.8459 
  41   0.0000       1.039374        28.2828 
  42   0.0000       1.087484        29.5920 
  43   0.0000       1.091043        29.6888 
  44   0.0000       1.170152        31.8415 
  45   0.0000       1.357175        36.9306 
  46   0.0000       1.460863        39.7521 
  47   0.0000       1.485787        40.4303 
  48   0.0000       1.517681        41.2982 
  49   0.0000       1.524645        41.4877 
  50   0.0000       1.577022        42.9129 
  51   0.0000       1.657377        45.0995 
  52   0.0000       1.672461        45.5100 
  53   0.0000       1.710666        46.5496 
  54   0.0000       1.792223        48.7689 
  55   0.0000       1.809575        49.2410 
  56   0.0000       1.813944        49.3599 
  57   0.0000       1.918076        52.1935 
  58   0.0000       1.953647        53.1614 
  59   0.0000       1.980954        53.9045 
  60   0.0000       2.132381        58.0250 
  61   0.0000       2.158901        58.7467 
  62   0.0000       2.185902        59.4814 
  63   0.0000       2.276812        61.9552 
  64   0.0000       2.300145        62.5901 
  65   0.0000       2.409034        65.5532 
  66   0.0000       2.460392        66.9507 
  67   0.0000       2.522018        68.6276 
  68   0.0000       2.608660        70.9853 
  69   0.0000       2.623921        71.4005 
  70   0.0000       2.647577        72.0442 
  71   0.0000       2.665861        72.5418 
  72   0.0000       2.685339        73.0718 
  73   0.0000       2.736424        74.4619 
  74   0.0000       2.758272        75.0564 
  75   0.0000       2.809472        76.4496 
  76   0.0000       2.879578        78.3573 
  77   0.0000       2.949452        80.2587 
  78   0.0000       3.004981        81.7697 
  79   0.0000       3.014786        82.0365 
  80   0.0000       3.060569        83.2823 
  81   0.0000       3.093709        84.1841 
  82   0.0000       3.158939        85.9591 
  83   0.0000       3.276980        89.1712 
  84   0.0000       3.336070        90.7791 
  85   0.0000       3.351090        91.1878 
  86   0.0000       3.378942        91.9457 
  87   0.0000       3.451048        93.9078 
  88   0.0000       3.609195        98.2112 
  89   0.0000       3.648168        99.2717 
  90   0.0000       3.668458        99.8238 
  91   0.0000       3.743840       101.8751 
  92   0.0000       3.952153       107.5436 
  93   0.0000       4.048341       110.1610 
  94   0.0000       4.139849       112.6510 
  95   0.0000       4.181290       113.7787 
  96   0.0000       4.235124       115.2436 
  97   0.0000       4.289093       116.7122 
  98   0.0000       4.438214       120.7699 
  99   0.0000       4.593655       124.9997 
 100   0.0000       4.762576       129.5963 
 101   0.0000       4.852258       132.0367 
 102   0.0000       5.316169       144.6603 
 103   0.0000       5.463846       148.6788 
 104   0.0000       5.718519       155.6088 
 105   0.0000       5.787336       157.4814 
 106   0.0000       5.852180       159.2459 
 107   0.0000       5.933964       161.4714 
 108   0.0000       6.089959       165.7162 
 109   0.0000       6.610621       179.8841 
 110   0.0000       6.641106       180.7137 
 111   0.0000       6.811278       185.3443 
 112   0.0000       6.972422       189.7292 
 113   0.0000       7.177683       195.3147 
 114   0.0000      22.375940       608.8803 
 115   0.0000      22.581364       614.4701 
 116   0.0000      43.877193      1193.9591 

                    ********************************
                    * MULLIKEN POPULATION ANALYSIS *
                    ********************************

-----------------------
MULLIKEN ATOMIC CHARGES
-----------------------
   0 O :   -0.316584
   1 C :   -0.080884
   2 C :   -0.047970
   3 H :    0.121812
   4 H :    0.118844
   5 H :    0.107547
   6 H :    0.097234
Sum of atomic charges:   -0.0000000

--------------------------------
MULLIKEN REDUCED ORBITAL CHARGES
--------------------------------
  0 O s       :     3.853831  s :     3.853831
      pz      :     1.830154  p :     4.415302
      px      :     1.319005
      py      :     1.266144
      dz2     :     0.005894  d :     0.045090
      dxz     :     0.002884
      dyz     :     0.007243
      dx2y2   :     0.013163
      dxy     :     0.015906
      f0      :     0.000282  f :     0.002360
      f+1     :     0.000204
      f-1     :     0.000485
      f+2     :     0.000097
      f-2     :     0.000229
      f+3     :     0.000394
      f-3     :     0.000669
  1 C s       :     3.216156  s :     3.216156
      pz      :     1.048570  p :     2.744732
      px      :     0.928034
      py      :     0.768129
      dz2     :     0.006949  d :     0.108515
      dxz     :     0.023738
      dyz     :     0.029722
      dx2y2   :     0.027673
      dxy     :     0.020434
      f0      :     0.001733  f :     0.011480
      f+1     :     0.001296
      f-1     :     0.000580
      f+2     :     0.001291
      f-2     :     0.001535
      f+3     :     0.002104
      f-3     :     0.002941
  2 C s       :     3.200335  s :     3.200335
      pz      :     1.047144  p :     2.711239
      px      :     0.887232
      py      :     0.776863
      dz2     :     0.003421  d :     0.123418
      dxz     :     0.030840
      dyz     :     0.033969
      dx2y2   :     0.032477
      dxy     :     0.022711
      f0      :     0.001610  f :     0.012978
      f+1     :     0.001351
      f-1     :     0.000738
      f+2     :     0.001574
      f-2     :     0.002072
      f+3     :     0.002232
      f-3     :     0.003401
  3 H s       :     0.854679  s :     0.854679
      pz      :     0.011989  p :     0.023509
      px      :     0.006538
      py      :     0.004981
  4 H s       :     0.858456  s :     0.858456
      pz      :     0.011665  p :     0.022700
      px      :     0.006484
      py      :     0.004552
  5 H s       :     0.872991  s :     0.872991
      pz      :     0.008779  p :     0.019462
      px      :     0.007093
      py      :     0.003590
  6 H s       :     0.882170  s :     0.882170
      pz      :     0.010033  p :     0.020597
      px      :     0.006887
      py      :     0.003678


                     *******************************
                     * LOEWDIN POPULATION ANALYSIS *
                     *******************************

----------------------
LOEWDIN ATOMIC CHARGES
----------------------
   0 O :    0.154175
   1 C :   -0.251507
   2 C :   -0.358279
   3 H :    0.105008
   4 H :    0.115324
   5 H :    0.120108
   6 H :    0.115171

-------------------------------
LOEWDIN REDUCED ORBITAL CHARGES
-------------------------------
  0 O s       :     3.362969  s :     3.362969
      pz      :     1.704799  p :     4.376489
      px      :     1.299572
      py      :     1.372118
      dz2     :     0.011857  d :     0.098946
      dxz     :     0.008743
      dyz     :     0.016441
      dx2y2   :     0.035739
      dxy     :     0.026167
      f0      :     0.000719  f :     0.007421
      f+1     :     0.000270
      f-1     :     0.000965
      f+2     :     0.000192
      f-2     :     0.001055
      f+3     :     0.001277
      f-3     :     0.002943
  1 C s       :     2.802562  s :     2.802562
      pz      :     1.053213  p :     2.917719
      px      :     1.054062
      py      :     0.810444
      dz2     :     0.058657  d :     0.458051
      dxz     :     0.123825
      dyz     :     0.080549
      dx2y2   :     0.102155
      dxy     :     0.092865
      f0      :     0.011349  f :     0.073176
      f+1     :     0.006004
      f-1     :     0.005916
      f+2     :     0.008371
      f-2     :     0.005929
      f+3     :     0.014442
      f-3     :     0.021165
  2 C s       :     2.805992  s :     2.805992
      pz      :     1.044898  p :     2.920446
      px      :     1.025309
      py      :     0.850239
      dz2     :     0.048525  d :     0.546879
      dxz     :     0.157911
      dyz     :     0.101237
      dx2y2   :     0.122142
      dxy     :     0.117064
      f0      :     0.010378  f :     0.084962
      f+1     :     0.006303
      f-1     :     0.006221
      f+2     :     0.009935
      f-2     :     0.009900
      f+3     :     0.017049
      f-3     :     0.025175
  3 H s       :     0.821689  s :     0.821689
      pz      :     0.037861  p :     0.073302
      px      :     0.019802
      py      :     0.015639
  4 H s       :     0.816977  s :     0.816977
      pz      :     0.035226  p :     0.067699
      px      :     0.018659
      py      :     0.013813
  5 H s       :     0.824902  s :     0.824902
      pz      :     0.026727  p :     0.054990
      px      :     0.017852
      py      :     0.010412
  6 H s       :     0.826697  s :     0.826697
      pz      :     0.030142  p :     0.058132
      px      :     0.017247
      py      :     0.010743


                      *****************************
                      * MAYER POPULATION ANALYSIS *
                      *****************************

  NA   - Mulliken gross atomic population
  ZA   - Total nuclear charge
  QA   - Mulliken gross atomic charge
  VA   - Mayer's total valence
  BVA  - Mayer's bonded valence
  FA   - Mayer's free valence

  ATOM       NA         ZA         QA         VA         BVA        FA
  0 O      8.3166     8.0000    -0.3166     2.0048     2.0048     0.0000
  1 C      6.0809     6.0000    -0.0809     3.9822     3.9822    -0.0000
  2 C      6.0480     6.0000    -0.0480     3.9793     3.9793     0.0000
  3 H      0.8782     1.0000     0.1218     0.9642     0.9642    -0.0000
  4 H      0.8812     1.0000     0.1188     0.9643     0.9643     0.0000
  5 H      0.8925     1.0000     0.1075     0.9553     0.9553    -0.0000
  6 H      0.9028     1.0000     0.0972     0.9589     0.9589    -0.0000

  Mayer bond orders larger than 0.100000
B(  0-O ,  1-C ) :   0.9678 B(  0-O ,  2-C ) :   1.0122 B(  1-C ,  2-C ) :   1.0676 
B(  1-C ,  3-H ) :   0.9653 B(  1-C ,  4-H ) :   0.9617 B(  2-C ,  5-H ) :   0.9401 
B(  2-C ,  6-H ) :   0.9538 

-------
TIMINGS
-------

Total SCF time: 0 days 0 hours 0 min 2 sec 

Total time                  ....       2.564 sec
Sum of individual times     ....       2.375 sec  ( 92.6%)

Fock matrix formation       ....       2.110 sec  ( 82.3%)
  Split-RI-J                ....       0.231 sec  ( 10.9% of F)
  Chain of spheres X        ....       1.464 sec  ( 69.4% of F)
  XC integration            ....       0.395 sec  ( 18.7% of F)
    Basis function eval.    ....       0.103 sec  ( 26.0% of XC)
    Density eval.           ....       0.077 sec  ( 19.6% of XC)
    XC-Functional eval.     ....       0.022 sec  (  5.6% of XC)
    XC-Potential eval.      ....       0.132 sec  ( 33.5% of XC)
Diagonalization             ....       0.016 sec  (  0.6%)
Density matrix formation    ....       0.001 sec  (  0.1%)
Population analysis         ....       0.003 sec  (  0.1%)
Initial guess               ....       0.017 sec  (  0.6%)
Orbital Transformation      ....       0.000 sec  (  0.0%)
Orbital Orthonormalization  ....       0.000 sec  (  0.0%)
DIIS solution               ....       0.013 sec  (  0.5%)
SOSCF solution              ....       0.010 sec  (  0.4%)
Grid generation             ....       0.206 sec  (  8.0%)

Maximum memory used throughout the entire SCF-calculation: 61.1 MB


-------------------------------------------------------------------------------
                          DFT DISPERSION CORRECTION                            
                                                                               
                              DFTD3 V3.1  Rev 1                                
                          USING Becke-Johnson damping                          
-------------------------------------------------------------------------------
The PBE0 functional is recognized
Active option DFTDOPT                   ...         4   

molecular C6(AA) [au] = 350.750279 


            DFT-D V3
 parameters
 s6 scaling factor         :     1.0000 
 a1 scaling factor         :     0.4145 
 s8 scaling factor         :     1.2177 
 a2 scaling factor         :     4.8593 
 ad hoc parameters k1-k3   :    16.0000     1.3333    -4.0000 

 Edisp/kcal,au: -1.514050708826  -0.002412793129 
 E6   /kcal   :  -0.993145587 
 E8   /kcal   :  -0.520905121 
 % E8         :  34.404734156 

-------------------------   ----------------
Dispersion correction           -0.002412793
-------------------------   ----------------


-------------------------   --------------------
FINAL SINGLE POINT ENERGY      -153.664897998240
-------------------------   --------------------



           ************************************************************
           *        Program running with 8 parallel MPI-processes     *
           *              working on a common directory               *
           ************************************************************
------------------------------------------------------------------------------
                         ORCA SCF GRADIENT CALCULATION
------------------------------------------------------------------------------

 ... reading COSX grid (gridx3)
Gradient of the Kohn-Sham DFT energy:
Kohn-Sham wavefunction type      ... RKS
Hartree-Fock exchange scaling    ...    0.250
Number of operators              ...    1
Number of atoms                  ...    7
Basis set dimensions             ...  117
Integral neglect threshold       ... 2.5e-11
Integral primitive cutoff        ... 2.5e-12
SHARK Integral package           ... ON

Nuc. rep. gradient       (SHARK) ... done (  0.0 sec)
HCore & Overlap gradient (SHARK) ... done (  0.0 sec)
RI-J gradient            (SHARK) ... done (  0.1 sec)
COSX-gradient                    ... done (  0.3 sec)
Exchange-correlation gradient    ... done
Dispersion correction            ... done

------------------
CARTESIAN GRADIENT
------------------

   1   O   :    0.010667367   -0.010686395    0.013208823
   2   C   :   -0.035930194   -0.025574986    0.025043423
   3   C   :   -0.059142704    0.030900993   -0.009519535
   4   H   :    0.030397506    0.015699849   -0.045543274
   5   H   :    0.021080949    0.006642666    0.020796076
   6   H   :    0.023715403   -0.016295384   -0.005349943
   7   H   :    0.009364877   -0.000890905    0.001463784

Difference to translation invariance:
           :    0.0001532040   -0.0002041611    0.0000993544

Difference to rotation invariance:
           :    0.0001989409    0.0000544468   -0.0001482668

Norm of the cartesian gradient     ...    0.1123875425
RMS gradient                       ...    0.0245249724
MAX gradient                       ...    0.0591427043

-------
TIMINGS
-------

Total SCF gradient time            ...        0.685 sec

One electron gradient       ....       0.010 sec  (  1.4%)
RI-J Coulomb gradient       ....       0.074 sec  ( 10.8%)
COSX gradient               ....       0.303 sec  ( 44.2%)
XC gradient                 ....       0.155 sec  ( 22.6%)

Maximum memory used throughout the entire SCFGRAD-calculation: 35.9 MB

                            ***************************************
                            *     ORCA property calculations      *
                            ***************************************

                                    ---------------------
                                    Active property flags
                                    ---------------------
   (+) Dipole Moment


------------------------------------------------------------------------------
                       ORCA ELECTRIC PROPERTIES CALCULATION
------------------------------------------------------------------------------

Dipole Moment Calculation                       ... on
Quadrupole Moment Calculation                   ... off
Polarizability Calculation                      ... off
GBWName                                         ... ox_gs_A_orca0006.gbw
Electron density                                ... ox_gs_A_orca0006.scfp
The origin for moment calculation is the CENTER OF MASS  = (-0.065830, -0.103198 -0.020980)

-------------
DIPOLE MOMENT
-------------
                                X             Y             Z
Electronic contribution:     -0.34197       1.69111       0.00397
Nuclear contribution   :      0.31488      -2.42437      -0.01190
                        -----------------------------------------
Total Dipole Moment    :     -0.02708      -0.73325      -0.00793
                        -----------------------------------------
Magnitude (a.u.)       :      0.73380
Magnitude (Debye)      :      1.86516



--------------------
Rotational spectrum 
--------------------
 
Rotational constants in cm-1:     0.878908     0.765942     0.485229 
Rotational constants in MHz : 26349.009113 22962.350912 14546.792166 

 Dipole components along the rotational axes: 
x,y,z [a.u.] :    -0.175746    -0.712265     0.015746 
x,y,z [Debye]:    -0.446712    -1.810433     0.040023 

 

Timings for individual modules:

Sum of individual times         ...        4.028 sec (=   0.067 min)
GTO integral calculation        ...        0.338 sec (=   0.006 min)   8.4 %
SCF iterations                  ...        2.758 sec (=   0.046 min)  68.5 %
SCF Gradient evaluation         ...        0.933 sec (=   0.016 min)  23.2 %
                             ****ORCA TERMINATED NORMALLY****
TOTAL RUN TIME: 0 days 0 hours 0 minutes 4 seconds 307 msec
