
                                 *****************
                                 * O   R   C   A *
                                 *****************

                                            #,                                       
                                            ###                                      
                                            ####                                     
                                            #####                                    
                                            ######                                   
                                           ########,                                 
                                     ,,################,,,,,                         
                               ,,#################################,,                 
                          ,,##########################################,,             
                       ,#########################################, ''#####,          
                    ,#############################################,,   '####,        
                  ,##################################################,,,,####,       
                ,###########''''           ''''###############################       
              ,#####''   ,,,,##########,,,,          '''####'''          '####       
            ,##' ,,,,###########################,,,                        '##       
           ' ,,###''''                  '''############,,,                           
         ,,##''                                '''############,,,,        ,,,,,,###''
      ,#''                                            '''#######################'''  
     '                                                          ''''####''''         
             ,#######,   #######,   ,#######,      ##                                
            ,#'     '#,  ##    ##  ,#'     '#,    #''#        ######   ,####,        
            ##       ##  ##   ,#'  ##            #'  '#       #        #'  '#        
            ##       ##  #######   ##           ,######,      #####,   #    #        
            '#,     ,#'  ##    ##  '#,     ,#' ,#      #,         ##   #,  ,#        
             '#######'   ##     ##  '#######'  #'      '#     #####' # '####'        



                  #######################################################
                  #                        -***-                        #
                  #          Department of theory and spectroscopy      #
                  #    Directorship and core code : Frank Neese         #
                  #        Max Planck Institute fuer Kohlenforschung    #
                  #                Kaiser Wilhelm Platz 1               #
                  #                 D-45470 Muelheim/Ruhr               #
                  #                      Germany                        #
                  #                                                     #
                  #                  All rights reserved                #
                  #                        -***-                        #
                  #######################################################


                         Program Version 5.0.2 -  RELEASE  -


 With contributions from (in alphabetic order):
   Daniel Aravena         : Magnetic Suceptibility
   Michael Atanasov       : Ab Initio Ligand Field Theory (pilot matlab implementation)
   Alexander A. Auer      : GIAO ZORA, VPT2 properties, NMR spectrum
   Ute Becker             : Parallelization
   Giovanni Bistoni       : ED, misc. LED, open-shell LED, HFLD
   Martin Brehm           : Molecular dynamics
   Dmytro Bykov           : SCF Hessian
   Vijay G. Chilkuri      : MRCI spin determinant printing, contributions to CSF-ICE
   Dipayan Datta          : RHF DLPNO-CCSD density
   Achintya Kumar Dutta   : EOM-CC, STEOM-CC
   Dmitry Ganyushin       : Spin-Orbit,Spin-Spin,Magnetic field MRCI
   Miquel Garcia          : C-PCM and meta-GGA Hessian, CC/C-PCM, Gaussian charge scheme
   Yang Guo               : DLPNO-NEVPT2, F12-NEVPT2, CIM, IAO-localization
   Andreas Hansen         : Spin unrestricted coupled pair/coupled cluster methods
   Benjamin Helmich-Paris : MC-RPA, TRAH-SCF, COSX integrals
   Lee Huntington         : MR-EOM, pCC
   Robert Izsak           : Overlap fitted RIJCOSX, COSX-SCS-MP3, EOM
   Marcus Kettner         : VPT2
   Christian Kollmar      : KDIIS, OOCD, Brueckner-CCSD(T), CCSD density, CASPT2, CASPT2-K
   Simone Kossmann        : Meta GGA functionals, TD-DFT gradient, OOMP2, MP2 Hessian
   Martin Krupicka        : Initial AUTO-CI
   Lucas Lang             : DCDCAS
   Marvin Lechner         : AUTO-CI (C++ implementation), FIC-MRCC
   Dagmar Lenk            : GEPOL surface, SMD
   Dimitrios Liakos       : Extrapolation schemes; Compound Job, initial MDCI parallelization
   Dimitrios Manganas     : Further ROCIS development; embedding schemes
   Dimitrios Pantazis     : SARC Basis sets
   Anastasios Papadopoulos: AUTO-CI, single reference methods and gradients
   Taras Petrenko         : DFT Hessian,TD-DFT gradient, ASA, ECA, R-Raman, ABS, FL, XAS/XES, NRVS
   Peter Pinski           : DLPNO-MP2, DLPNO-MP2 Gradient
   Christoph Reimann      : Effective Core Potentials
   Marius Retegan         : Local ZFS, SOC
   Christoph Riplinger    : Optimizer, TS searches, QM/MM, DLPNO-CCSD(T), (RO)-DLPNO pert. Triples
   Tobias Risthaus        : Range-separated hybrids, TD-DFT gradient, RPA, STAB
   Michael Roemelt        : Original ROCIS implementation
   Masaaki Saitow         : Open-shell DLPNO-CCSD energy and density
   Barbara Sandhoefer     : DKH picture change effects
   Avijit Sen             : IP-ROCIS
   Kantharuban Sivalingam : CASSCF convergence, NEVPT2, FIC-MRCI
   Bernardo de Souza      : ESD, SOC TD-DFT
   Georgi Stoychev        : AutoAux, RI-MP2 NMR, DLPNO-MP2 response
   Willem Van den Heuvel  : Paramagnetic NMR
   Boris Wezisla          : Elementary symmetry handling
   Frank Wennmohs         : Technical directorship


 We gratefully acknowledge several colleagues who have allowed us to
 interface, adapt or use parts of their codes:
   Stefan Grimme, W. Hujo, H. Kruse, P. Pracht,  : VdW corrections, initial TS optimization,
                  C. Bannwarth, S. Ehlert          DFT functionals, gCP, sTDA/sTD-DF
   Ed Valeev, F. Pavosevic, A. Kumar             : LibInt (2-el integral package), F12 methods
   Garnet Chan, S. Sharma, J. Yang, R. Olivares  : DMRG
   Ulf Ekstrom                                   : XCFun DFT Library
   Mihaly Kallay                                 : mrcc  (arbitrary order and MRCC methods)
   Jiri Pittner, Ondrej Demel                    : Mk-CCSD
   Frank Weinhold                                : gennbo (NPA and NBO analysis)
   Christopher J. Cramer and Donald G. Truhlar   : smd solvation model
   Lars Goerigk                                  : TD-DFT with DH, B97 family of functionals
   V. Asgeirsson, H. Jonsson                     : NEB implementation
   FAccTs GmbH                                   : IRC, NEB, NEB-TS, DLPNO-Multilevel, CI-OPT
                                                   MM, QMMM, 2- and 3-layer-ONIOM, Crystal-QMMM,
                                                   LR-CPCM, SF, NACMEs, symmetry and pop. for TD-DFT,
                                                   nearIR, NL-DFT gradient (VV10), updates on ESD,
                                                   ML-optimized integration grids
   S Lehtola, MJT Oliveira, MAL Marques          : LibXC Library
   Liviu Ungur et al                             : ANISO software


 Your calculation uses the libint2 library for the computation of 2-el integrals
 For citations please refer to: http://libint.valeyev.net

 Your ORCA version has been built with support for libXC version: 5.1.0
 For citations please refer to: https://tddft.org/programs/libxc/

 This ORCA versions uses:
   CBLAS   interface :  Fast vector & matrix operations
   LAPACKE interface :  Fast linear algebra routines
   SCALAPACK package :  Parallel linear algebra routines
   Shared memory     :  Shared parallel matrices
   BLAS/LAPACK       :  OpenBLAS 0.3.15  USE64BITINT DYNAMIC_ARCH NO_AFFINITY SkylakeX SINGLE_THREADED
        Core in use  :  SkylakeX
   Copyright (c) 2011-2014, The OpenBLAS Project


Your calculation utilizes the atom-pairwise dispersion correction
with the Becke-Johnson damping scheme (D3BJ)
Cite in your paper:
S.Grimme, S.Ehrlich, L.Goerigk, J Comput Chem, (2011), 32, 1456–1465 
S.Grimme, J.Antony, S.Ehrlich and H.Krieg, J.Chem.Phys., 132, (2010), 154104 
   

================================================================================

----- Orbital basis set information -----
Your calculation utilizes the basis: def2-TZVP
   F. Weigend and R. Ahlrichs, Phys. Chem. Chem. Phys. 7, 3297 (2005).

----- AuxJ basis set information -----
Your calculation utilizes the auxiliary basis: def2/J
   F. Weigend, Phys. Chem. Chem. Phys. 8, 1057 (2006).

================================================================================
                                        WARNINGS
                       Please study these warnings very carefully!
================================================================================


INFO   : the flag for use of the SHARK integral package has been found!

================================================================================
                                       INPUT FILE
================================================================================
NAME = ox_gs_A_orca0030.inp
|  1> ! engrad PBE0 D3BJ def2-TZVP  
|  2> %pal nprocs 8 end
|  3> %maxcore 3000
|  4>  
|  5> *xyz 0 1 
|  6> O   -0.08462318148574097 0.8434018259730307 -0.007900284928949472
|  7> C   -0.750233643497371 -0.4976257087630084 -0.08274283359328848
|  8> C   0.7700480691980957 -0.4433545916405798 -0.0644980449870527
|  9> H   -1.3285768686031807 -0.6850600449645065 1.0034272962644697
| 10> H   -1.2768023375681803 -0.7434280576559054 -0.9322633732042972
| 11> H   1.2501866415126164 -0.8031151921470786 -0.9226909633258906
| 12> H   1.2522761434895662 -0.6334604917593291 1.0124239747472672
| 13> *
| 14> 
| 15>                          ****END OF INPUT****
================================================================================

                     *******************************
                     * Energy+Gradient Calculation *
                     *******************************

---------------------------------
CARTESIAN COORDINATES (ANGSTROEM)
---------------------------------
  O     -0.084623    0.843402   -0.007900
  C     -0.750234   -0.497626   -0.082743
  C      0.770048   -0.443355   -0.064498
  H     -1.328577   -0.685060    1.003427
  H     -1.276802   -0.743428   -0.932263
  H      1.250187   -0.803115   -0.922691
  H      1.252276   -0.633460    1.012424

----------------------------
CARTESIAN COORDINATES (A.U.)
----------------------------
  NO LB      ZA    FRAG     MASS         X           Y           Z
   0 O     8.0000    0    15.999   -0.159915    1.593798   -0.014929
   1 C     6.0000    0    12.011   -1.417736   -0.940376   -0.156361
   2 C     6.0000    0    12.011    1.455180   -0.837819   -0.121884
   3 H     1.0000    0     1.008   -2.510646   -1.294576    1.896203
   4 H     1.0000    0     1.008   -2.412807   -1.404875   -1.761722
   5 H     1.0000    0     1.008    2.362510   -1.517668   -1.743633
   6 H     1.0000    0     1.008    2.366459   -1.197067    1.913204

--------------------------------
INTERNAL COORDINATES (ANGSTROEM)
--------------------------------
 O      0   0   0     0.000000000000     0.00000000     0.00000000
 C      1   0   0     1.498997512723     0.00000000     0.00000000
 C      2   1   0     1.521359494801    61.56022788     0.00000000
 H      2   1   3     1.244740160599   107.30493920   112.22540843
 H      2   1   3     1.029261158073   118.81776631   247.07520054
 H      3   2   1     1.047117865089   115.85682038   243.55610511
 H      3   2   1     1.195175805262   114.09963561    98.06476707

---------------------------
INTERNAL COORDINATES (A.U.)
---------------------------
 O      0   0   0     0.000000000000     0.00000000     0.00000000
 C      1   0   0     2.832694774476     0.00000000     0.00000000
 C      2   1   0     2.874952796415    61.56022788     0.00000000
 H      2   1   3     2.352218011425   107.30493920   112.22540843
 H      2   1   3     1.945021709041   118.81776631   247.07520054
 H      3   2   1     1.978765994954   115.85682038   243.55610511
 H      3   2   1     2.258554953834   114.09963561    98.06476707

---------------------
BASIS SET INFORMATION
---------------------
There are 3 groups of distinct atoms

 Group   1 Type O   : 11s6p2d1f contracted to 5s3p2d1f pattern {62111/411/11/1}
 Group   2 Type C   : 11s6p2d1f contracted to 5s3p2d1f pattern {62111/411/11/1}
 Group   3 Type H   : 5s1p contracted to 3s1p pattern {311/1}

Atom   0O    basis set group =>   1
Atom   1C    basis set group =>   2
Atom   2C    basis set group =>   2
Atom   3H    basis set group =>   3
Atom   4H    basis set group =>   3
Atom   5H    basis set group =>   3
Atom   6H    basis set group =>   3
---------------------------------
AUXILIARY/J BASIS SET INFORMATION
---------------------------------
There are 3 groups of distinct atoms

 Group   1 Type O   : 12s5p4d2f1g contracted to 6s4p3d1f1g pattern {711111/2111/211/2/1}
 Group   2 Type C   : 12s5p4d2f1g contracted to 6s4p3d1f1g pattern {711111/2111/211/2/1}
 Group   3 Type H   : 5s2p1d contracted to 3s1p1d pattern {311/2/1}

Atom   0O    basis set group =>   1
Atom   1C    basis set group =>   2
Atom   2C    basis set group =>   2
Atom   3H    basis set group =>   3
Atom   4H    basis set group =>   3
Atom   5H    basis set group =>   3
Atom   6H    basis set group =>   3


           ************************************************************
           *        Program running with 8 parallel MPI-processes     *
           *              working on a common directory               *
           ************************************************************
------------------------------------------------------------------------------
                           ORCA GTO INTEGRAL CALCULATION
                           -- RI-GTO INTEGRALS CHOSEN --
------------------------------------------------------------------------------
------------------------------------------------------------------------------
                   ___                                                        
                  /   \      - P O W E R E D   B Y -                         
                 /     \                                                     
                 |  |  |   _    _      __       _____    __    __             
                 |  |  |  | |  | |    /  \     |  _  \  |  |  /  |          
                  \  \/   | |  | |   /    \    | | | |  |  | /  /          
                 / \  \   | |__| |  /  /\  \   | |_| |  |  |/  /          
                |  |  |   |  __  | /  /__\  \  |    /   |      \           
                |  |  |   | |  | | |   __   |  |    \   |  |\   \          
                \     /   | |  | | |  |  |  |  | |\  \  |  | \   \       
                 \___/    |_|  |_| |__|  |__|  |_| \__\ |__|  \__/        
                                                                              
                      - O R C A' S   B I G   F R I E N D -                    
                                      &                                       
                       - I N T E G R A L  F E E D E R -                       
                                                                              
 v1 FN, 2020, v2 2021                                                         
------------------------------------------------------------------------------


Reading SHARK input file ox_gs_A_orca0030.SHARKINP.tmp ... ok
----------------------
SHARK INTEGRAL PACKAGE
----------------------

Number of atoms                             ...      7
Number of basis functions                   ...    117
Number of shells                            ...     49
Maximum angular momentum                    ...      3
Integral batch strategy                     ... SHARK/LIBINT Hybrid
RI-J (if used) integral strategy            ... SPLIT-RIJ (Revised 2003 algorithm where possible)
Printlevel                                  ...      1
Contraction scheme used                     ... SEGMENTED contraction
Coulomb Range Separation                    ... NOT USED
Exchange Range Separation                   ... NOT USED
Finite Nucleus Model                        ... NOT USED
Auxiliary Coulomb fitting basis             ... AVAILABLE
   # of basis functions in Aux-J            ...    191
   # of shells in Aux-J                     ...     65
   Maximum angular momentum in Aux-J        ...      4
Auxiliary J/K fitting basis                 ... NOT available
Auxiliary Correlation fitting basis         ... NOT available
Auxiliary 'external' fitting basis          ... NOT available
Integral threshold                          ...     2.500000e-11
Primitive cut-off                           ...     2.500000e-12
Primitive pair pre-selection threshold      ...     2.500000e-12

Calculating pre-screening integrals         ... done (  0.0 sec) Dimension = 49
Organizing shell pair data                  ... done (  0.0 sec)
Shell pair information
Total number of shell pairs                 ...      1225
Shell pairs after pre-screening             ...      1220
Total number of primitive shell pairs       ...      3648
Primitive shell pairs kept                  ...      3135
          la=0 lb=0:    373 shell pairs
          la=1 lb=0:    351 shell pairs
          la=1 lb=1:     91 shell pairs
          la=2 lb=0:    162 shell pairs
          la=2 lb=1:     78 shell pairs
          la=2 lb=2:     21 shell pairs
          la=3 lb=0:     81 shell pairs
          la=3 lb=1:     39 shell pairs
          la=3 lb=2:     18 shell pairs
          la=3 lb=3:      6 shell pairs

Calculating one electron integrals          ... done (  0.0 sec)
Calculating RI/J V-Matrix + Cholesky decomp.... done (  0.0 sec)
Calculating Nuclear repulsion               ... done (  0.0 sec) ENN=     71.677923160585 Eh

SHARK setup successfully completed in   0.1 seconds

Maximum memory used throughout the entire GTOINT-calculation: 14.9 MB


           ************************************************************
           *        Program running with 8 parallel MPI-processes     *
           *              working on a common directory               *
           ************************************************************
-------------------------------------------------------------------------------
                                 ORCA SCF
-------------------------------------------------------------------------------

------------
SCF SETTINGS
------------
Hamiltonian:
 Density Functional     Method          .... DFT(GTOs)
 Exchange Functional    Exchange        .... PBE
   PBE kappa parameter   XKappa         ....  0.804000
   PBE mue parameter    XMuePBE         ....  0.219520
 Correlation Functional Correlation     .... PBE
   PBE beta parameter  CBetaPBE         ....  0.066725
 LDA part of GGA corr.  LDAOpt          .... PW91-LDA
 Gradients option       PostSCFGGA      .... off
 Hybrid DFT is turned on
   Fraction HF Exchange ScalHFX         ....  0.250000
   Scaling of DF-GGA-X  ScalDFX         ....  0.750000
   Scaling of DF-GGA-C  ScalDFC         ....  1.000000
   Scaling of DF-LDA-C  ScalLDAC        ....  1.000000
   Perturbative correction              ....  0.000000
   Density functional embedding theory  .... OFF
   NL short-range parameter             ....  6.900000
 RI-approximation to the Coulomb term is turned on
   Number of AuxJ basis functions       .... 191
   RIJ-COSX (HFX calculated with COS-X)).... on


General Settings:
 Integral files         IntName         .... ox_gs_A_orca0030
 Hartree-Fock type      HFTyp           .... RHF
 Total Charge           Charge          ....    0
 Multiplicity           Mult            ....    1
 Number of Electrons    NEL             ....   24
 Basis Dimension        Dim             ....  117
 Nuclear Repulsion      ENuc            ....     71.6779231606 Eh

Convergence Acceleration:
 DIIS                   CNVDIIS         .... on
   Start iteration      DIISMaxIt       ....    12
   Startup error        DIISStart       ....  0.200000
   # of expansion vecs  DIISMaxEq       ....     5
   Bias factor          DIISBfac        ....   1.050
   Max. coefficient     DIISMaxC        ....  10.000
 Trust-Rad. Augm. Hess. CNVTRAH         .... auto
   Auto Start mean grad. ratio tolernc. ....  1.125000
   Auto Start start iteration           ....    20
   Auto Start num. interpolation iter.  ....    10
   Max. Number of Micro iterations      ....    16
   Max. Number of Macro iterations      .... Maxiter - #DIIS iter
   Number of Davidson start vectors     ....     2
   Converg. threshold I  (grad. norm)   ....   1.000e-05
   Converg. threshold II (energy diff.) ....   1.000e-08
   Grad. Scal. Fac. for Micro threshold ....   0.100
   Minimum threshold for Micro iter.    ....   0.010
   NR start threshold (gradient norm)   ....   0.001
   Initial trust radius                 ....   0.400
   Minimum AH scaling param. (alpha)    ....   1.000
   Maximum AH scaling param. (alpha)    .... 1000.000
   Orbital update algorithm             .... Taylor
   White noise on init. David. guess    .... on
   Maximum white noise                  ....   0.010
   Quad. conv. algorithm                .... NR
 SOSCF                  CNVSOSCF        .... on
   Start iteration      SOSCFMaxIt      ....   150
   Startup grad/error   SOSCFStart      ....  0.003300
 Level Shifting         CNVShift        .... on
   Level shift para.    LevelShift      ....    0.2500
   Turn off err/grad.   ShiftErr        ....    0.0010
 Zerner damping         CNVZerner       .... off
 Static damping         CNVDamp         .... on
   Fraction old density DampFac         ....    0.7000
   Max. Damping (<1)    DampMax         ....    0.9800
   Min. Damping (>=0)   DampMin         ....    0.0000
   Turn off err/grad.   DampErr         ....    0.1000
 Fernandez-Rico         CNVRico         .... off

SCF Procedure:
 Maximum # iterations   MaxIter         ....   125
 SCF integral mode      SCFMode         .... Direct
   Integral package                     .... SHARK and LIBINT hybrid scheme
 Reset frequency        DirectResetFreq ....    20
 Integral Threshold     Thresh          ....  2.500e-11 Eh
 Primitive CutOff       TCut            ....  2.500e-12 Eh

Convergence Tolerance:
 Convergence Check Mode ConvCheckMode   .... Total+1el-Energy
 Convergence forced     ConvForced      .... 0
 Energy Change          TolE            ....  1.000e-08 Eh
 1-El. energy change                    ....  1.000e-05 Eh
 Orbital Gradient       TolG            ....  1.000e-05
 Orbital Rotation angle TolX            ....  1.000e-05
 DIIS Error             TolErr          ....  5.000e-07


Diagonalization of the overlap matrix:
Smallest eigenvalue                        ... 5.976e-04
Time for diagonalization                   ...    0.001 sec
Threshold for overlap eigenvalues          ... 1.000e-08
Number of eigenvalues below threshold      ... 0
Time for construction of square roots      ...    0.001 sec
Total time needed                          ...    0.003 sec

Time for model grid setup =    0.023 sec

------------------------------
INITIAL GUESS: MODEL POTENTIAL
------------------------------
Loading Hartree-Fock densities                     ... done
Calculating cut-offs                               ... done
Initializing the effective Hamiltonian             ... done
Setting up the integral package (SHARK)            ... done
Starting the Coulomb interaction                   ... done (   0.0 sec)
Reading the grid                                   ... done
Mapping shells                                     ... done
Starting the XC term evaluation                    ... done (   0.0 sec)
  promolecular density results
     # of electrons  =     23.997714131
     EX              =    -19.459990015
     EC              =     -0.770673896
     EX+EC           =    -20.230663911
Transforming the Hamiltonian                       ... done (   0.0 sec)
Diagonalizing the Hamiltonian                      ... done (   0.0 sec)
Back transforming the eigenvectors                 ... done (   0.0 sec)
Now organizing SCF variables                       ... done
                      ------------------
                      INITIAL GUESS DONE (   0.0 sec)
                      ------------------
-------------------
DFT GRID GENERATION
-------------------

General Integration Accuracy     IntAcc      ... 4.388
Radial Grid Type                 RadialGrid  ... OptM3 with GC (2021)
Angular Grid (max. ang.)         AngularGrid ... 4 (Lebedev-302)
Angular grid pruning method      GridPruning ... 4 (adaptive)
Weight generation scheme         WeightScheme... Becke
Basis function cutoff            BFCut       ... 1.0000e-11
Integration weight cutoff        WCut        ... 1.0000e-14
Angular grids for H and He will be reduced by one unit
Partially contracted basis set               ... off
Rotationally invariant grid construction     ... off

Total number of grid points                  ...    31326
Total number of batches                      ...      493
Average number of points per batch           ...       63
Average number of grid points per atom       ...     4475
Time for grid setup =    0.111 sec

--------------------
COSX GRID GENERATION
--------------------

GRIDX 1
-------
General Integration Accuracy     IntAcc      ... 3.816
Radial Grid Type                 RadialGrid  ... OptM3 with GC (2021)
Angular Grid (max. ang.)         AngularGrid ... 1 (Lebedev-50)
Angular grid pruning method      GridPruning ... 4 (adaptive)
Weight generation scheme         WeightScheme... Becke
Basis function cutoff            BFCut       ... 1.0000e-11
Integration weight cutoff        WCut        ... 1.0000e-14
Angular grids for H and He will be reduced by one unit
Partially contracted basis set               ... on
Rotationally invariant grid construction     ... off

Total number of grid points                  ...     4041
Total number of batches                      ...       68
Average number of points per batch           ...       59
Average number of grid points per atom       ...      577
UseSFitting                                  ... on

GRIDX 2
-------
General Integration Accuracy     IntAcc      ... 4.020
Radial Grid Type                 RadialGrid  ... OptM3 with GC (2021)
Angular Grid (max. ang.)         AngularGrid ... 2 (Lebedev-110)
Angular grid pruning method      GridPruning ... 4 (adaptive)
Weight generation scheme         WeightScheme... Becke
Basis function cutoff            BFCut       ... 1.0000e-11
Integration weight cutoff        WCut        ... 1.0000e-14
Angular grids for H and He will be reduced by one unit
Partially contracted basis set               ... on
Rotationally invariant grid construction     ... off

Total number of grid points                  ...     8729
Total number of batches                      ...      139
Average number of points per batch           ...       62
Average number of grid points per atom       ...     1247
UseSFitting                                  ... on

GRIDX 3
-------
General Integration Accuracy     IntAcc      ... 4.338
Radial Grid Type                 RadialGrid  ... OptM3 with GC (2021)
Angular Grid (max. ang.)         AngularGrid ... 3 (Lebedev-194)
Angular grid pruning method      GridPruning ... 4 (adaptive)
Weight generation scheme         WeightScheme... Becke
Basis function cutoff            BFCut       ... 1.0000e-11
Integration weight cutoff        WCut        ... 1.0000e-14
Angular grids for H and He will be reduced by one unit
Partially contracted basis set               ... on
Rotationally invariant grid construction     ... off

Total number of grid points                  ...    19270
Total number of batches                      ...      304
Average number of points per batch           ...       63
Average number of grid points per atom       ...     2753
UseSFitting                                  ... on

Time for X-Grid setup             =    0.073 sec

--------------
SCF ITERATIONS
--------------
ITER       Energy         Delta-E        Max-DP      RMS-DP      [F,P]     Damp
               ***  Starting incremental Fock matrix formation  ***
  0   -153.5775134188   0.000000000000 0.03254381  0.00112163  0.1776719 0.7000
  1   -153.6035358792  -0.026022460356 0.01655051  0.00080611  0.0680972 0.7000
                               ***Turning on DIIS***
  2   -153.6134889948  -0.009953115639 0.02327988  0.00131433  0.0289661 0.0000
  3   -153.6304760827  -0.016987087896 0.01354362  0.00062375  0.0383280 0.0000
  4   -153.6334615735  -0.002985490783 0.00458091  0.00017067  0.0114402 0.0000
                      *** Initiating the SOSCF procedure ***
                           *** Shutting down DIIS ***
                      *** Re-Reading the Fockian *** 
                      *** Removing any level shift *** 
ITER      Energy       Delta-E        Grad      Rot      Max-DP    RMS-DP
  5   -153.63372169  -0.0002601119  0.000574  0.000574  0.001181  0.000053
               *** Restarting incremental Fock matrix formation ***
  6   -153.63373915  -0.0000174611  0.000111  0.000210  0.000640  0.000022
  7   -153.63373951  -0.0000003628  0.000129  0.000165  0.000324  0.000012
  8   -153.63373967  -0.0000001656  0.000062  0.000081  0.000175  0.000006
  9   -153.63373972  -0.0000000400  0.000041  0.000039  0.000049  0.000002
 10   -153.63373975  -0.0000000311  0.000011  0.000017  0.000042  0.000002
 11   -153.63373975  -0.0000000024  0.000004  0.000007  0.000007  0.000000
                  ***Gradient check signals convergence***
              ***Rediagonalizing the Fockian in SOSCF/NRSCF***

               *****************************************************
               *                     SUCCESS                       *
               *           SCF CONVERGED AFTER  12 CYCLES          *
               *****************************************************

Old exchange energy                            =     -4.956582418 Eh
New exchange energy                            =     -4.956593726 Eh
Exchange energy change after final integration =     -0.000011308 Eh
Total energy after final integration           =   -153.633751058 Eh
Final COS-X integration done in                =     0.253 sec

----------------
TOTAL SCF ENERGY
----------------

Total Energy       :         -153.63375106 Eh           -4180.58690 eV

Components:
Nuclear Repulsion  :           71.67792316 Eh            1950.45545 eV
Electronic Energy  :         -225.31167422 Eh           -6131.04235 eV
One Electron Energy:         -350.22459784 Eh           -9530.09581 eV
Two Electron Energy:          124.91292362 Eh            3399.05346 eV
Max COSX asymmetry :            0.00000131 Eh               0.00004 eV

Virial components:
Potential Energy   :         -306.10937048 Eh           -8329.65944 eV
Kinetic Energy     :          152.47561942 Eh            4149.07254 eV
Virial Ratio       :            2.00759552


DFT components:
N(Alpha)           :       12.000005888945 electrons
N(Beta)            :       12.000005888945 electrons
N(Total)           :       24.000011777890 electrons
E(X)               :      -14.859722049598 Eh       
E(C)               :       -0.780738387728 Eh       
E(XC)              :      -15.640460437326 Eh       
DFET-embed. en.    :        0.000000000000 Eh       

---------------
SCF CONVERGENCE
---------------

  Last Energy change         ...   -1.2738e-09  Tolerance :   1.0000e-08
  Last MAX-Density change    ...    3.3307e-16  Tolerance :   1.0000e-07
  Last RMS-Density change    ...    1.9111e-17  Tolerance :   5.0000e-09
  Last Orbital Gradient      ...    1.9263e-06  Tolerance :   1.0000e-05
  Last Orbital Rotation      ...    2.8032e-06  Tolerance :   1.0000e-05

             **** THE GBW FILE WAS UPDATED (ox_gs_A_orca0030.gbw) ****
             **** DENSITY ox_gs_A_orca0030.scfp WAS UPDATED ****
             **** ENERGY FILE WAS UPDATED (ox_gs_A_orca0030.en.tmp) ****
             **** THE GBW FILE WAS UPDATED (ox_gs_A_orca0030.gbw) ****
             **** DENSITY ox_gs_A_orca0030.scfp WAS UPDATED ****
----------------
ORBITAL ENERGIES
----------------

  NO   OCC          E(Eh)            E(eV) 
   0   2.0000     -19.227745      -523.2135 
   1   2.0000     -10.295351      -280.1507 
   2   2.0000     -10.291322      -280.0411 
   3   2.0000      -1.051238       -28.6056 
   4   2.0000      -0.709653       -19.3107 
   5   2.0000      -0.642846       -17.4927 
   6   2.0000      -0.515327       -14.0228 
   7   2.0000      -0.474683       -12.9168 
   8   2.0000      -0.415556       -11.3079 
   9   2.0000      -0.372555       -10.1377 
  10   2.0000      -0.328819        -8.9476 
  11   2.0000      -0.289433        -7.8759 
  12   0.0000       0.041927         1.1409 
  13   0.0000       0.047305         1.2872 
  14   0.0000       0.065539         1.7834 
  15   0.0000       0.086716         2.3597 
  16   0.0000       0.098317         2.6753 
  17   0.0000       0.144156         3.9227 
  18   0.0000       0.187439         5.1005 
  19   0.0000       0.195816         5.3284 
  20   0.0000       0.261349         7.1117 
  21   0.0000       0.269574         7.3355 
  22   0.0000       0.287337         7.8188 
  23   0.0000       0.300317         8.1720 
  24   0.0000       0.363447         9.8899 
  25   0.0000       0.377134        10.2623 
  26   0.0000       0.387632        10.5480 
  27   0.0000       0.411630        11.2010 
  28   0.0000       0.445760        12.1297 
  29   0.0000       0.454612        12.3706 
  30   0.0000       0.465274        12.6608 
  31   0.0000       0.519509        14.1366 
  32   0.0000       0.530860        14.4454 
  33   0.0000       0.679599        18.4928 
  34   0.0000       0.704223        19.1629 
  35   0.0000       0.722706        19.6658 
  36   0.0000       0.816241        22.2111 
  37   0.0000       0.869240        23.6532 
  38   0.0000       0.890909        24.2429 
  39   0.0000       0.927011        25.2253 
  40   0.0000       0.990949        26.9651 
  41   0.0000       1.017835        27.6967 
  42   0.0000       1.038612        28.2621 
  43   0.0000       1.082271        29.4501 
  44   0.0000       1.129307        30.7300 
  45   0.0000       1.358609        36.9696 
  46   0.0000       1.463816        39.8325 
  47   0.0000       1.478008        40.2186 
  48   0.0000       1.491649        40.5898 
  49   0.0000       1.515023        41.2259 
  50   0.0000       1.568924        42.6926 
  51   0.0000       1.614256        43.9261 
  52   0.0000       1.634291        44.4713 
  53   0.0000       1.650475        44.9117 
  54   0.0000       1.766182        48.0603 
  55   0.0000       1.819875        49.5213 
  56   0.0000       1.835628        49.9500 
  57   0.0000       1.868292        50.8388 
  58   0.0000       1.890903        51.4541 
  59   0.0000       1.898834        51.6699 
  60   0.0000       2.116970        57.6057 
  61   0.0000       2.148554        58.4651 
  62   0.0000       2.159547        58.7643 
  63   0.0000       2.180065        59.3226 
  64   0.0000       2.225777        60.5665 
  65   0.0000       2.388903        65.0054 
  66   0.0000       2.417262        65.7770 
  67   0.0000       2.433675        66.2237 
  68   0.0000       2.483513        67.5798 
  69   0.0000       2.532417        68.9106 
  70   0.0000       2.566435        69.8362 
  71   0.0000       2.588608        70.4396 
  72   0.0000       2.641690        71.8840 
  73   0.0000       2.674847        72.7863 
  74   0.0000       2.703215        73.5582 
  75   0.0000       2.789859        75.9159 
  76   0.0000       2.820286        76.7439 
  77   0.0000       2.921868        79.5081 
  78   0.0000       2.980243        81.0965 
  79   0.0000       3.013684        82.0065 
  80   0.0000       3.046104        82.8887 
  81   0.0000       3.084504        83.9336 
  82   0.0000       3.122881        84.9779 
  83   0.0000       3.177302        86.4588 
  84   0.0000       3.211667        87.3939 
  85   0.0000       3.300795        89.8192 
  86   0.0000       3.342458        90.9529 
  87   0.0000       3.356382        91.3318 
  88   0.0000       3.513842        95.6165 
  89   0.0000       3.517585        95.7184 
  90   0.0000       3.614134        98.3456 
  91   0.0000       3.660353        99.6033 
  92   0.0000       3.773187       102.6736 
  93   0.0000       3.930047       106.9420 
  94   0.0000       3.995629       108.7266 
  95   0.0000       4.020448       109.4020 
  96   0.0000       4.162336       113.2629 
  97   0.0000       4.209079       114.5349 
  98   0.0000       4.311925       117.3335 
  99   0.0000       4.522226       123.0560 
 100   0.0000       4.688657       127.5848 
 101   0.0000       4.742953       129.0623 
 102   0.0000       5.244346       142.7059 
 103   0.0000       5.378720       146.3624 
 104   0.0000       5.566030       151.4594 
 105   0.0000       5.637016       153.3910 
 106   0.0000       5.650478       153.7573 
 107   0.0000       5.731342       155.9577 
 108   0.0000       5.909360       160.8019 
 109   0.0000       6.541662       178.0077 
 110   0.0000       6.562169       178.5657 
 111   0.0000       6.730422       183.1441 
 112   0.0000       6.950367       189.1291 
 113   0.0000       7.176030       195.2697 
 114   0.0000      22.108730       601.6091 
 115   0.0000      22.158801       602.9716 
 116   0.0000      43.760371      1190.7802 

                    ********************************
                    * MULLIKEN POPULATION ANALYSIS *
                    ********************************

-----------------------
MULLIKEN ATOMIC CHARGES
-----------------------
   0 O :   -0.311194
   1 C :   -0.095024
   2 C :   -0.104009
   3 H :    0.117515
   4 H :    0.133688
   5 H :    0.133553
   6 H :    0.125470
Sum of atomic charges:    0.0000000

--------------------------------
MULLIKEN REDUCED ORBITAL CHARGES
--------------------------------
  0 O s       :     3.879126  s :     3.879126
      pz      :     1.862463  p :     4.396300
      px      :     1.320428
      py      :     1.213410
      dz2     :     0.004967  d :     0.034127
      dxz     :     0.001775
      dyz     :     0.005080
      dx2y2   :     0.009695
      dxy     :     0.012611
      f0      :     0.000183  f :     0.001641
      f+1     :     0.000152
      f-1     :     0.000388
      f+2     :     0.000069
      f-2     :     0.000131
      f+3     :     0.000324
      f-3     :     0.000393
  1 C s       :     3.254826  s :     3.254826
      pz      :     1.040908  p :     2.722457
      px      :     0.920624
      py      :     0.760926
      dz2     :     0.008257  d :     0.107540
      dxz     :     0.024225
      dyz     :     0.028935
      dx2y2   :     0.026581
      dxy     :     0.019542
      f0      :     0.001351  f :     0.010200
      f+1     :     0.001305
      f-1     :     0.000616
      f+2     :     0.001328
      f-2     :     0.001173
      f+3     :     0.001919
      f-3     :     0.002508
  2 C s       :     3.261187  s :     3.261187
      pz      :     1.023759  p :     2.734475
      px      :     0.922478
      py      :     0.788238
      dz2     :     0.009389  d :     0.098916
      dxz     :     0.022590
      dyz     :     0.023984
      dx2y2   :     0.022650
      dxy     :     0.020302
      f0      :     0.001255  f :     0.009431
      f+1     :     0.001230
      f-1     :     0.000588
      f+2     :     0.000787
      f-2     :     0.001342
      f+3     :     0.001989
      f-3     :     0.002240
  3 H s       :     0.866749  s :     0.866749
      pz      :     0.009111  p :     0.015736
      px      :     0.004258
      py      :     0.002368
  4 H s       :     0.843112  s :     0.843112
      pz      :     0.010967  p :     0.023199
      px      :     0.007550
      py      :     0.004682
  5 H s       :     0.843139  s :     0.843139
      pz      :     0.010790  p :     0.023308
      px      :     0.007093
      py      :     0.005425
  6 H s       :     0.856538  s :     0.856538
      pz      :     0.010748  p :     0.017991
      px      :     0.004385
      py      :     0.002859


                     *******************************
                     * LOEWDIN POPULATION ANALYSIS *
                     *******************************

----------------------
LOEWDIN ATOMIC CHARGES
----------------------
   0 O :    0.022660
   1 C :   -0.270470
   2 C :   -0.238830
   3 H :    0.141219
   4 H :    0.095638
   5 H :    0.106281
   6 H :    0.143502

-------------------------------
LOEWDIN REDUCED ORBITAL CHARGES
-------------------------------
  0 O s       :     3.483996  s :     3.483996
      pz      :     1.777802  p :     4.418182
      px      :     1.318646
      py      :     1.321734
      dz2     :     0.010542  d :     0.070791
      dxz     :     0.004981
      dyz     :     0.009995
      dx2y2   :     0.023812
      dxy     :     0.021461
      f0      :     0.000361  f :     0.004371
      f+1     :     0.000190
      f-1     :     0.000743
      f+2     :     0.000144
      f-2     :     0.000535
      f+3     :     0.000937
      f-3     :     0.001460
  1 C s       :     2.870967  s :     2.870967
      pz      :     1.056754  p :     2.908301
      px      :     1.036464
      py      :     0.815082
      dz2     :     0.051999  d :     0.432855
      dxz     :     0.113026
      dyz     :     0.076574
      dx2y2   :     0.103296
      dxy     :     0.087961
      f0      :     0.007624  f :     0.058347
      f+1     :     0.004612
      f-1     :     0.005198
      f+2     :     0.007684
      f-2     :     0.004423
      f+3     :     0.012858
      f-3     :     0.015948
  2 C s       :     2.872678  s :     2.872678
      pz      :     1.059346  p :     2.919825
      px      :     1.042255
      py      :     0.818224
      dz2     :     0.051809  d :     0.394780
      dxz     :     0.103269
      dyz     :     0.066940
      dx2y2   :     0.087500
      dxy     :     0.085262
      f0      :     0.007037  f :     0.051547
      f+1     :     0.004411
      f-1     :     0.004355
      f+2     :     0.004666
      f-2     :     0.005246
      f+3     :     0.012648
      f-3     :     0.013184
  3 H s       :     0.817745  s :     0.817745
      pz      :     0.024737  p :     0.041036
      px      :     0.010243
      py      :     0.006055
  4 H s       :     0.830815  s :     0.830815
      pz      :     0.036254  p :     0.073547
      px      :     0.022401
      py      :     0.014892
  5 H s       :     0.822371  s :     0.822371
      pz      :     0.034419  p :     0.071347
      px      :     0.020289
      py      :     0.016640
  6 H s       :     0.808637  s :     0.808637
      pz      :     0.029379  p :     0.047861
      px      :     0.010727
      py      :     0.007755


                      *****************************
                      * MAYER POPULATION ANALYSIS *
                      *****************************

  NA   - Mulliken gross atomic population
  ZA   - Total nuclear charge
  QA   - Mulliken gross atomic charge
  VA   - Mayer's total valence
  BVA  - Mayer's bonded valence
  FA   - Mayer's free valence

  ATOM       NA         ZA         QA         VA         BVA        FA
  0 O      8.3112     8.0000    -0.3112     1.9922     1.9922     0.0000
  1 C      6.0950     6.0000    -0.0950     3.9529     3.9529    -0.0000
  2 C      6.1040     6.0000    -0.1040     3.9623     3.9623     0.0000
  3 H      0.8825     1.0000     0.1175     0.9639     0.9639    -0.0000
  4 H      0.8663     1.0000     0.1337     0.9541     0.9541    -0.0000
  5 H      0.8664     1.0000     0.1336     0.9502     0.9502    -0.0000
  6 H      0.8745     1.0000     0.1255     0.9620     0.9620     0.0000

  Mayer bond orders larger than 0.100000
B(  0-O ,  1-C ) :   0.9761 B(  0-O ,  2-C ) :   0.9923 B(  1-C ,  2-C ) :   1.0690 
B(  1-C ,  3-H ) :   0.9450 B(  1-C ,  4-H ) :   0.9490 B(  2-C ,  5-H ) :   0.9404 
B(  2-C ,  6-H ) :   0.9452 

-------
TIMINGS
-------

Total SCF time: 0 days 0 hours 0 min 2 sec 

Total time                  ....       2.768 sec
Sum of individual times     ....       2.559 sec  ( 92.5%)

Fock matrix formation       ....       2.294 sec  ( 82.9%)
  Split-RI-J                ....       0.243 sec  ( 10.6% of F)
  Chain of spheres X        ....       1.576 sec  ( 68.7% of F)
  XC integration            ....       0.417 sec  ( 18.2% of F)
    Basis function eval.    ....       0.116 sec  ( 27.9% of XC)
    Density eval.           ....       0.085 sec  ( 20.4% of XC)
    XC-Functional eval.     ....       0.025 sec  (  6.0% of XC)
    XC-Potential eval.      ....       0.143 sec  ( 34.2% of XC)
Diagonalization             ....       0.013 sec  (  0.5%)
Density matrix formation    ....       0.002 sec  (  0.1%)
Population analysis         ....       0.002 sec  (  0.1%)
Initial guess               ....       0.017 sec  (  0.6%)
Orbital Transformation      ....       0.000 sec  (  0.0%)
Orbital Orthonormalization  ....       0.000 sec  (  0.0%)
DIIS solution               ....       0.010 sec  (  0.4%)
SOSCF solution              ....       0.015 sec  (  0.5%)
Grid generation             ....       0.206 sec  (  7.4%)

Maximum memory used throughout the entire SCF-calculation: 61.0 MB


-------------------------------------------------------------------------------
                          DFT DISPERSION CORRECTION                            
                                                                               
                              DFTD3 V3.1  Rev 1                                
                          USING Becke-Johnson damping                          
-------------------------------------------------------------------------------
The PBE0 functional is recognized
Active option DFTDOPT                   ...         4   

molecular C6(AA) [au] = 352.788078 


            DFT-D V3
 parameters
 s6 scaling factor         :     1.0000 
 a1 scaling factor         :     0.4145 
 s8 scaling factor         :     1.2177 
 a2 scaling factor         :     4.8593 
 ad hoc parameters k1-k3   :    16.0000     1.3333    -4.0000 

 Edisp/kcal,au: -1.506216862241  -0.002400309101 
 E6   /kcal   :  -0.986362174 
 E8   /kcal   :  -0.519854688 
 % E8         :  34.513933645 

-------------------------   ----------------
Dispersion correction           -0.002400309
-------------------------   ----------------


-------------------------   --------------------
FINAL SINGLE POINT ENERGY      -153.636151367042
-------------------------   --------------------



           ************************************************************
           *        Program running with 8 parallel MPI-processes     *
           *              working on a common directory               *
           ************************************************************
------------------------------------------------------------------------------
                         ORCA SCF GRADIENT CALCULATION
------------------------------------------------------------------------------

 ... reading COSX grid (gridx3)
Gradient of the Kohn-Sham DFT energy:
Kohn-Sham wavefunction type      ... RKS
Hartree-Fock exchange scaling    ...    0.250
Number of operators              ...    1
Number of atoms                  ...    7
Basis set dimensions             ...  117
Integral neglect threshold       ... 2.5e-11
Integral primitive cutoff        ... 2.5e-12
SHARK Integral package           ... ON

Nuc. rep. gradient       (SHARK) ... done (  0.0 sec)
HCore & Overlap gradient (SHARK) ... done (  0.0 sec)
RI-J gradient            (SHARK) ... done (  0.1 sec)
COSX-gradient                    ... done (  0.3 sec)
Exchange-correlation gradient    ... done
Dispersion correction            ... done

------------------
CARTESIAN GRADIENT
------------------

   1   O   :   -0.017651974    0.074377743    0.027521855
   2   C   :   -0.039023853   -0.039330213   -0.117027275
   3   C   :    0.066994514   -0.024419592   -0.091174664
   4   H   :   -0.029710700   -0.002798780    0.062327833
   5   H   :    0.021168873    0.005724991    0.038168537
   6   H   :   -0.018817002   -0.006902492    0.025928258
   7   H   :    0.017052095   -0.006809352    0.054288202

Difference to translation invariance:
           :    0.0000119529   -0.0001576945    0.0000327441

Difference to rotation invariance:
           :    0.0000240819    0.0000154858   -0.0001796789

Norm of the cartesian gradient     ...    0.2187121491
RMS gradient                       ...    0.0477269037
MAX gradient                       ...    0.1170272755

-------
TIMINGS
-------

Total SCF gradient time            ...        0.684 sec

One electron gradient       ....       0.010 sec  (  1.4%)
RI-J Coulomb gradient       ....       0.075 sec  ( 11.0%)
COSX gradient               ....       0.302 sec  ( 44.1%)
XC gradient                 ....       0.158 sec  ( 23.2%)

Maximum memory used throughout the entire SCFGRAD-calculation: 35.9 MB

                            ***************************************
                            *     ORCA property calculations      *
                            ***************************************

                                    ---------------------
                                    Active property flags
                                    ---------------------
   (+) Dipole Moment


------------------------------------------------------------------------------
                       ORCA ELECTRIC PROPERTIES CALCULATION
------------------------------------------------------------------------------

Dipole Moment Calculation                       ... on
Quadrupole Moment Calculation                   ... off
Polarizability Calculation                      ... off
GBWName                                         ... ox_gs_A_orca0030.gbw
Electron density                                ... ox_gs_A_orca0030.scfp
The origin for moment calculation is the CENTER OF MASS  = (-0.052318, -0.029878 -0.074328)

-------------
DIPOLE MOMENT
-------------
                                X             Y             Z
Electronic contribution:      0.03963       1.74109      -0.38834
Nuclear contribution   :      0.00650      -2.61589       0.29902
                        -----------------------------------------
Total Dipole Moment    :      0.04613      -0.87480      -0.08932
                        -----------------------------------------
Magnitude (a.u.)       :      0.88056
Magnitude (Debye)      :      2.23820



--------------------
Rotational spectrum 
--------------------
 
Rotational constants in cm-1:     0.753248     0.685219     0.428116 
Rotational constants in MHz : 22581.796134 20542.355993 12834.596027 

 Dipole components along the rotational axes: 
x,y,z [a.u.] :     0.341305    -0.810636    -0.041993 
x,y,z [Debye]:     0.867529    -2.060472    -0.106738 

 

Timings for individual modules:

Sum of individual times         ...        4.340 sec (=   0.072 min)
GTO integral calculation        ...        0.378 sec (=   0.006 min)   8.7 %
SCF iterations                  ...        2.985 sec (=   0.050 min)  68.8 %
SCF Gradient evaluation         ...        0.977 sec (=   0.016 min)  22.5 %
                             ****ORCA TERMINATED NORMALLY****
TOTAL RUN TIME: 0 days 0 hours 0 minutes 4 seconds 623 msec
