
                                 *****************
                                 * O   R   C   A *
                                 *****************

                                            #,                                       
                                            ###                                      
                                            ####                                     
                                            #####                                    
                                            ######                                   
                                           ########,                                 
                                     ,,################,,,,,                         
                               ,,#################################,,                 
                          ,,##########################################,,             
                       ,#########################################, ''#####,          
                    ,#############################################,,   '####,        
                  ,##################################################,,,,####,       
                ,###########''''           ''''###############################       
              ,#####''   ,,,,##########,,,,          '''####'''          '####       
            ,##' ,,,,###########################,,,                        '##       
           ' ,,###''''                  '''############,,,                           
         ,,##''                                '''############,,,,        ,,,,,,###''
      ,#''                                            '''#######################'''  
     '                                                          ''''####''''         
             ,#######,   #######,   ,#######,      ##                                
            ,#'     '#,  ##    ##  ,#'     '#,    #''#        ######   ,####,        
            ##       ##  ##   ,#'  ##            #'  '#       #        #'  '#        
            ##       ##  #######   ##           ,######,      #####,   #    #        
            '#,     ,#'  ##    ##  '#,     ,#' ,#      #,         ##   #,  ,#        
             '#######'   ##     ##  '#######'  #'      '#     #####' # '####'        



                  #######################################################
                  #                        -***-                        #
                  #          Department of theory and spectroscopy      #
                  #    Directorship and core code : Frank Neese         #
                  #        Max Planck Institute fuer Kohlenforschung    #
                  #                Kaiser Wilhelm Platz 1               #
                  #                 D-45470 Muelheim/Ruhr               #
                  #                      Germany                        #
                  #                                                     #
                  #                  All rights reserved                #
                  #                        -***-                        #
                  #######################################################


                         Program Version 5.0.2 -  RELEASE  -


 With contributions from (in alphabetic order):
   Daniel Aravena         : Magnetic Suceptibility
   Michael Atanasov       : Ab Initio Ligand Field Theory (pilot matlab implementation)
   Alexander A. Auer      : GIAO ZORA, VPT2 properties, NMR spectrum
   Ute Becker             : Parallelization
   Giovanni Bistoni       : ED, misc. LED, open-shell LED, HFLD
   Martin Brehm           : Molecular dynamics
   Dmytro Bykov           : SCF Hessian
   Vijay G. Chilkuri      : MRCI spin determinant printing, contributions to CSF-ICE
   Dipayan Datta          : RHF DLPNO-CCSD density
   Achintya Kumar Dutta   : EOM-CC, STEOM-CC
   Dmitry Ganyushin       : Spin-Orbit,Spin-Spin,Magnetic field MRCI
   Miquel Garcia          : C-PCM and meta-GGA Hessian, CC/C-PCM, Gaussian charge scheme
   Yang Guo               : DLPNO-NEVPT2, F12-NEVPT2, CIM, IAO-localization
   Andreas Hansen         : Spin unrestricted coupled pair/coupled cluster methods
   Benjamin Helmich-Paris : MC-RPA, TRAH-SCF, COSX integrals
   Lee Huntington         : MR-EOM, pCC
   Robert Izsak           : Overlap fitted RIJCOSX, COSX-SCS-MP3, EOM
   Marcus Kettner         : VPT2
   Christian Kollmar      : KDIIS, OOCD, Brueckner-CCSD(T), CCSD density, CASPT2, CASPT2-K
   Simone Kossmann        : Meta GGA functionals, TD-DFT gradient, OOMP2, MP2 Hessian
   Martin Krupicka        : Initial AUTO-CI
   Lucas Lang             : DCDCAS
   Marvin Lechner         : AUTO-CI (C++ implementation), FIC-MRCC
   Dagmar Lenk            : GEPOL surface, SMD
   Dimitrios Liakos       : Extrapolation schemes; Compound Job, initial MDCI parallelization
   Dimitrios Manganas     : Further ROCIS development; embedding schemes
   Dimitrios Pantazis     : SARC Basis sets
   Anastasios Papadopoulos: AUTO-CI, single reference methods and gradients
   Taras Petrenko         : DFT Hessian,TD-DFT gradient, ASA, ECA, R-Raman, ABS, FL, XAS/XES, NRVS
   Peter Pinski           : DLPNO-MP2, DLPNO-MP2 Gradient
   Christoph Reimann      : Effective Core Potentials
   Marius Retegan         : Local ZFS, SOC
   Christoph Riplinger    : Optimizer, TS searches, QM/MM, DLPNO-CCSD(T), (RO)-DLPNO pert. Triples
   Tobias Risthaus        : Range-separated hybrids, TD-DFT gradient, RPA, STAB
   Michael Roemelt        : Original ROCIS implementation
   Masaaki Saitow         : Open-shell DLPNO-CCSD energy and density
   Barbara Sandhoefer     : DKH picture change effects
   Avijit Sen             : IP-ROCIS
   Kantharuban Sivalingam : CASSCF convergence, NEVPT2, FIC-MRCI
   Bernardo de Souza      : ESD, SOC TD-DFT
   Georgi Stoychev        : AutoAux, RI-MP2 NMR, DLPNO-MP2 response
   Willem Van den Heuvel  : Paramagnetic NMR
   Boris Wezisla          : Elementary symmetry handling
   Frank Wennmohs         : Technical directorship


 We gratefully acknowledge several colleagues who have allowed us to
 interface, adapt or use parts of their codes:
   Stefan Grimme, W. Hujo, H. Kruse, P. Pracht,  : VdW corrections, initial TS optimization,
                  C. Bannwarth, S. Ehlert          DFT functionals, gCP, sTDA/sTD-DF
   Ed Valeev, F. Pavosevic, A. Kumar             : LibInt (2-el integral package), F12 methods
   Garnet Chan, S. Sharma, J. Yang, R. Olivares  : DMRG
   Ulf Ekstrom                                   : XCFun DFT Library
   Mihaly Kallay                                 : mrcc  (arbitrary order and MRCC methods)
   Jiri Pittner, Ondrej Demel                    : Mk-CCSD
   Frank Weinhold                                : gennbo (NPA and NBO analysis)
   Christopher J. Cramer and Donald G. Truhlar   : smd solvation model
   Lars Goerigk                                  : TD-DFT with DH, B97 family of functionals
   V. Asgeirsson, H. Jonsson                     : NEB implementation
   FAccTs GmbH                                   : IRC, NEB, NEB-TS, DLPNO-Multilevel, CI-OPT
                                                   MM, QMMM, 2- and 3-layer-ONIOM, Crystal-QMMM,
                                                   LR-CPCM, SF, NACMEs, symmetry and pop. for TD-DFT,
                                                   nearIR, NL-DFT gradient (VV10), updates on ESD,
                                                   ML-optimized integration grids
   S Lehtola, MJT Oliveira, MAL Marques          : LibXC Library
   Liviu Ungur et al                             : ANISO software


 Your calculation uses the libint2 library for the computation of 2-el integrals
 For citations please refer to: http://libint.valeyev.net

 Your ORCA version has been built with support for libXC version: 5.1.0
 For citations please refer to: https://tddft.org/programs/libxc/

 This ORCA versions uses:
   CBLAS   interface :  Fast vector & matrix operations
   LAPACKE interface :  Fast linear algebra routines
   SCALAPACK package :  Parallel linear algebra routines
   Shared memory     :  Shared parallel matrices
   BLAS/LAPACK       :  OpenBLAS 0.3.15  USE64BITINT DYNAMIC_ARCH NO_AFFINITY SkylakeX SINGLE_THREADED
        Core in use  :  SkylakeX
   Copyright (c) 2011-2014, The OpenBLAS Project


Your calculation utilizes the atom-pairwise dispersion correction
with the Becke-Johnson damping scheme (D3BJ)
Cite in your paper:
S.Grimme, S.Ehrlich, L.Goerigk, J Comput Chem, (2011), 32, 1456–1465 
S.Grimme, J.Antony, S.Ehrlich and H.Krieg, J.Chem.Phys., 132, (2010), 154104 
   

================================================================================

----- Orbital basis set information -----
Your calculation utilizes the basis: def2-TZVP
   F. Weigend and R. Ahlrichs, Phys. Chem. Chem. Phys. 7, 3297 (2005).

----- AuxJ basis set information -----
Your calculation utilizes the auxiliary basis: def2/J
   F. Weigend, Phys. Chem. Chem. Phys. 8, 1057 (2006).

================================================================================
                                        WARNINGS
                       Please study these warnings very carefully!
================================================================================


INFO   : the flag for use of the SHARK integral package has been found!

================================================================================
                                       INPUT FILE
================================================================================
NAME = ox_gs_A_orca0002.inp
|  1> ! engrad PBE0 D3BJ def2-TZVP  
|  2> %pal nprocs 8 end
|  3> %maxcore 3000
|  4>  
|  5> *xyz 0 1 
|  6> O   -0.005782364119412027 0.7518691252205356 -0.07392598951837137
|  7> C   -0.7648818004197354 -0.47005242854798934 0.05285611131094579
|  8> C   0.746070454478423 -0.5351724977681367 0.01620419846973975
|  9> H   -1.2830770440208157 -0.702116910015298 0.9505600344420434
| 10> H   -1.2122727938752025 -0.6217069040441902 -0.961937096161132
| 11> H   1.2483622012074391 -0.6517076884298219 -0.871198963643882
| 12> H   1.2398641581077356 -0.6775537588331908 0.8646594212996985
| 13> *
| 14> 
| 15>                          ****END OF INPUT****
================================================================================

                     *******************************
                     * Energy+Gradient Calculation *
                     *******************************

---------------------------------
CARTESIAN COORDINATES (ANGSTROEM)
---------------------------------
  O     -0.005782    0.751869   -0.073926
  C     -0.764882   -0.470052    0.052856
  C      0.746070   -0.535172    0.016204
  H     -1.283077   -0.702117    0.950560
  H     -1.212273   -0.621707   -0.961937
  H      1.248362   -0.651708   -0.871199
  H      1.239864   -0.677554    0.864659

----------------------------
CARTESIAN COORDINATES (A.U.)
----------------------------
  NO LB      ZA    FRAG     MASS         X           Y           Z
   0 O     8.0000    0    15.999   -0.010927    1.420827   -0.139700
   1 C     6.0000    0    12.011   -1.445417   -0.888270    0.099884
   2 C     6.0000    0    12.011    1.409869   -1.011329    0.030621
   3 H     1.0000    0     1.008   -2.424664   -1.326809    1.796298
   4 H     1.0000    0     1.008   -2.290864   -1.174856   -1.817798
   5 H     1.0000    0     1.008    2.359063   -1.231549   -1.646327
   6 H     1.0000    0     1.008    2.343004   -1.280391    1.633970

--------------------------------
INTERNAL COORDINATES (ANGSTROEM)
--------------------------------
 O      0   0   0     0.000000000000     0.00000000     0.00000000
 C      1   0   0     1.444090696198     0.00000000     0.00000000
 C      1   2   0     1.493279026480    61.97059549     0.00000000
 H      2   1   3     1.062192340235   121.03142984   109.18553013
 H      2   1   3     1.119358313899   104.19042727   252.70701184
 H      3   1   2     1.026334166645   106.98293512   116.32306717
 H      3   1   2     0.991958119274   115.21231337   250.59757375

---------------------------
INTERNAL COORDINATES (A.U.)
---------------------------
 O      0   0   0     0.000000000000     0.00000000     0.00000000
 C      1   0   0     2.728935928358     0.00000000     0.00000000
 C      1   2   0     2.821888401576    61.97059549     0.00000000
 H      2   1   3     2.007252624594   121.03142984   109.18553013
 H      2   1   3     2.115280658997   104.19042727   252.70701184
 H      3   1   2     1.939490496846   106.98293512   116.32306717
 H      3   1   2     1.874529181748   115.21231337   250.59757375

---------------------
BASIS SET INFORMATION
---------------------
There are 3 groups of distinct atoms

 Group   1 Type O   : 11s6p2d1f contracted to 5s3p2d1f pattern {62111/411/11/1}
 Group   2 Type C   : 11s6p2d1f contracted to 5s3p2d1f pattern {62111/411/11/1}
 Group   3 Type H   : 5s1p contracted to 3s1p pattern {311/1}

Atom   0O    basis set group =>   1
Atom   1C    basis set group =>   2
Atom   2C    basis set group =>   2
Atom   3H    basis set group =>   3
Atom   4H    basis set group =>   3
Atom   5H    basis set group =>   3
Atom   6H    basis set group =>   3
---------------------------------
AUXILIARY/J BASIS SET INFORMATION
---------------------------------
There are 3 groups of distinct atoms

 Group   1 Type O   : 12s5p4d2f1g contracted to 6s4p3d1f1g pattern {711111/2111/211/2/1}
 Group   2 Type C   : 12s5p4d2f1g contracted to 6s4p3d1f1g pattern {711111/2111/211/2/1}
 Group   3 Type H   : 5s2p1d contracted to 3s1p1d pattern {311/2/1}

Atom   0O    basis set group =>   1
Atom   1C    basis set group =>   2
Atom   2C    basis set group =>   2
Atom   3H    basis set group =>   3
Atom   4H    basis set group =>   3
Atom   5H    basis set group =>   3
Atom   6H    basis set group =>   3


           ************************************************************
           *        Program running with 8 parallel MPI-processes     *
           *              working on a common directory               *
           ************************************************************
------------------------------------------------------------------------------
                           ORCA GTO INTEGRAL CALCULATION
                           -- RI-GTO INTEGRALS CHOSEN --
------------------------------------------------------------------------------
------------------------------------------------------------------------------
                   ___                                                        
                  /   \      - P O W E R E D   B Y -                         
                 /     \                                                     
                 |  |  |   _    _      __       _____    __    __             
                 |  |  |  | |  | |    /  \     |  _  \  |  |  /  |          
                  \  \/   | |  | |   /    \    | | | |  |  | /  /          
                 / \  \   | |__| |  /  /\  \   | |_| |  |  |/  /          
                |  |  |   |  __  | /  /__\  \  |    /   |      \           
                |  |  |   | |  | | |   __   |  |    \   |  |\   \          
                \     /   | |  | | |  |  |  |  | |\  \  |  | \   \       
                 \___/    |_|  |_| |__|  |__|  |_| \__\ |__|  \__/        
                                                                              
                      - O R C A' S   B I G   F R I E N D -                    
                                      &                                       
                       - I N T E G R A L  F E E D E R -                       
                                                                              
 v1 FN, 2020, v2 2021                                                         
------------------------------------------------------------------------------


Reading SHARK input file ox_gs_A_orca0002.SHARKINP.tmp ... ok
----------------------
SHARK INTEGRAL PACKAGE
----------------------

Number of atoms                             ...      7
Number of basis functions                   ...    117
Number of shells                            ...     49
Maximum angular momentum                    ...      3
Integral batch strategy                     ... SHARK/LIBINT Hybrid
RI-J (if used) integral strategy            ... SPLIT-RIJ (Revised 2003 algorithm where possible)
Printlevel                                  ...      1
Contraction scheme used                     ... SEGMENTED contraction
Coulomb Range Separation                    ... NOT USED
Exchange Range Separation                   ... NOT USED
Finite Nucleus Model                        ... NOT USED
Auxiliary Coulomb fitting basis             ... AVAILABLE
   # of basis functions in Aux-J            ...    191
   # of shells in Aux-J                     ...     65
   Maximum angular momentum in Aux-J        ...      4
Auxiliary J/K fitting basis                 ... NOT available
Auxiliary Correlation fitting basis         ... NOT available
Auxiliary 'external' fitting basis          ... NOT available
Integral threshold                          ...     2.500000e-11
Primitive cut-off                           ...     2.500000e-12
Primitive pair pre-selection threshold      ...     2.500000e-12

Calculating pre-screening integrals         ... done (  0.0 sec) Dimension = 49
Organizing shell pair data                  ... done (  0.0 sec)
Shell pair information
Total number of shell pairs                 ...      1225
Shell pairs after pre-screening             ...      1220
Total number of primitive shell pairs       ...      3648
Primitive shell pairs kept                  ...      3147
          la=0 lb=0:    373 shell pairs
          la=1 lb=0:    351 shell pairs
          la=1 lb=1:     91 shell pairs
          la=2 lb=0:    162 shell pairs
          la=2 lb=1:     78 shell pairs
          la=2 lb=2:     21 shell pairs
          la=3 lb=0:     81 shell pairs
          la=3 lb=1:     39 shell pairs
          la=3 lb=2:     18 shell pairs
          la=3 lb=3:      6 shell pairs

Calculating one electron integrals          ... done (  0.0 sec)
Calculating RI/J V-Matrix + Cholesky decomp.... done (  0.0 sec)
Calculating Nuclear repulsion               ... done (  0.0 sec) ENN=     74.504929441110 Eh

SHARK setup successfully completed in   0.2 seconds

Maximum memory used throughout the entire GTOINT-calculation: 14.9 MB


           ************************************************************
           *        Program running with 8 parallel MPI-processes     *
           *              working on a common directory               *
           ************************************************************
-------------------------------------------------------------------------------
                                 ORCA SCF
-------------------------------------------------------------------------------

------------
SCF SETTINGS
------------
Hamiltonian:
 Density Functional     Method          .... DFT(GTOs)
 Exchange Functional    Exchange        .... PBE
   PBE kappa parameter   XKappa         ....  0.804000
   PBE mue parameter    XMuePBE         ....  0.219520
 Correlation Functional Correlation     .... PBE
   PBE beta parameter  CBetaPBE         ....  0.066725
 LDA part of GGA corr.  LDAOpt          .... PW91-LDA
 Gradients option       PostSCFGGA      .... off
 Hybrid DFT is turned on
   Fraction HF Exchange ScalHFX         ....  0.250000
   Scaling of DF-GGA-X  ScalDFX         ....  0.750000
   Scaling of DF-GGA-C  ScalDFC         ....  1.000000
   Scaling of DF-LDA-C  ScalLDAC        ....  1.000000
   Perturbative correction              ....  0.000000
   Density functional embedding theory  .... OFF
   NL short-range parameter             ....  6.900000
 RI-approximation to the Coulomb term is turned on
   Number of AuxJ basis functions       .... 191
   RIJ-COSX (HFX calculated with COS-X)).... on


General Settings:
 Integral files         IntName         .... ox_gs_A_orca0002
 Hartree-Fock type      HFTyp           .... RHF
 Total Charge           Charge          ....    0
 Multiplicity           Mult            ....    1
 Number of Electrons    NEL             ....   24
 Basis Dimension        Dim             ....  117
 Nuclear Repulsion      ENuc            ....     74.5049294411 Eh

Convergence Acceleration:
 DIIS                   CNVDIIS         .... on
   Start iteration      DIISMaxIt       ....    12
   Startup error        DIISStart       ....  0.200000
   # of expansion vecs  DIISMaxEq       ....     5
   Bias factor          DIISBfac        ....   1.050
   Max. coefficient     DIISMaxC        ....  10.000
 Trust-Rad. Augm. Hess. CNVTRAH         .... auto
   Auto Start mean grad. ratio tolernc. ....  1.125000
   Auto Start start iteration           ....    20
   Auto Start num. interpolation iter.  ....    10
   Max. Number of Micro iterations      ....    16
   Max. Number of Macro iterations      .... Maxiter - #DIIS iter
   Number of Davidson start vectors     ....     2
   Converg. threshold I  (grad. norm)   ....   1.000e-05
   Converg. threshold II (energy diff.) ....   1.000e-08
   Grad. Scal. Fac. for Micro threshold ....   0.100
   Minimum threshold for Micro iter.    ....   0.010
   NR start threshold (gradient norm)   ....   0.001
   Initial trust radius                 ....   0.400
   Minimum AH scaling param. (alpha)    ....   1.000
   Maximum AH scaling param. (alpha)    .... 1000.000
   Orbital update algorithm             .... Taylor
   White noise on init. David. guess    .... on
   Maximum white noise                  ....   0.010
   Quad. conv. algorithm                .... NR
 SOSCF                  CNVSOSCF        .... on
   Start iteration      SOSCFMaxIt      ....   150
   Startup grad/error   SOSCFStart      ....  0.003300
 Level Shifting         CNVShift        .... on
   Level shift para.    LevelShift      ....    0.2500
   Turn off err/grad.   ShiftErr        ....    0.0010
 Zerner damping         CNVZerner       .... off
 Static damping         CNVDamp         .... on
   Fraction old density DampFac         ....    0.7000
   Max. Damping (<1)    DampMax         ....    0.9800
   Min. Damping (>=0)   DampMin         ....    0.0000
   Turn off err/grad.   DampErr         ....    0.1000
 Fernandez-Rico         CNVRico         .... off

SCF Procedure:
 Maximum # iterations   MaxIter         ....   125
 SCF integral mode      SCFMode         .... Direct
   Integral package                     .... SHARK and LIBINT hybrid scheme
 Reset frequency        DirectResetFreq ....    20
 Integral Threshold     Thresh          ....  2.500e-11 Eh
 Primitive CutOff       TCut            ....  2.500e-12 Eh

Convergence Tolerance:
 Convergence Check Mode ConvCheckMode   .... Total+1el-Energy
 Convergence forced     ConvForced      .... 0
 Energy Change          TolE            ....  1.000e-08 Eh
 1-El. energy change                    ....  1.000e-05 Eh
 Orbital Gradient       TolG            ....  1.000e-05
 Orbital Rotation angle TolX            ....  1.000e-05
 DIIS Error             TolErr          ....  5.000e-07


Diagonalization of the overlap matrix:
Smallest eigenvalue                        ... 5.407e-04
Time for diagonalization                   ...    0.019 sec
Threshold for overlap eigenvalues          ... 1.000e-08
Number of eigenvalues below threshold      ... 0
Time for construction of square roots      ...    0.003 sec
Total time needed                          ...    0.023 sec

Time for model grid setup =    0.038 sec

------------------------------
INITIAL GUESS: MODEL POTENTIAL
------------------------------
Loading Hartree-Fock densities                     ... done
Calculating cut-offs                               ... done
Initializing the effective Hamiltonian             ... done
Setting up the integral package (SHARK)            ... done
Starting the Coulomb interaction                   ... done (   0.0 sec)
Reading the grid                                   ... done
Mapping shells                                     ... done
Starting the XC term evaluation                    ... done (   0.0 sec)
  promolecular density results
     # of electrons  =     23.997568085
     EX              =    -19.536713281
     EC              =     -0.780995554
     EX+EC           =    -20.317708836
Transforming the Hamiltonian                       ... done (   0.0 sec)
Diagonalizing the Hamiltonian                      ... done (   0.0 sec)
Back transforming the eigenvectors                 ... done (   0.0 sec)
Now organizing SCF variables                       ... done
                      ------------------
                      INITIAL GUESS DONE (   0.1 sec)
                      ------------------
-------------------
DFT GRID GENERATION
-------------------

General Integration Accuracy     IntAcc      ... 4.388
Radial Grid Type                 RadialGrid  ... OptM3 with GC (2021)
Angular Grid (max. ang.)         AngularGrid ... 4 (Lebedev-302)
Angular grid pruning method      GridPruning ... 4 (adaptive)
Weight generation scheme         WeightScheme... Becke
Basis function cutoff            BFCut       ... 1.0000e-11
Integration weight cutoff        WCut        ... 1.0000e-14
Angular grids for H and He will be reduced by one unit
Partially contracted basis set               ... off
Rotationally invariant grid construction     ... off

Total number of grid points                  ...    31301
Total number of batches                      ...      492
Average number of points per batch           ...       63
Average number of grid points per atom       ...     4472
Time for grid setup =    0.111 sec

--------------------
COSX GRID GENERATION
--------------------

GRIDX 1
-------
General Integration Accuracy     IntAcc      ... 3.816
Radial Grid Type                 RadialGrid  ... OptM3 with GC (2021)
Angular Grid (max. ang.)         AngularGrid ... 1 (Lebedev-50)
Angular grid pruning method      GridPruning ... 4 (adaptive)
Weight generation scheme         WeightScheme... Becke
Basis function cutoff            BFCut       ... 1.0000e-11
Integration weight cutoff        WCut        ... 1.0000e-14
Angular grids for H and He will be reduced by one unit
Partially contracted basis set               ... on
Rotationally invariant grid construction     ... off

Total number of grid points                  ...     4039
Total number of batches                      ...       67
Average number of points per batch           ...       60
Average number of grid points per atom       ...      577
UseSFitting                                  ... on

GRIDX 2
-------
General Integration Accuracy     IntAcc      ... 4.020
Radial Grid Type                 RadialGrid  ... OptM3 with GC (2021)
Angular Grid (max. ang.)         AngularGrid ... 2 (Lebedev-110)
Angular grid pruning method      GridPruning ... 4 (adaptive)
Weight generation scheme         WeightScheme... Becke
Basis function cutoff            BFCut       ... 1.0000e-11
Integration weight cutoff        WCut        ... 1.0000e-14
Angular grids for H and He will be reduced by one unit
Partially contracted basis set               ... on
Rotationally invariant grid construction     ... off

Total number of grid points                  ...     8715
Total number of batches                      ...      140
Average number of points per batch           ...       62
Average number of grid points per atom       ...     1245
UseSFitting                                  ... on

GRIDX 3
-------
General Integration Accuracy     IntAcc      ... 4.338
Radial Grid Type                 RadialGrid  ... OptM3 with GC (2021)
Angular Grid (max. ang.)         AngularGrid ... 3 (Lebedev-194)
Angular grid pruning method      GridPruning ... 4 (adaptive)
Weight generation scheme         WeightScheme... Becke
Basis function cutoff            BFCut       ... 1.0000e-11
Integration weight cutoff        WCut        ... 1.0000e-14
Angular grids for H and He will be reduced by one unit
Partially contracted basis set               ... on
Rotationally invariant grid construction     ... off

Total number of grid points                  ...    19230
Total number of batches                      ...      305
Average number of points per batch           ...       63
Average number of grid points per atom       ...     2747
UseSFitting                                  ... on

Time for X-Grid setup             =    0.073 sec

--------------
SCF ITERATIONS
--------------
ITER       Energy         Delta-E        Max-DP      RMS-DP      [F,P]     Damp
               ***  Starting incremental Fock matrix formation  ***
  0   -153.5914233375   0.000000000000 0.03192339  0.00114409  0.1745429 0.7000
  1   -153.6191343248  -0.027710987280 0.01814593  0.00084903  0.0736729 0.7000
                               ***Turning on DIIS***
  2   -153.6308356295  -0.011701304686 0.02693837  0.00145954  0.0348665 0.0000
  3   -153.6500893904  -0.019253760924 0.01472468  0.00063884  0.0387919 0.0000
  4   -153.6534346136  -0.003345223195 0.00407373  0.00016892  0.0089002 0.0000
  5   -153.6536217675  -0.000187153968 0.00135156  0.00005825  0.0039635 0.0000
                      *** Initiating the SOSCF procedure ***
                           *** Shutting down DIIS ***
                      *** Re-Reading the Fockian *** 
                      *** Removing any level shift *** 
ITER      Energy       Delta-E        Grad      Rot      Max-DP    RMS-DP
  6   -153.65364644  -0.0000246692  0.000081  0.000081  0.000893  0.000026
               *** Restarting incremental Fock matrix formation ***
  7   -153.65363031   0.0000161276  0.000051  0.000063  0.000099  0.000004
  8   -153.65363027   0.0000000380  0.000091  0.000049  0.000068  0.000003
  9   -153.65363034  -0.0000000729  0.000006  0.000013  0.000018  0.000001
 10   -153.65363034   0.0000000005  0.000008  0.000009  0.000011  0.000000
                  ***Gradient check signals convergence***
              ***Rediagonalizing the Fockian in SOSCF/NRSCF***

               *****************************************************
               *                     SUCCESS                       *
               *           SCF CONVERGED AFTER  11 CYCLES          *
               *****************************************************

Old exchange energy                            =     -4.999130448 Eh
New exchange energy                            =     -4.999126556 Eh
Exchange energy change after final integration =      0.000003892 Eh
Total energy after final integration           =   -153.653626454 Eh
Final COS-X integration done in                =     0.249 sec

----------------
TOTAL SCF ENERGY
----------------

Total Energy       :         -153.65362645 Eh           -4181.12774 eV

Components:
Nuclear Repulsion  :           74.50492944 Eh            2027.38220 eV
Electronic Energy  :         -228.15855590 Eh           -6208.50994 eV
One Electron Energy:         -355.74093273 Eh           -9680.20291 eV
Two Electron Energy:          127.58237683 Eh            3471.69297 eV
Max COSX asymmetry :            0.00000164 Eh               0.00004 eV

Virial components:
Potential Energy   :         -306.68662392 Eh           -8345.36731 eV
Kinetic Energy     :          153.03299746 Eh            4164.23957 eV
Virial Ratio       :            2.00405552


DFT components:
N(Alpha)           :       12.000002797898 electrons
N(Beta)            :       12.000002797898 electrons
N(Total)           :       24.000005595796 electrons
E(X)               :      -14.969500128405 Eh       
E(C)               :       -0.789000934486 Eh       
E(XC)              :      -15.758501062891 Eh       
DFET-embed. en.    :        0.000000000000 Eh       

---------------
SCF CONVERGENCE
---------------

  Last Energy change         ...   -2.1222e-09  Tolerance :   1.0000e-08
  Last MAX-Density change    ...    9.9920e-16  Tolerance :   1.0000e-07
  Last RMS-Density change    ...    2.0787e-17  Tolerance :   5.0000e-09
  Last Orbital Gradient      ...    6.5987e-07  Tolerance :   1.0000e-05
  Last Orbital Rotation      ...    1.3833e-06  Tolerance :   1.0000e-05

             **** THE GBW FILE WAS UPDATED (ox_gs_A_orca0002.gbw) ****
             **** DENSITY ox_gs_A_orca0002.scfp WAS UPDATED ****
             **** ENERGY FILE WAS UPDATED (ox_gs_A_orca0002.en.tmp) ****
             **** THE GBW FILE WAS UPDATED (ox_gs_A_orca0002.gbw) ****
             **** DENSITY ox_gs_A_orca0002.scfp WAS UPDATED ****
----------------
ORBITAL ENERGIES
----------------

  NO   OCC          E(Eh)            E(eV) 
   0   2.0000     -19.216846      -522.9170 
   1   2.0000     -10.281782      -279.7815 
   2   2.0000     -10.263540      -279.2851 
   3   2.0000      -1.077026       -29.3074 
   4   2.0000      -0.706323       -19.2200 
   5   2.0000      -0.661599       -18.0030 
   6   2.0000      -0.536087       -14.5877 
   7   2.0000      -0.489038       -13.3074 
   8   2.0000      -0.427363       -11.6291 
   9   2.0000      -0.390756       -10.6330 
  10   2.0000      -0.326763        -8.8917 
  11   2.0000      -0.285526        -7.7696 
  12   0.0000       0.063615         1.7311 
  13   0.0000       0.066458         1.8084 
  14   0.0000       0.077014         2.0957 
  15   0.0000       0.103214         2.8086 
  16   0.0000       0.108463         2.9514 
  17   0.0000       0.154418         4.2019 
  18   0.0000       0.189389         5.1535 
  19   0.0000       0.205190         5.5835 
  20   0.0000       0.267289         7.2733 
  21   0.0000       0.272286         7.4093 
  22   0.0000       0.293830         7.9955 
  23   0.0000       0.314750         8.5648 
  24   0.0000       0.393562        10.7094 
  25   0.0000       0.396255        10.7826 
  26   0.0000       0.409372        11.1396 
  27   0.0000       0.440614        11.9897 
  28   0.0000       0.453058        12.3283 
  29   0.0000       0.475929        12.9507 
  30   0.0000       0.516567        14.0565 
  31   0.0000       0.521910        14.2019 
  32   0.0000       0.558674        15.2023 
  33   0.0000       0.692713        18.8497 
  34   0.0000       0.712606        19.3910 
  35   0.0000       0.730343        19.8736 
  36   0.0000       0.828035        22.5320 
  37   0.0000       0.837178        22.7808 
  38   0.0000       0.890361        24.2279 
  39   0.0000       0.925715        25.1900 
  40   0.0000       1.008985        27.4559 
  41   0.0000       1.024148        27.8685 
  42   0.0000       1.042147        28.3583 
  43   0.0000       1.079392        29.3718 
  44   0.0000       1.160545        31.5800 
  45   0.0000       1.345859        36.6227 
  46   0.0000       1.460704        39.7478 
  47   0.0000       1.475840        40.1596 
  48   0.0000       1.502375        40.8817 
  49   0.0000       1.534444        41.7543 
  50   0.0000       1.614220        43.9252 
  51   0.0000       1.644643        44.7530 
  52   0.0000       1.676967        45.6326 
  53   0.0000       1.712102        46.5887 
  54   0.0000       1.791913        48.7604 
  55   0.0000       1.824662        49.6516 
  56   0.0000       1.839754        50.0622 
  57   0.0000       1.879989        51.1571 
  58   0.0000       1.907703        51.9112 
  59   0.0000       1.968776        53.5731 
  60   0.0000       2.154903        58.6379 
  61   0.0000       2.186583        59.4999 
  62   0.0000       2.216661        60.3184 
  63   0.0000       2.228449        60.6392 
  64   0.0000       2.263813        61.6015 
  65   0.0000       2.441160        66.4273 
  66   0.0000       2.477250        67.4094 
  67   0.0000       2.492505        67.8245 
  68   0.0000       2.574349        70.0516 
  69   0.0000       2.605680        70.9041 
  70   0.0000       2.650400        72.1210 
  71   0.0000       2.657309        72.3090 
  72   0.0000       2.703747        73.5727 
  73   0.0000       2.745965        74.7215 
  74   0.0000       2.755434        74.9792 
  75   0.0000       2.786107        75.8138 
  76   0.0000       2.895952        78.8029 
  77   0.0000       2.958245        80.4979 
  78   0.0000       2.999234        81.6133 
  79   0.0000       3.006971        81.8239 
  80   0.0000       3.031727        82.4975 
  81   0.0000       3.145348        85.5893 
  82   0.0000       3.169082        86.2351 
  83   0.0000       3.236860        88.0794 
  84   0.0000       3.286265        89.4238 
  85   0.0000       3.339780        90.8800 
  86   0.0000       3.363414        91.5231 
  87   0.0000       3.407389        92.7198 
  88   0.0000       3.583649        97.5160 
  89   0.0000       3.597654        97.8971 
  90   0.0000       3.629995        98.7772 
  91   0.0000       3.692135       100.4681 
  92   0.0000       3.856457       104.9395 
  93   0.0000       3.957058       107.6770 
  94   0.0000       4.023541       109.4861 
  95   0.0000       4.192752       114.0906 
  96   0.0000       4.254303       115.7655 
  97   0.0000       4.342661       118.1698 
  98   0.0000       4.428691       120.5108 
  99   0.0000       4.623663       125.8163 
 100   0.0000       4.766555       129.7046 
 101   0.0000       4.816634       131.0673 
 102   0.0000       5.288321       143.9025 
 103   0.0000       5.436283       147.9288 
 104   0.0000       5.649230       153.7234 
 105   0.0000       5.718883       155.6187 
 106   0.0000       5.744624       156.3192 
 107   0.0000       5.835065       158.7802 
 108   0.0000       5.994461       163.1176 
 109   0.0000       6.593418       179.4160 
 110   0.0000       6.639184       180.6614 
 111   0.0000       6.784510       184.6159 
 112   0.0000       6.965259       189.5343 
 113   0.0000       7.197156       195.8446 
 114   0.0000      22.278314       606.2237 
 115   0.0000      22.487538       611.9170 
 116   0.0000      43.837281      1192.8731 

                    ********************************
                    * MULLIKEN POPULATION ANALYSIS *
                    ********************************

-----------------------
MULLIKEN ATOMIC CHARGES
-----------------------
   0 O :   -0.326149
   1 C :   -0.060430
   2 C :   -0.103436
   3 H :    0.125271
   4 H :    0.111926
   5 H :    0.128591
   6 H :    0.124229
Sum of atomic charges:    0.0000000

--------------------------------
MULLIKEN REDUCED ORBITAL CHARGES
--------------------------------
  0 O s       :     3.863730  s :     3.863730
      pz      :     1.858223  p :     4.421503
      px      :     1.316714
      py      :     1.246566
      dz2     :     0.005323  d :     0.038975
      dxz     :     0.002574
      dyz     :     0.005999
      dx2y2   :     0.011015
      dxy     :     0.014064
      f0      :     0.000226  f :     0.001942
      f+1     :     0.000175
      f-1     :     0.000419
      f+2     :     0.000082
      f-2     :     0.000202
      f+3     :     0.000338
      f-3     :     0.000499
  1 C s       :     3.233552  s :     3.233552
      pz      :     1.028494  p :     2.706140
      px      :     0.894568
      py      :     0.783078
      dz2     :     0.008014  d :     0.109523
      dxz     :     0.024541
      dyz     :     0.029257
      dx2y2   :     0.027592
      dxy     :     0.020118
      f0      :     0.001651  f :     0.011216
      f+1     :     0.001414
      f-1     :     0.000598
      f+2     :     0.001161
      f-2     :     0.001612
      f+3     :     0.002004
      f-3     :     0.002776
  2 C s       :     3.229647  s :     3.229647
      pz      :     1.067139  p :     2.764285
      px      :     0.906605
      py      :     0.790541
      dz2     :     0.007192  d :     0.099101
      dxz     :     0.022583
      dyz     :     0.025505
      dx2y2   :     0.026181
      dxy     :     0.017640
      f0      :     0.001402  f :     0.010403
      f+1     :     0.001451
      f-1     :     0.000475
      f+2     :     0.001229
      f-2     :     0.001312
      f+3     :     0.002036
      f-3     :     0.002499
  3 H s       :     0.852555  s :     0.852555
      pz      :     0.011204  p :     0.022175
      px      :     0.006740
      py      :     0.004230
  4 H s       :     0.867228  s :     0.867228
      pz      :     0.011918  p :     0.020846
      px      :     0.004988
      py      :     0.003941
  5 H s       :     0.848155  s :     0.848155
      pz      :     0.011542  p :     0.023254
      px      :     0.006760
      py      :     0.004952
  6 H s       :     0.851859  s :     0.851859
      pz      :     0.011287  p :     0.023912
      px      :     0.007464
      py      :     0.005161


                     *******************************
                     * LOEWDIN POPULATION ANALYSIS *
                     *******************************

----------------------
LOEWDIN ATOMIC CHARGES
----------------------
   0 O :    0.068482
   1 C :   -0.279514
   2 C :   -0.223041
   3 H :    0.109851
   4 H :    0.129270
   5 H :    0.104480
   6 H :    0.090472

-------------------------------
LOEWDIN REDUCED ORBITAL CHARGES
-------------------------------
  0 O s       :     3.424281  s :     3.424281
      pz      :     1.754548  p :     4.417961
      px      :     1.310181
      py      :     1.353232
      dz2     :     0.011077  d :     0.083647
      dxz     :     0.007167
      dyz     :     0.013070
      dx2y2   :     0.028309
      dxy     :     0.024023
      f0      :     0.000528  f :     0.005629
      f+1     :     0.000237
      f-1     :     0.000798
      f+2     :     0.000173
      f-2     :     0.000830
      f+3     :     0.001055
      f-3     :     0.002007
  1 C s       :     2.843769  s :     2.843769
      pz      :     1.054976  p :     2.912051
      px      :     1.015857
      py      :     0.841218
      dz2     :     0.058604  d :     0.455296
      dxz     :     0.115679
      dyz     :     0.081845
      dx2y2   :     0.102532
      dxy     :     0.096636
      f0      :     0.010334  f :     0.068398
      f+1     :     0.005425
      f-1     :     0.005455
      f+2     :     0.006967
      f-2     :     0.007236
      f+3     :     0.014689
      f-3     :     0.018292
  2 C s       :     2.819923  s :     2.819923
      pz      :     1.079999  p :     2.925732
      px      :     1.019516
      py      :     0.826217
      dz2     :     0.054116  d :     0.416413
      dxz     :     0.117003
      dyz     :     0.066168
      dx2y2   :     0.095201
      dxy     :     0.083924
      f0      :     0.008023  f :     0.060973
      f+1     :     0.005903
      f-1     :     0.005167
      f+2     :     0.007543
      f-2     :     0.005201
      f+3     :     0.013000
      f-3     :     0.016135
  3 H s       :     0.823450  s :     0.823450
      pz      :     0.034551  p :     0.066699
      px      :     0.019135
      py      :     0.013012
  4 H s       :     0.813288  s :     0.813288
      pz      :     0.033326  p :     0.057442
      px      :     0.013163
      py      :     0.010953
  5 H s       :     0.822892  s :     0.822892
      pz      :     0.036661  p :     0.072628
      px      :     0.020330
      py      :     0.015637
  6 H s       :     0.830690  s :     0.830690
      pz      :     0.038266  p :     0.078839
      px      :     0.023475
      py      :     0.017098


                      *****************************
                      * MAYER POPULATION ANALYSIS *
                      *****************************

  NA   - Mulliken gross atomic population
  ZA   - Total nuclear charge
  QA   - Mulliken gross atomic charge
  VA   - Mayer's total valence
  BVA  - Mayer's bonded valence
  FA   - Mayer's free valence

  ATOM       NA         ZA         QA         VA         BVA        FA
  0 O      8.3261     8.0000    -0.3261     1.9643     1.9643    -0.0000
  1 C      6.0604     6.0000    -0.0604     3.9786     3.9786     0.0000
  2 C      6.1034     6.0000    -0.1034     3.9708     3.9708    -0.0000
  3 H      0.8747     1.0000     0.1253     0.9529     0.9529    -0.0000
  4 H      0.8881     1.0000     0.1119     0.9646     0.9646     0.0000
  5 H      0.8714     1.0000     0.1286     0.9672     0.9672    -0.0000
  6 H      0.8758     1.0000     0.1242     0.9634     0.9634     0.0000

  Mayer bond orders larger than 0.100000
B(  0-O ,  1-C ) :   1.0057 B(  0-O ,  2-C ) :   0.9579 B(  1-C ,  2-C ) :   1.0625 
B(  1-C ,  3-H ) :   0.9418 B(  1-C ,  4-H ) :   0.9603 B(  2-C ,  5-H ) :   0.9675 
B(  2-C ,  6-H ) :   0.9648 

-------
TIMINGS
-------

Total SCF time: 0 days 0 hours 0 min 2 sec 

Total time                  ....       2.710 sec
Sum of individual times     ....       2.466 sec  ( 91.0%)

Fock matrix formation       ....       2.154 sec  ( 79.5%)
  Split-RI-J                ....       0.288 sec  ( 13.4% of F)
  Chain of spheres X        ....       1.402 sec  ( 65.1% of F)
  XC integration            ....       0.384 sec  ( 17.8% of F)
    Basis function eval.    ....       0.102 sec  ( 26.5% of XC)
    Density eval.           ....       0.077 sec  ( 20.0% of XC)
    XC-Functional eval.     ....       0.022 sec  (  5.7% of XC)
    XC-Potential eval.      ....       0.136 sec  ( 35.3% of XC)
Diagonalization             ....       0.015 sec  (  0.6%)
Density matrix formation    ....       0.001 sec  (  0.0%)
Population analysis         ....       0.003 sec  (  0.1%)
Initial guess               ....       0.046 sec  (  1.7%)
Orbital Transformation      ....       0.000 sec  (  0.0%)
Orbital Orthonormalization  ....       0.000 sec  (  0.0%)
DIIS solution               ....       0.013 sec  (  0.5%)
SOSCF solution              ....       0.010 sec  (  0.4%)
Grid generation             ....       0.223 sec  (  8.2%)

Maximum memory used throughout the entire SCF-calculation: 61.0 MB


-------------------------------------------------------------------------------
                          DFT DISPERSION CORRECTION                            
                                                                               
                              DFTD3 V3.1  Rev 1                                
                          USING Becke-Johnson damping                          
-------------------------------------------------------------------------------
The PBE0 functional is recognized
Active option DFTDOPT                   ...         4   

molecular C6(AA) [au] = 350.852584 


            DFT-D V3
 parameters
 s6 scaling factor         :     1.0000 
 a1 scaling factor         :     0.4145 
 s8 scaling factor         :     1.2177 
 a2 scaling factor         :     4.8593 
 ad hoc parameters k1-k3   :    16.0000     1.3333    -4.0000 

 Edisp/kcal,au: -1.513636115573  -0.002412132433 
 E6   /kcal   :  -0.992731213 
 E8   /kcal   :  -0.520904902 
 % E8         :  34.414143332 

-------------------------   ----------------
Dispersion correction           -0.002412132
-------------------------   ----------------


-------------------------   --------------------
FINAL SINGLE POINT ENERGY      -153.656038586464
-------------------------   --------------------



           ************************************************************
           *        Program running with 8 parallel MPI-processes     *
           *              working on a common directory               *
           ************************************************************
------------------------------------------------------------------------------
                         ORCA SCF GRADIENT CALCULATION
------------------------------------------------------------------------------

 ... reading COSX grid (gridx3)
Gradient of the Kohn-Sham DFT energy:
Kohn-Sham wavefunction type      ... RKS
Hartree-Fock exchange scaling    ...    0.250
Number of operators              ...    1
Number of atoms                  ...    7
Basis set dimensions             ...  117
Integral neglect threshold       ... 2.5e-11
Integral primitive cutoff        ... 2.5e-12
SHARK Integral package           ... ON

Nuc. rep. gradient       (SHARK) ... done (  0.0 sec)
HCore & Overlap gradient (SHARK) ... done (  0.0 sec)
RI-J gradient            (SHARK) ... done (  0.2 sec)
COSX-gradient                    ... done (  0.3 sec)
Exchange-correlation gradient    ... done
Dispersion correction            ... done

------------------
CARTESIAN GRADIENT
------------------

   1   O   :   -0.005544034    0.031424804   -0.029118492
   2   C   :   -0.048128130   -0.014731846    0.064028406
   3   C   :    0.099610263   -0.052092557    0.036580391
   4   H   :    0.009807948   -0.001839532   -0.013158211
   5   H   :    0.004781901    0.010277733   -0.026198561
   6   H   :   -0.020459019    0.017702626    0.038805266
   7   H   :   -0.040098954    0.009369555   -0.071160073

Difference to translation invariance:
           :   -0.0000300249    0.0001107840   -0.0002212733

Difference to rotation invariance:
           :   -0.0004030009    0.0000234590    0.0000942799

Norm of the cartesian gradient     ...    0.1804381920
RMS gradient                       ...    0.0393748416
MAX gradient                       ...    0.0996102633

-------
TIMINGS
-------

Total SCF gradient time            ...        0.844 sec

One electron gradient       ....       0.013 sec  (  1.5%)
RI-J Coulomb gradient       ....       0.155 sec  ( 18.4%)
COSX gradient               ....       0.325 sec  ( 38.5%)
XC gradient                 ....       0.156 sec  ( 18.5%)

Maximum memory used throughout the entire SCFGRAD-calculation: 35.9 MB

                            ***************************************
                            *     ORCA property calculations      *
                            ***************************************

                                    ---------------------
                                    Active property flags
                                    ---------------------
   (+) Dipole Moment


------------------------------------------------------------------------------
                       ORCA ELECTRIC PROPERTIES CALCULATION
------------------------------------------------------------------------------

Dipole Moment Calculation                       ... on
Quadrupole Moment Calculation                   ... off
Polarizability Calculation                      ... off
GBWName                                         ... ox_gs_A_orca0002.gbw
Electron density                                ... ox_gs_A_orca0002.scfp
The origin for moment calculation is the CENTER OF MASS  = (-0.013969, -0.116632 -0.015928)

-------------
DIPOLE MOMENT
-------------
                                X             Y             Z
Electronic contribution:      0.00900       1.47378       0.07164
Nuclear contribution   :      0.02108      -2.24542       0.01385
                        -----------------------------------------
Total Dipole Moment    :      0.03008      -0.77164       0.08549
                        -----------------------------------------
Magnitude (a.u.)       :      0.77694
Magnitude (Debye)      :      1.97483



--------------------
Rotational spectrum 
--------------------
 
Rotational constants in cm-1:     0.837321     0.720606     0.457102 
Rotational constants in MHz : 25102.243505 21603.220518 13703.582625 

 Dipole components along the rotational axes: 
x,y,z [a.u.] :     0.155140    -0.761279     0.004754 
x,y,z [Debye]:     0.394335    -1.935019     0.012085 

 

Timings for individual modules:

Sum of individual times         ...        4.981 sec (=   0.083 min)
GTO integral calculation        ...        0.870 sec (=   0.015 min)  17.5 %
SCF iterations                  ...        2.957 sec (=   0.049 min)  59.4 %
SCF Gradient evaluation         ...        1.154 sec (=   0.019 min)  23.2 %
                             ****ORCA TERMINATED NORMALLY****
TOTAL RUN TIME: 0 days 0 hours 0 minutes 5 seconds 480 msec
