
                                 *****************
                                 * O   R   C   A *
                                 *****************

                                            #,                                       
                                            ###                                      
                                            ####                                     
                                            #####                                    
                                            ######                                   
                                           ########,                                 
                                     ,,################,,,,,                         
                               ,,#################################,,                 
                          ,,##########################################,,             
                       ,#########################################, ''#####,          
                    ,#############################################,,   '####,        
                  ,##################################################,,,,####,       
                ,###########''''           ''''###############################       
              ,#####''   ,,,,##########,,,,          '''####'''          '####       
            ,##' ,,,,###########################,,,                        '##       
           ' ,,###''''                  '''############,,,                           
         ,,##''                                '''############,,,,        ,,,,,,###''
      ,#''                                            '''#######################'''  
     '                                                          ''''####''''         
             ,#######,   #######,   ,#######,      ##                                
            ,#'     '#,  ##    ##  ,#'     '#,    #''#        ######   ,####,        
            ##       ##  ##   ,#'  ##            #'  '#       #        #'  '#        
            ##       ##  #######   ##           ,######,      #####,   #    #        
            '#,     ,#'  ##    ##  '#,     ,#' ,#      #,         ##   #,  ,#        
             '#######'   ##     ##  '#######'  #'      '#     #####' # '####'        



                  #######################################################
                  #                        -***-                        #
                  #          Department of theory and spectroscopy      #
                  #    Directorship and core code : Frank Neese         #
                  #        Max Planck Institute fuer Kohlenforschung    #
                  #                Kaiser Wilhelm Platz 1               #
                  #                 D-45470 Muelheim/Ruhr               #
                  #                      Germany                        #
                  #                                                     #
                  #                  All rights reserved                #
                  #                        -***-                        #
                  #######################################################


                         Program Version 5.0.2 -  RELEASE  -


 With contributions from (in alphabetic order):
   Daniel Aravena         : Magnetic Suceptibility
   Michael Atanasov       : Ab Initio Ligand Field Theory (pilot matlab implementation)
   Alexander A. Auer      : GIAO ZORA, VPT2 properties, NMR spectrum
   Ute Becker             : Parallelization
   Giovanni Bistoni       : ED, misc. LED, open-shell LED, HFLD
   Martin Brehm           : Molecular dynamics
   Dmytro Bykov           : SCF Hessian
   Vijay G. Chilkuri      : MRCI spin determinant printing, contributions to CSF-ICE
   Dipayan Datta          : RHF DLPNO-CCSD density
   Achintya Kumar Dutta   : EOM-CC, STEOM-CC
   Dmitry Ganyushin       : Spin-Orbit,Spin-Spin,Magnetic field MRCI
   Miquel Garcia          : C-PCM and meta-GGA Hessian, CC/C-PCM, Gaussian charge scheme
   Yang Guo               : DLPNO-NEVPT2, F12-NEVPT2, CIM, IAO-localization
   Andreas Hansen         : Spin unrestricted coupled pair/coupled cluster methods
   Benjamin Helmich-Paris : MC-RPA, TRAH-SCF, COSX integrals
   Lee Huntington         : MR-EOM, pCC
   Robert Izsak           : Overlap fitted RIJCOSX, COSX-SCS-MP3, EOM
   Marcus Kettner         : VPT2
   Christian Kollmar      : KDIIS, OOCD, Brueckner-CCSD(T), CCSD density, CASPT2, CASPT2-K
   Simone Kossmann        : Meta GGA functionals, TD-DFT gradient, OOMP2, MP2 Hessian
   Martin Krupicka        : Initial AUTO-CI
   Lucas Lang             : DCDCAS
   Marvin Lechner         : AUTO-CI (C++ implementation), FIC-MRCC
   Dagmar Lenk            : GEPOL surface, SMD
   Dimitrios Liakos       : Extrapolation schemes; Compound Job, initial MDCI parallelization
   Dimitrios Manganas     : Further ROCIS development; embedding schemes
   Dimitrios Pantazis     : SARC Basis sets
   Anastasios Papadopoulos: AUTO-CI, single reference methods and gradients
   Taras Petrenko         : DFT Hessian,TD-DFT gradient, ASA, ECA, R-Raman, ABS, FL, XAS/XES, NRVS
   Peter Pinski           : DLPNO-MP2, DLPNO-MP2 Gradient
   Christoph Reimann      : Effective Core Potentials
   Marius Retegan         : Local ZFS, SOC
   Christoph Riplinger    : Optimizer, TS searches, QM/MM, DLPNO-CCSD(T), (RO)-DLPNO pert. Triples
   Tobias Risthaus        : Range-separated hybrids, TD-DFT gradient, RPA, STAB
   Michael Roemelt        : Original ROCIS implementation
   Masaaki Saitow         : Open-shell DLPNO-CCSD energy and density
   Barbara Sandhoefer     : DKH picture change effects
   Avijit Sen             : IP-ROCIS
   Kantharuban Sivalingam : CASSCF convergence, NEVPT2, FIC-MRCI
   Bernardo de Souza      : ESD, SOC TD-DFT
   Georgi Stoychev        : AutoAux, RI-MP2 NMR, DLPNO-MP2 response
   Willem Van den Heuvel  : Paramagnetic NMR
   Boris Wezisla          : Elementary symmetry handling
   Frank Wennmohs         : Technical directorship


 We gratefully acknowledge several colleagues who have allowed us to
 interface, adapt or use parts of their codes:
   Stefan Grimme, W. Hujo, H. Kruse, P. Pracht,  : VdW corrections, initial TS optimization,
                  C. Bannwarth, S. Ehlert          DFT functionals, gCP, sTDA/sTD-DF
   Ed Valeev, F. Pavosevic, A. Kumar             : LibInt (2-el integral package), F12 methods
   Garnet Chan, S. Sharma, J. Yang, R. Olivares  : DMRG
   Ulf Ekstrom                                   : XCFun DFT Library
   Mihaly Kallay                                 : mrcc  (arbitrary order and MRCC methods)
   Jiri Pittner, Ondrej Demel                    : Mk-CCSD
   Frank Weinhold                                : gennbo (NPA and NBO analysis)
   Christopher J. Cramer and Donald G. Truhlar   : smd solvation model
   Lars Goerigk                                  : TD-DFT with DH, B97 family of functionals
   V. Asgeirsson, H. Jonsson                     : NEB implementation
   FAccTs GmbH                                   : IRC, NEB, NEB-TS, DLPNO-Multilevel, CI-OPT
                                                   MM, QMMM, 2- and 3-layer-ONIOM, Crystal-QMMM,
                                                   LR-CPCM, SF, NACMEs, symmetry and pop. for TD-DFT,
                                                   nearIR, NL-DFT gradient (VV10), updates on ESD,
                                                   ML-optimized integration grids
   S Lehtola, MJT Oliveira, MAL Marques          : LibXC Library
   Liviu Ungur et al                             : ANISO software


 Your calculation uses the libint2 library for the computation of 2-el integrals
 For citations please refer to: http://libint.valeyev.net

 Your ORCA version has been built with support for libXC version: 5.1.0
 For citations please refer to: https://tddft.org/programs/libxc/

 This ORCA versions uses:
   CBLAS   interface :  Fast vector & matrix operations
   LAPACKE interface :  Fast linear algebra routines
   SCALAPACK package :  Parallel linear algebra routines
   Shared memory     :  Shared parallel matrices
   BLAS/LAPACK       :  OpenBLAS 0.3.15  USE64BITINT DYNAMIC_ARCH NO_AFFINITY SkylakeX SINGLE_THREADED
        Core in use  :  SkylakeX
   Copyright (c) 2011-2014, The OpenBLAS Project


Your calculation utilizes the atom-pairwise dispersion correction
with the Becke-Johnson damping scheme (D3BJ)
Cite in your paper:
S.Grimme, S.Ehrlich, L.Goerigk, J Comput Chem, (2011), 32, 1456–1465 
S.Grimme, J.Antony, S.Ehrlich and H.Krieg, J.Chem.Phys., 132, (2010), 154104 
   

================================================================================

----- Orbital basis set information -----
Your calculation utilizes the basis: def2-TZVP
   F. Weigend and R. Ahlrichs, Phys. Chem. Chem. Phys. 7, 3297 (2005).

----- AuxJ basis set information -----
Your calculation utilizes the auxiliary basis: def2/J
   F. Weigend, Phys. Chem. Chem. Phys. 8, 1057 (2006).

================================================================================
                                        WARNINGS
                       Please study these warnings very carefully!
================================================================================


INFO   : the flag for use of the SHARK integral package has been found!

================================================================================
                                       INPUT FILE
================================================================================
NAME = ox_gs_E_orca0003.inp
|  1> ! engrad PBE0 D3BJ def2-TZVP  
|  2> %pal nprocs 8 end
|  3> %maxcore 3000
|  4>  
|  5> *xyz 0 1 
|  6> O   -1.0182066345004768 0.8403806899265791 -0.027541434959938882
|  7> C   -0.7671871913718599 -0.48613195841435985 0.03193115419377136
|  8> C   0.7289556586998173 -0.45643023034712754 -0.08107096240241717
|  9> H   -1.2795140396381193 -0.7262516636011933 0.8862397439605046
| 10> H   -1.2703061108882598 -0.6453402973901959 -0.9191753867428004
| 11> H   1.24248282557466 -0.6662098400640798 -0.9072954973918351
| 12> H   1.1794185775597539 -0.7061658024259015 0.9677070171292409
| 13> *
| 14> 
| 15>                          ****END OF INPUT****
================================================================================

                     *******************************
                     * Energy+Gradient Calculation *
                     *******************************

---------------------------------
CARTESIAN COORDINATES (ANGSTROEM)
---------------------------------
  O     -1.018207    0.840381   -0.027541
  C     -0.767187   -0.486132    0.031931
  C      0.728956   -0.456430   -0.081071
  H     -1.279514   -0.726252    0.886240
  H     -1.270306   -0.645340   -0.919175
  H      1.242483   -0.666210   -0.907295
  H      1.179419   -0.706166    0.967707

----------------------------
CARTESIAN COORDINATES (A.U.)
----------------------------
  NO LB      ZA    FRAG     MASS         X           Y           Z
   0 O     8.0000    0    15.999   -1.924132    1.588089   -0.052046
   1 C     6.0000    0    12.011   -1.449774   -0.918656    0.060341
   2 C     6.0000    0    12.011    1.377527   -0.862528   -0.153202
   3 H     1.0000    0     1.008   -2.417931   -1.372417    1.674750
   4 H     1.0000    0     1.008   -2.400531   -1.219516   -1.736990
   5 H     1.0000    0     1.008    2.347952   -1.258954   -1.714540
   6 H     1.0000    0     1.008    2.228778   -1.334460    1.828701

--------------------------------
INTERNAL COORDINATES (ANGSTROEM)
--------------------------------
 O      0   0   0     0.000000000000     0.00000000     0.00000000
 C      1   0   0     1.351363591302     0.00000000     0.00000000
 C      2   1   0     1.500698203779    99.34895702     0.00000000
 H      2   1   3     1.024685043720   100.01139928   127.69318134
 H      2   1   3     1.087694623774    91.10455036   245.99514880
 H      3   2   1     0.995170647673   124.94550794   257.63582997
 H      3   2   1     1.168426269638   108.21237905   106.75179816

---------------------------
INTERNAL COORDINATES (A.U.)
---------------------------
 O      0   0   0     0.000000000000     0.00000000     0.00000000
 C      1   0   0     2.553707094914     0.00000000     0.00000000
 C      2   1   0     2.835908614810    99.34895702     0.00000000
 H      2   1   3     1.936374106155   100.01139928   127.69318134
 H      2   1   3     2.055444956272    91.10455036   245.99514880
 H      3   2   1     1.880599980619   124.94550794   257.63582997
 H      3   2   1     2.208005657295   108.21237905   106.75179816

---------------------
BASIS SET INFORMATION
---------------------
There are 3 groups of distinct atoms

 Group   1 Type O   : 11s6p2d1f contracted to 5s3p2d1f pattern {62111/411/11/1}
 Group   2 Type C   : 11s6p2d1f contracted to 5s3p2d1f pattern {62111/411/11/1}
 Group   3 Type H   : 5s1p contracted to 3s1p pattern {311/1}

Atom   0O    basis set group =>   1
Atom   1C    basis set group =>   2
Atom   2C    basis set group =>   2
Atom   3H    basis set group =>   3
Atom   4H    basis set group =>   3
Atom   5H    basis set group =>   3
Atom   6H    basis set group =>   3
---------------------------------
AUXILIARY/J BASIS SET INFORMATION
---------------------------------
There are 3 groups of distinct atoms

 Group   1 Type O   : 12s5p4d2f1g contracted to 6s4p3d1f1g pattern {711111/2111/211/2/1}
 Group   2 Type C   : 12s5p4d2f1g contracted to 6s4p3d1f1g pattern {711111/2111/211/2/1}
 Group   3 Type H   : 5s2p1d contracted to 3s1p1d pattern {311/2/1}

Atom   0O    basis set group =>   1
Atom   1C    basis set group =>   2
Atom   2C    basis set group =>   2
Atom   3H    basis set group =>   3
Atom   4H    basis set group =>   3
Atom   5H    basis set group =>   3
Atom   6H    basis set group =>   3


           ************************************************************
           *        Program running with 8 parallel MPI-processes     *
           *              working on a common directory               *
           ************************************************************
------------------------------------------------------------------------------
                           ORCA GTO INTEGRAL CALCULATION
                           -- RI-GTO INTEGRALS CHOSEN --
------------------------------------------------------------------------------
------------------------------------------------------------------------------
                   ___                                                        
                  /   \      - P O W E R E D   B Y -                         
                 /     \                                                     
                 |  |  |   _    _      __       _____    __    __             
                 |  |  |  | |  | |    /  \     |  _  \  |  |  /  |          
                  \  \/   | |  | |   /    \    | | | |  |  | /  /          
                 / \  \   | |__| |  /  /\  \   | |_| |  |  |/  /          
                |  |  |   |  __  | /  /__\  \  |    /   |      \           
                |  |  |   | |  | | |   __   |  |    \   |  |\   \          
                \     /   | |  | | |  |  |  |  | |\  \  |  | \   \       
                 \___/    |_|  |_| |__|  |__|  |_| \__\ |__|  \__/        
                                                                              
                      - O R C A' S   B I G   F R I E N D -                    
                                      &                                       
                       - I N T E G R A L  F E E D E R -                       
                                                                              
 v1 FN, 2020, v2 2021                                                         
------------------------------------------------------------------------------


Reading SHARK input file ox_gs_E_orca0003.SHARKINP.tmp ... ok
----------------------
SHARK INTEGRAL PACKAGE
----------------------

Number of atoms                             ...      7
Number of basis functions                   ...    117
Number of shells                            ...     49
Maximum angular momentum                    ...      3
Integral batch strategy                     ... SHARK/LIBINT Hybrid
RI-J (if used) integral strategy            ... SPLIT-RIJ (Revised 2003 algorithm where possible)
Printlevel                                  ...      1
Contraction scheme used                     ... SEGMENTED contraction
Coulomb Range Separation                    ... NOT USED
Exchange Range Separation                   ... NOT USED
Finite Nucleus Model                        ... NOT USED
Auxiliary Coulomb fitting basis             ... AVAILABLE
   # of basis functions in Aux-J            ...    191
   # of shells in Aux-J                     ...     65
   Maximum angular momentum in Aux-J        ...      4
Auxiliary J/K fitting basis                 ... NOT available
Auxiliary Correlation fitting basis         ... NOT available
Auxiliary 'external' fitting basis          ... NOT available
Integral threshold                          ...     2.500000e-11
Primitive cut-off                           ...     2.500000e-12
Primitive pair pre-selection threshold      ...     2.500000e-12

Calculating pre-screening integrals         ... done (  0.0 sec) Dimension = 49
Organizing shell pair data                  ... done (  0.0 sec)
Shell pair information
Total number of shell pairs                 ...      1225
Shell pairs after pre-screening             ...      1214
Total number of primitive shell pairs       ...      3648
Primitive shell pairs kept                  ...      3096
          la=0 lb=0:    368 shell pairs
          la=1 lb=0:    351 shell pairs
          la=1 lb=1:     91 shell pairs
          la=2 lb=0:    161 shell pairs
          la=2 lb=1:     78 shell pairs
          la=2 lb=2:     21 shell pairs
          la=3 lb=0:     81 shell pairs
          la=3 lb=1:     39 shell pairs
          la=3 lb=2:     18 shell pairs
          la=3 lb=3:      6 shell pairs

Calculating one electron integrals          ... done (  0.0 sec)
Calculating RI/J V-Matrix + Cholesky decomp.... done (  0.0 sec)
Calculating Nuclear repulsion               ... done (  0.0 sec) ENN=     69.878922550200 Eh

SHARK setup successfully completed in   0.1 seconds

Maximum memory used throughout the entire GTOINT-calculation: 14.9 MB


           ************************************************************
           *        Program running with 8 parallel MPI-processes     *
           *              working on a common directory               *
           ************************************************************
-------------------------------------------------------------------------------
                                 ORCA SCF
-------------------------------------------------------------------------------

------------
SCF SETTINGS
------------
Hamiltonian:
 Density Functional     Method          .... DFT(GTOs)
 Exchange Functional    Exchange        .... PBE
   PBE kappa parameter   XKappa         ....  0.804000
   PBE mue parameter    XMuePBE         ....  0.219520
 Correlation Functional Correlation     .... PBE
   PBE beta parameter  CBetaPBE         ....  0.066725
 LDA part of GGA corr.  LDAOpt          .... PW91-LDA
 Gradients option       PostSCFGGA      .... off
 Hybrid DFT is turned on
   Fraction HF Exchange ScalHFX         ....  0.250000
   Scaling of DF-GGA-X  ScalDFX         ....  0.750000
   Scaling of DF-GGA-C  ScalDFC         ....  1.000000
   Scaling of DF-LDA-C  ScalLDAC        ....  1.000000
   Perturbative correction              ....  0.000000
   Density functional embedding theory  .... OFF
   NL short-range parameter             ....  6.900000
 RI-approximation to the Coulomb term is turned on
   Number of AuxJ basis functions       .... 191
   RIJ-COSX (HFX calculated with COS-X)).... on


General Settings:
 Integral files         IntName         .... ox_gs_E_orca0003
 Hartree-Fock type      HFTyp           .... RHF
 Total Charge           Charge          ....    0
 Multiplicity           Mult            ....    1
 Number of Electrons    NEL             ....   24
 Basis Dimension        Dim             ....  117
 Nuclear Repulsion      ENuc            ....     69.8789225502 Eh

Convergence Acceleration:
 DIIS                   CNVDIIS         .... on
   Start iteration      DIISMaxIt       ....    12
   Startup error        DIISStart       ....  0.200000
   # of expansion vecs  DIISMaxEq       ....     5
   Bias factor          DIISBfac        ....   1.050
   Max. coefficient     DIISMaxC        ....  10.000
 Trust-Rad. Augm. Hess. CNVTRAH         .... auto
   Auto Start mean grad. ratio tolernc. ....  1.125000
   Auto Start start iteration           ....    20
   Auto Start num. interpolation iter.  ....    10
   Max. Number of Micro iterations      ....    16
   Max. Number of Macro iterations      .... Maxiter - #DIIS iter
   Number of Davidson start vectors     ....     2
   Converg. threshold I  (grad. norm)   ....   1.000e-05
   Converg. threshold II (energy diff.) ....   1.000e-08
   Grad. Scal. Fac. for Micro threshold ....   0.100
   Minimum threshold for Micro iter.    ....   0.010
   NR start threshold (gradient norm)   ....   0.001
   Initial trust radius                 ....   0.400
   Minimum AH scaling param. (alpha)    ....   1.000
   Maximum AH scaling param. (alpha)    .... 1000.000
   Orbital update algorithm             .... Taylor
   White noise on init. David. guess    .... on
   Maximum white noise                  ....   0.010
   Quad. conv. algorithm                .... NR
 SOSCF                  CNVSOSCF        .... on
   Start iteration      SOSCFMaxIt      ....   150
   Startup grad/error   SOSCFStart      ....  0.003300
 Level Shifting         CNVShift        .... on
   Level shift para.    LevelShift      ....    0.2500
   Turn off err/grad.   ShiftErr        ....    0.0010
 Zerner damping         CNVZerner       .... off
 Static damping         CNVDamp         .... on
   Fraction old density DampFac         ....    0.7000
   Max. Damping (<1)    DampMax         ....    0.9800
   Min. Damping (>=0)   DampMin         ....    0.0000
   Turn off err/grad.   DampErr         ....    0.1000
 Fernandez-Rico         CNVRico         .... off

SCF Procedure:
 Maximum # iterations   MaxIter         ....   125
 SCF integral mode      SCFMode         .... Direct
   Integral package                     .... SHARK and LIBINT hybrid scheme
 Reset frequency        DirectResetFreq ....    20
 Integral Threshold     Thresh          ....  2.500e-11 Eh
 Primitive CutOff       TCut            ....  2.500e-12 Eh

Convergence Tolerance:
 Convergence Check Mode ConvCheckMode   .... Total+1el-Energy
 Convergence forced     ConvForced      .... 0
 Energy Change          TolE            ....  1.000e-08 Eh
 1-El. energy change                    ....  1.000e-05 Eh
 Orbital Gradient       TolG            ....  1.000e-05
 Orbital Rotation angle TolX            ....  1.000e-05
 DIIS Error             TolErr          ....  5.000e-07


Diagonalization of the overlap matrix:
Smallest eigenvalue                        ... 5.868e-04
Time for diagonalization                   ...    0.001 sec
Threshold for overlap eigenvalues          ... 1.000e-08
Number of eigenvalues below threshold      ... 0
Time for construction of square roots      ...    0.001 sec
Total time needed                          ...    0.003 sec

Time for model grid setup =    0.022 sec

------------------------------
INITIAL GUESS: MODEL POTENTIAL
------------------------------
Loading Hartree-Fock densities                     ... done
Calculating cut-offs                               ... done
Initializing the effective Hamiltonian             ... done
Setting up the integral package (SHARK)            ... done
Starting the Coulomb interaction                   ... done (   0.0 sec)
Reading the grid                                   ... done
Mapping shells                                     ... done
Starting the XC term evaluation                    ... done (   0.0 sec)
  promolecular density results
     # of electrons  =     23.998399056
     EX              =    -19.489301404
     EC              =     -0.770049949
     EX+EC           =    -20.259351353
Transforming the Hamiltonian                       ... done (   0.0 sec)
Diagonalizing the Hamiltonian                      ... done (   0.0 sec)
Back transforming the eigenvectors                 ... done (   0.0 sec)
Now organizing SCF variables                       ... done
                      ------------------
                      INITIAL GUESS DONE (   0.0 sec)
                      ------------------
-------------------
DFT GRID GENERATION
-------------------

General Integration Accuracy     IntAcc      ... 4.388
Radial Grid Type                 RadialGrid  ... OptM3 with GC (2021)
Angular Grid (max. ang.)         AngularGrid ... 4 (Lebedev-302)
Angular grid pruning method      GridPruning ... 4 (adaptive)
Weight generation scheme         WeightScheme... Becke
Basis function cutoff            BFCut       ... 1.0000e-11
Integration weight cutoff        WCut        ... 1.0000e-14
Angular grids for H and He will be reduced by one unit
Partially contracted basis set               ... off
Rotationally invariant grid construction     ... off

Total number of grid points                  ...    31311
Total number of batches                      ...      492
Average number of points per batch           ...       63
Average number of grid points per atom       ...     4473
Time for grid setup =    0.109 sec

--------------------
COSX GRID GENERATION
--------------------

GRIDX 1
-------
General Integration Accuracy     IntAcc      ... 3.816
Radial Grid Type                 RadialGrid  ... OptM3 with GC (2021)
Angular Grid (max. ang.)         AngularGrid ... 1 (Lebedev-50)
Angular grid pruning method      GridPruning ... 4 (adaptive)
Weight generation scheme         WeightScheme... Becke
Basis function cutoff            BFCut       ... 1.0000e-11
Integration weight cutoff        WCut        ... 1.0000e-14
Angular grids for H and He will be reduced by one unit
Partially contracted basis set               ... on
Rotationally invariant grid construction     ... off

Total number of grid points                  ...     4038
Total number of batches                      ...       67
Average number of points per batch           ...       60
Average number of grid points per atom       ...      577
UseSFitting                                  ... on

GRIDX 2
-------
General Integration Accuracy     IntAcc      ... 4.020
Radial Grid Type                 RadialGrid  ... OptM3 with GC (2021)
Angular Grid (max. ang.)         AngularGrid ... 2 (Lebedev-110)
Angular grid pruning method      GridPruning ... 4 (adaptive)
Weight generation scheme         WeightScheme... Becke
Basis function cutoff            BFCut       ... 1.0000e-11
Integration weight cutoff        WCut        ... 1.0000e-14
Angular grids for H and He will be reduced by one unit
Partially contracted basis set               ... on
Rotationally invariant grid construction     ... off

Total number of grid points                  ...     8729
Total number of batches                      ...      139
Average number of points per batch           ...       62
Average number of grid points per atom       ...     1247
UseSFitting                                  ... on

GRIDX 3
-------
General Integration Accuracy     IntAcc      ... 4.338
Radial Grid Type                 RadialGrid  ... OptM3 with GC (2021)
Angular Grid (max. ang.)         AngularGrid ... 3 (Lebedev-194)
Angular grid pruning method      GridPruning ... 4 (adaptive)
Weight generation scheme         WeightScheme... Becke
Basis function cutoff            BFCut       ... 1.0000e-11
Integration weight cutoff        WCut        ... 1.0000e-14
Angular grids for H and He will be reduced by one unit
Partially contracted basis set               ... on
Rotationally invariant grid construction     ... off

Total number of grid points                  ...    19268
Total number of batches                      ...      305
Average number of points per batch           ...       63
Average number of grid points per atom       ...     2753
UseSFitting                                  ... on

Time for X-Grid setup             =    0.073 sec

--------------
SCF ITERATIONS
--------------
ITER       Energy         Delta-E        Max-DP      RMS-DP      [F,P]     Damp
               ***  Starting incremental Fock matrix formation  ***
  0   -153.3042185245   0.000000000000 0.10447857  0.00291216  0.3593365 0.7000
  1   -153.4215650409  -0.117346516380 0.06212378  0.00153701  0.0916474 0.7000
                               ***Turning on DIIS***
  2   -153.4355984772  -0.014033436230 0.05601961  0.00209648  0.0745458 0.0000
  3   -153.5095341697  -0.073935692551 0.02573829  0.00116362  0.0369499 0.0000
  4   -153.5124644286  -0.002930258920 0.01085155  0.00036803  0.0524337 0.0000
  5   -153.5153001500  -0.002835721388 0.00463059  0.00014678  0.0162125 0.0000
  6   -153.5156109622  -0.000310812231 0.00169367  0.00005646  0.0051273 0.0000
                      *** Initiating the SOSCF procedure ***
                           *** Shutting down DIIS ***
                      *** Re-Reading the Fockian *** 
                      *** Removing any level shift *** 
ITER      Energy       Delta-E        Grad      Rot      Max-DP    RMS-DP
  7   -153.51564190  -0.0000309363  0.000763  0.000763  0.001971  0.000085
               *** Restarting incremental Fock matrix formation ***
  8   -153.51565161  -0.0000097156  0.000686  0.005322  0.002009  0.000075
  9   -153.51562844   0.0000231697  0.002396  0.004360  0.002193  0.000060
 10   -153.51566706  -0.0000386171  0.000279  0.004144  0.001207  0.000045
 11   -153.51567037  -0.0000033054  0.000158  0.004105  0.001271  0.000044
 12   -153.51567216  -0.0000017930  0.000146  0.000291  0.000131  0.000003
 13   -153.51567228  -0.0000001201  0.000011  0.000064  0.000024  0.000001
 14   -153.51567228  -0.0000000014  0.000010  0.000013  0.000011  0.000000
                  ***Gradient check signals convergence***
              ***Rediagonalizing the Fockian in SOSCF/NRSCF***

               *****************************************************
               *                     SUCCESS                       *
               *           SCF CONVERGED AFTER  15 CYCLES          *
               *****************************************************

Old exchange energy                            =     -4.970711017 Eh
New exchange energy                            =     -4.970715389 Eh
Exchange energy change after final integration =     -0.000004371 Eh
Total energy after final integration           =   -153.515676654 Eh
Final COS-X integration done in                =     0.307 sec

----------------
TOTAL SCF ENERGY
----------------

Total Energy       :         -153.51567665 Eh           -4177.37394 eV

Components:
Nuclear Repulsion  :           69.87892255 Eh            1901.50215 eV
Electronic Energy  :         -223.39459920 Eh           -6078.87609 eV
One Electron Energy:         -346.41738712 Eh           -9426.49634 eV
Two Electron Energy:          123.02278792 Eh            3347.62025 eV
Max COSX asymmetry :            0.00000157 Eh               0.00004 eV

Virial components:
Potential Energy   :         -306.53820868 Eh           -8341.32872 eV
Kinetic Energy     :          153.02253203 Eh            4163.95479 eV
Virial Ratio       :            2.00322269


DFT components:
N(Alpha)           :       12.000004615162 electrons
N(Beta)            :       12.000004615162 electrons
N(Total)           :       24.000009230325 electrons
E(X)               :      -14.921672114506 Eh       
E(C)               :       -0.775056777596 Eh       
E(XC)              :      -15.696728892102 Eh       
DFET-embed. en.    :        0.000000000000 Eh       

---------------
SCF CONVERGENCE
---------------

  Last Energy change         ...   -1.4930e-09  Tolerance :   1.0000e-08
  Last MAX-Density change    ...    6.1062e-16  Tolerance :   1.0000e-07
  Last RMS-Density change    ...    1.5956e-17  Tolerance :   5.0000e-09
  Last Orbital Gradient      ...    9.4087e-07  Tolerance :   1.0000e-05
  Last Orbital Rotation      ...    4.9635e-06  Tolerance :   1.0000e-05

             **** THE GBW FILE WAS UPDATED (ox_gs_E_orca0003.gbw) ****
             **** DENSITY ox_gs_E_orca0003.scfp WAS UPDATED ****
             **** ENERGY FILE WAS UPDATED (ox_gs_E_orca0003.en.tmp) ****
             **** THE GBW FILE WAS UPDATED (ox_gs_E_orca0003.gbw) ****
             **** DENSITY ox_gs_E_orca0003.scfp WAS UPDATED ****
----------------
ORBITAL ENERGIES
----------------

  NO   OCC          E(Eh)            E(eV) 
   0   2.0000     -19.196794      -522.3713 
   1   2.0000     -10.320973      -280.8480 
   2   2.0000     -10.260319      -279.1975 
   3   2.0000      -1.027232       -27.9524 
   4   2.0000      -0.767255       -20.8781 
   5   2.0000      -0.627994       -17.0886 
   6   2.0000      -0.529684       -14.4134 
   7   2.0000      -0.495351       -13.4792 
   8   2.0000      -0.431900       -11.7526 
   9   2.0000      -0.403102       -10.9690 
  10   2.0000      -0.273861        -7.4521 
  11   2.0000      -0.246704        -6.7132 
  12   0.0000      -0.144619        -3.9353 
  13   0.0000       0.049313         1.3419 
  14   0.0000       0.086718         2.3597 
  15   0.0000       0.090779         2.4702 
  16   0.0000       0.137296         3.7360 
  17   0.0000       0.149092         4.0570 
  18   0.0000       0.182637         4.9698 
  19   0.0000       0.196772         5.3544 
  20   0.0000       0.235246         6.4014 
  21   0.0000       0.245352         6.6764 
  22   0.0000       0.263810         7.1786 
  23   0.0000       0.339010         9.2249 
  24   0.0000       0.366690         9.9781 
  25   0.0000       0.378802        10.3077 
  26   0.0000       0.410431        11.1684 
  27   0.0000       0.418572        11.3899 
  28   0.0000       0.444326        12.0907 
  29   0.0000       0.479555        13.0493 
  30   0.0000       0.511068        13.9069 
  31   0.0000       0.568499        15.4696 
  32   0.0000       0.583372        15.8744 
  33   0.0000       0.604638        16.4530 
  34   0.0000       0.690534        18.7904 
  35   0.0000       0.734988        20.0000 
  36   0.0000       0.797630        21.7046 
  37   0.0000       0.853605        23.2278 
  38   0.0000       0.883249        24.0344 
  39   0.0000       0.910952        24.7883 
  40   0.0000       0.941415        25.6172 
  41   0.0000       1.025618        27.9085 
  42   0.0000       1.055847        28.7310 
  43   0.0000       1.084438        29.5090 
  44   0.0000       1.181184        32.1417 
  45   0.0000       1.317938        35.8629 
  46   0.0000       1.392663        37.8963 
  47   0.0000       1.431447        38.9516 
  48   0.0000       1.512916        41.1685 
  49   0.0000       1.530994        41.6605 
  50   0.0000       1.558908        42.4201 
  51   0.0000       1.597306        43.4649 
  52   0.0000       1.641916        44.6788 
  53   0.0000       1.683582        45.8126 
  54   0.0000       1.747482        47.5514 
  55   0.0000       1.769896        48.1613 
  56   0.0000       1.822292        49.5871 
  57   0.0000       1.867493        50.8171 
  58   0.0000       1.881250        51.1914 
  59   0.0000       1.897166        51.6245 
  60   0.0000       1.997572        54.3567 
  61   0.0000       2.084170        56.7132 
  62   0.0000       2.164071        58.8874 
  63   0.0000       2.255525        61.3759 
  64   0.0000       2.316601        63.0379 
  65   0.0000       2.386709        64.9457 
  66   0.0000       2.418718        65.8167 
  67   0.0000       2.429463        66.1090 
  68   0.0000       2.503701        68.1292 
  69   0.0000       2.527660        68.7811 
  70   0.0000       2.576266        70.1038 
  71   0.0000       2.645620        71.9910 
  72   0.0000       2.679219        72.9052 
  73   0.0000       2.698992        73.4433 
  74   0.0000       2.752813        74.9079 
  75   0.0000       2.810297        76.4721 
  76   0.0000       2.892022        78.6959 
  77   0.0000       2.995509        81.5119 
  78   0.0000       3.006323        81.8062 
  79   0.0000       3.042276        82.7845 
  80   0.0000       3.042664        82.7951 
  81   0.0000       3.116304        84.7989 
  82   0.0000       3.136563        85.3502 
  83   0.0000       3.187284        86.7304 
  84   0.0000       3.200761        87.0971 
  85   0.0000       3.213632        87.4474 
  86   0.0000       3.349648        91.1486 
  87   0.0000       3.379844        91.9702 
  88   0.0000       3.466185        94.3197 
  89   0.0000       3.538836        96.2966 
  90   0.0000       3.581984        97.4707 
  91   0.0000       3.634902        98.9107 
  92   0.0000       3.718986       101.1987 
  93   0.0000       3.826728       104.1306 
  94   0.0000       3.955873       107.6448 
  95   0.0000       4.067291       110.6766 
  96   0.0000       4.125584       112.2628 
  97   0.0000       4.327184       117.7487 
  98   0.0000       4.429715       120.5387 
  99   0.0000       4.473339       121.7257 
 100   0.0000       4.596806       125.0855 
 101   0.0000       4.758998       129.4989 
 102   0.0000       5.198478       141.4578 
 103   0.0000       5.250386       142.8703 
 104   0.0000       5.449884       148.2989 
 105   0.0000       5.472526       148.9150 
 106   0.0000       5.882594       160.0735 
 107   0.0000       5.923872       161.1967 
 108   0.0000       6.040412       164.3680 
 109   0.0000       6.396800       174.0658 
 110   0.0000       6.408721       174.3902 
 111   0.0000       6.850955       186.4240 
 112   0.0000       6.862485       186.7377 
 113   0.0000       6.955236       189.2616 
 114   0.0000      22.068508       600.5146 
 115   0.0000      22.672894       616.9608 
 116   0.0000      43.820451      1192.4151 

                    ********************************
                    * MULLIKEN POPULATION ANALYSIS *
                    ********************************

-----------------------
MULLIKEN ATOMIC CHARGES
-----------------------
   0 O :   -0.372086
   1 C :   -0.044015
   2 C :   -0.143616
   3 H :    0.116508
   4 H :    0.108239
   5 H :    0.171944
   6 H :    0.163026
Sum of atomic charges:   -0.0000000

--------------------------------
MULLIKEN REDUCED ORBITAL CHARGES
--------------------------------
  0 O s       :     3.894822  s :     3.894822
      pz      :     1.908449  p :     4.448118
      px      :     1.183271
      py      :     1.356398
      dz2     :     0.003341  d :     0.027675
      dxz     :     0.000264
      dyz     :     0.007064
      dx2y2   :     0.009721
      dxy     :     0.007286
      f0      :     0.000189  f :     0.001471
      f+1     :     0.000076
      f-1     :     0.000308
      f+2     :     0.000230
      f-2     :     0.000028
      f+3     :     0.000317
      f-3     :     0.000323
  1 C s       :     3.185427  s :     3.185427
      pz      :     1.070278  p :     2.678095
      px      :     0.876350
      py      :     0.731467
      dz2     :     0.012942  d :     0.169249
      dxz     :     0.017395
      dyz     :     0.054577
      dx2y2   :     0.023517
      dxy     :     0.060818
      f0      :     0.002239  f :     0.011244
      f+1     :     0.001258
      f-1     :     0.000774
      f+2     :     0.003231
      f-2     :     0.000416
      f+3     :     0.002837
      f-3     :     0.000489
  2 C s       :     3.295928  s :     3.295928
      pz      :     1.046603  p :     2.795323
      px      :     1.014057
      py      :     0.734663
      dz2     :     0.007096  d :     0.047713
      dxz     :     0.020718
      dyz     :     0.003535
      dx2y2   :     0.004745
      dxy     :     0.011619
      f0      :     0.000619  f :     0.004652
      f+1     :     0.001094
      f-1     :     0.000116
      f+2     :     0.000683
      f-2     :     0.000256
      f+3     :     0.000764
      f-3     :     0.001118
  3 H s       :     0.860028  s :     0.860028
      pz      :     0.010683  p :     0.023464
      px      :     0.006886
      py      :     0.005895
  4 H s       :     0.868722  s :     0.868722
      pz      :     0.010957  p :     0.023039
      px      :     0.005929
      py      :     0.006153
  5 H s       :     0.802358  s :     0.802358
      pz      :     0.011420  p :     0.025698
      px      :     0.008530
      py      :     0.005748
  6 H s       :     0.816759  s :     0.816759
      pz      :     0.011331  p :     0.020215
      px      :     0.005129
      py      :     0.003755


                     *******************************
                     * LOEWDIN POPULATION ANALYSIS *
                     *******************************

----------------------
LOEWDIN ATOMIC CHARGES
----------------------
   0 O :    0.001731
   1 C :   -0.494405
   2 C :    0.011759
   3 H :    0.101140
   4 H :    0.123135
   5 H :    0.096138
   6 H :    0.160502

-------------------------------
LOEWDIN REDUCED ORBITAL CHARGES
-------------------------------
  0 O s       :     3.513301  s :     3.513301
      pz      :     1.815074  p :     4.411888
      px      :     1.125172
      py      :     1.471643
      dz2     :     0.007051  d :     0.068156
      dxz     :     0.000314
      dyz     :     0.022181
      dx2y2   :     0.020342
      dxy     :     0.018267
      f0      :     0.000616  f :     0.004924
      f+1     :     0.000129
      f-1     :     0.000647
      f+2     :     0.001100
      f-2     :     0.000086
      f+3     :     0.001278
      f-3     :     0.001069
  1 C s       :     2.811475  s :     2.811475
      pz      :     1.057166  p :     2.954306
      px      :     1.011714
      py      :     0.885425
      dz2     :     0.077270  d :     0.645119
      dxz     :     0.091078
      dyz     :     0.150903
      dx2y2   :     0.133750
      dxy     :     0.192118
      f0      :     0.014020  f :     0.083504
      f+1     :     0.007276
      f-1     :     0.007985
      f+2     :     0.019265
      f-2     :     0.004099
      f+3     :     0.021672
      f-3     :     0.009187
  2 C s       :     2.914759  s :     2.914759
      pz      :     1.078155  p :     2.849581
      px      :     1.106642
      py      :     0.664784
      dz2     :     0.032026  d :     0.202029
      dxz     :     0.092189
      dyz     :     0.009840
      dx2y2   :     0.032583
      dxy     :     0.035390
      f0      :     0.003438  f :     0.021871
      f+1     :     0.003297
      f-1     :     0.001062
      f+2     :     0.003713
      f-2     :     0.001470
      f+3     :     0.003708
      f-3     :     0.005183
  3 H s       :     0.827033  s :     0.827033
      pz      :     0.033683  p :     0.071827
      px      :     0.021025
      py      :     0.017119
  4 H s       :     0.813317  s :     0.813317
      pz      :     0.030940  p :     0.063548
      px      :     0.016148
      py      :     0.016461
  5 H s       :     0.819710  s :     0.819710
      pz      :     0.039614  p :     0.084152
      px      :     0.026889
      py      :     0.017649
  6 H s       :     0.785089  s :     0.785089
      pz      :     0.031426  p :     0.054409
      px      :     0.013308
      py      :     0.009676


                      *****************************
                      * MAYER POPULATION ANALYSIS *
                      *****************************

  NA   - Mulliken gross atomic population
  ZA   - Total nuclear charge
  QA   - Mulliken gross atomic charge
  VA   - Mayer's total valence
  BVA  - Mayer's bonded valence
  FA   - Mayer's free valence

  ATOM       NA         ZA         QA         VA         BVA        FA
  0 O      8.3721     8.0000    -0.3721     1.8158     1.8158     0.0000
  1 C      6.0440     6.0000    -0.0440     4.0352     4.0352    -0.0000
  2 C      6.1436     6.0000    -0.1436     3.7377     3.7377    -0.0000
  3 H      0.8835     1.0000     0.1165     0.9689     0.9689     0.0000
  4 H      0.8918     1.0000     0.1082     0.9830     0.9830    -0.0000
  5 H      0.8281     1.0000     0.1719     0.9596     0.9596     0.0000
  6 H      0.8370     1.0000     0.1630     0.9632     0.9632    -0.0000

  Mayer bond orders larger than 0.100000
B(  0-O ,  1-C ) :   1.0178 B(  0-O ,  2-C ) :   0.8167 B(  1-C ,  2-C ) :   1.0326 
B(  1-C ,  3-H ) :   0.9770 B(  1-C ,  4-H ) :   1.0008 B(  2-C ,  5-H ) :   0.9445 
B(  2-C ,  6-H ) :   0.9474 

-------
TIMINGS
-------

Total SCF time: 0 days 0 hours 0 min 3 sec 

Total time                  ....       3.786 sec
Sum of individual times     ....       3.420 sec  ( 90.3%)

Fock matrix formation       ....       3.133 sec  ( 82.8%)
  Split-RI-J                ....       0.321 sec  ( 10.2% of F)
  Chain of spheres X        ....       2.177 sec  ( 69.5% of F)
  XC integration            ....       0.602 sec  ( 19.2% of F)
    Basis function eval.    ....       0.167 sec  ( 27.7% of XC)
    Density eval.           ....       0.123 sec  ( 20.5% of XC)
    XC-Functional eval.     ....       0.036 sec  (  6.0% of XC)
    XC-Potential eval.      ....       0.211 sec  ( 35.1% of XC)
Diagonalization             ....       0.022 sec  (  0.6%)
Density matrix formation    ....       0.002 sec  (  0.1%)
Population analysis         ....       0.005 sec  (  0.1%)
Initial guess               ....       0.017 sec  (  0.4%)
Orbital Transformation      ....       0.000 sec  (  0.0%)
Orbital Orthonormalization  ....       0.000 sec  (  0.0%)
DIIS solution               ....       0.018 sec  (  0.5%)
SOSCF solution              ....       0.020 sec  (  0.5%)
Grid generation             ....       0.204 sec  (  5.4%)

Maximum memory used throughout the entire SCF-calculation: 61.0 MB


-------------------------------------------------------------------------------
                          DFT DISPERSION CORRECTION                            
                                                                               
                              DFTD3 V3.1  Rev 1                                
                          USING Becke-Johnson damping                          
-------------------------------------------------------------------------------
The PBE0 functional is recognized
Active option DFTDOPT                   ...         4   

molecular C6(AA) [au] = 394.329839 


            DFT-D V3
 parameters
 s6 scaling factor         :     1.0000 
 a1 scaling factor         :     0.4145 
 s8 scaling factor         :     1.2177 
 a2 scaling factor         :     4.8593 
 ad hoc parameters k1-k3   :    16.0000     1.3333    -4.0000 

 Edisp/kcal,au: -1.654145813954  -0.002636048866 
 E6   /kcal   :  -1.079832422 
 E8   /kcal   :  -0.574313392 
 % E8         :  34.719635198 

-------------------------   ----------------
Dispersion correction           -0.002636049
-------------------------   ----------------


-------------------------   --------------------
FINAL SINGLE POINT ENERGY      -153.518312703286
-------------------------   --------------------



           ************************************************************
           *        Program running with 8 parallel MPI-processes     *
           *              working on a common directory               *
           ************************************************************
------------------------------------------------------------------------------
                         ORCA SCF GRADIENT CALCULATION
------------------------------------------------------------------------------

 ... reading COSX grid (gridx3)
Gradient of the Kohn-Sham DFT energy:
Kohn-Sham wavefunction type      ... RKS
Hartree-Fock exchange scaling    ...    0.250
Number of operators              ...    1
Number of atoms                  ...    7
Basis set dimensions             ...  117
Integral neglect threshold       ... 2.5e-11
Integral primitive cutoff        ... 2.5e-12
SHARK Integral package           ... ON

Nuc. rep. gradient       (SHARK) ... done (  0.0 sec)
HCore & Overlap gradient (SHARK) ... done (  0.0 sec)
RI-J gradient            (SHARK) ... done (  0.1 sec)
COSX-gradient                    ... done (  0.4 sec)
Exchange-correlation gradient    ... done
Dispersion correction            ... done

------------------
CARTESIAN GRADIENT
------------------

   1   O   :   -0.078305067   -0.074685278   -0.010286900
   2   C   :    0.010371369    0.003845284    0.075978356
   3   C   :    0.087369371    0.001826800   -0.135821034
   4   H   :    0.010163104    0.049736488   -0.044757493
   5   H   :   -0.000716583    0.053794841    0.002949533
   6   H   :   -0.035217160   -0.004027920    0.070629662
   7   H   :    0.006349658   -0.030508569    0.041296692

Difference to translation invariance:
           :    0.0000146910   -0.0000183543   -0.0000111840

Difference to rotation invariance:
           :    0.0000062954    0.0000131533    0.0002486332

Norm of the cartesian gradient     ...    0.2453557040
RMS gradient                       ...    0.0535410041
MAX gradient                       ...    0.1358210335

-------
TIMINGS
-------

Total SCF gradient time            ...        0.787 sec

One electron gradient       ....       0.011 sec  (  1.3%)
RI-J Coulomb gradient       ....       0.086 sec  ( 10.9%)
COSX gradient               ....       0.362 sec  ( 46.0%)
XC gradient                 ....       0.174 sec  ( 22.1%)

Maximum memory used throughout the entire SCFGRAD-calculation: 35.9 MB

                            ***************************************
                            *     ORCA property calculations      *
                            ***************************************

                                    ---------------------
                                    Active property flags
                                    ---------------------
   (+) Dipole Moment


------------------------------------------------------------------------------
                       ORCA ELECTRIC PROPERTIES CALCULATION
------------------------------------------------------------------------------

Dipole Moment Calculation                       ... on
Quadrupole Moment Calculation                   ... off
Polarizability Calculation                      ... off
GBWName                                         ... ox_gs_E_orca0003.gbw
Electron density                                ... ox_gs_E_orca0003.scfp
The origin for moment calculation is the CENTER OF MASS  = (-0.724028, -0.027530 -0.043032)

-------------
DIPOLE MOMENT
-------------
                                X             Y             Z
Electronic contribution:     -0.56795       1.39542      -0.08112
Nuclear contribution   :      1.30841      -2.50701       0.11116
                        -----------------------------------------
Total Dipole Moment    :      0.74045      -1.11159       0.03004
                        -----------------------------------------
Magnitude (a.u.)       :      1.33597
Magnitude (Debye)      :      3.39577



--------------------
Rotational spectrum 
--------------------
 
Rotational constants in cm-1:     1.281678     0.400504     0.348089 
Rotational constants in MHz : 38423.732102 12006.810170 10435.440104 

 Dipole components along the rotational axes: 
x,y,z [a.u.] :     1.230651    -0.519866    -0.007355 
x,y,z [Debye]:     3.128066    -1.321395    -0.018695 

 

Timings for individual modules:

Sum of individual times         ...        5.212 sec (=   0.087 min)
GTO integral calculation        ...        0.283 sec (=   0.005 min)   5.4 %
SCF iterations                  ...        3.949 sec (=   0.066 min)  75.8 %
SCF Gradient evaluation         ...        0.981 sec (=   0.016 min)  18.8 %
                             ****ORCA TERMINATED NORMALLY****
TOTAL RUN TIME: 0 days 0 hours 0 minutes 5 seconds 525 msec
