
                                 *****************
                                 * O   R   C   A *
                                 *****************

                                            #,                                       
                                            ###                                      
                                            ####                                     
                                            #####                                    
                                            ######                                   
                                           ########,                                 
                                     ,,################,,,,,                         
                               ,,#################################,,                 
                          ,,##########################################,,             
                       ,#########################################, ''#####,          
                    ,#############################################,,   '####,        
                  ,##################################################,,,,####,       
                ,###########''''           ''''###############################       
              ,#####''   ,,,,##########,,,,          '''####'''          '####       
            ,##' ,,,,###########################,,,                        '##       
           ' ,,###''''                  '''############,,,                           
         ,,##''                                '''############,,,,        ,,,,,,###''
      ,#''                                            '''#######################'''  
     '                                                          ''''####''''         
             ,#######,   #######,   ,#######,      ##                                
            ,#'     '#,  ##    ##  ,#'     '#,    #''#        ######   ,####,        
            ##       ##  ##   ,#'  ##            #'  '#       #        #'  '#        
            ##       ##  #######   ##           ,######,      #####,   #    #        
            '#,     ,#'  ##    ##  '#,     ,#' ,#      #,         ##   #,  ,#        
             '#######'   ##     ##  '#######'  #'      '#     #####' # '####'        



                  #######################################################
                  #                        -***-                        #
                  #          Department of theory and spectroscopy      #
                  #    Directorship and core code : Frank Neese         #
                  #        Max Planck Institute fuer Kohlenforschung    #
                  #                Kaiser Wilhelm Platz 1               #
                  #                 D-45470 Muelheim/Ruhr               #
                  #                      Germany                        #
                  #                                                     #
                  #                  All rights reserved                #
                  #                        -***-                        #
                  #######################################################


                         Program Version 5.0.2 -  RELEASE  -


 With contributions from (in alphabetic order):
   Daniel Aravena         : Magnetic Suceptibility
   Michael Atanasov       : Ab Initio Ligand Field Theory (pilot matlab implementation)
   Alexander A. Auer      : GIAO ZORA, VPT2 properties, NMR spectrum
   Ute Becker             : Parallelization
   Giovanni Bistoni       : ED, misc. LED, open-shell LED, HFLD
   Martin Brehm           : Molecular dynamics
   Dmytro Bykov           : SCF Hessian
   Vijay G. Chilkuri      : MRCI spin determinant printing, contributions to CSF-ICE
   Dipayan Datta          : RHF DLPNO-CCSD density
   Achintya Kumar Dutta   : EOM-CC, STEOM-CC
   Dmitry Ganyushin       : Spin-Orbit,Spin-Spin,Magnetic field MRCI
   Miquel Garcia          : C-PCM and meta-GGA Hessian, CC/C-PCM, Gaussian charge scheme
   Yang Guo               : DLPNO-NEVPT2, F12-NEVPT2, CIM, IAO-localization
   Andreas Hansen         : Spin unrestricted coupled pair/coupled cluster methods
   Benjamin Helmich-Paris : MC-RPA, TRAH-SCF, COSX integrals
   Lee Huntington         : MR-EOM, pCC
   Robert Izsak           : Overlap fitted RIJCOSX, COSX-SCS-MP3, EOM
   Marcus Kettner         : VPT2
   Christian Kollmar      : KDIIS, OOCD, Brueckner-CCSD(T), CCSD density, CASPT2, CASPT2-K
   Simone Kossmann        : Meta GGA functionals, TD-DFT gradient, OOMP2, MP2 Hessian
   Martin Krupicka        : Initial AUTO-CI
   Lucas Lang             : DCDCAS
   Marvin Lechner         : AUTO-CI (C++ implementation), FIC-MRCC
   Dagmar Lenk            : GEPOL surface, SMD
   Dimitrios Liakos       : Extrapolation schemes; Compound Job, initial MDCI parallelization
   Dimitrios Manganas     : Further ROCIS development; embedding schemes
   Dimitrios Pantazis     : SARC Basis sets
   Anastasios Papadopoulos: AUTO-CI, single reference methods and gradients
   Taras Petrenko         : DFT Hessian,TD-DFT gradient, ASA, ECA, R-Raman, ABS, FL, XAS/XES, NRVS
   Peter Pinski           : DLPNO-MP2, DLPNO-MP2 Gradient
   Christoph Reimann      : Effective Core Potentials
   Marius Retegan         : Local ZFS, SOC
   Christoph Riplinger    : Optimizer, TS searches, QM/MM, DLPNO-CCSD(T), (RO)-DLPNO pert. Triples
   Tobias Risthaus        : Range-separated hybrids, TD-DFT gradient, RPA, STAB
   Michael Roemelt        : Original ROCIS implementation
   Masaaki Saitow         : Open-shell DLPNO-CCSD energy and density
   Barbara Sandhoefer     : DKH picture change effects
   Avijit Sen             : IP-ROCIS
   Kantharuban Sivalingam : CASSCF convergence, NEVPT2, FIC-MRCI
   Bernardo de Souza      : ESD, SOC TD-DFT
   Georgi Stoychev        : AutoAux, RI-MP2 NMR, DLPNO-MP2 response
   Willem Van den Heuvel  : Paramagnetic NMR
   Boris Wezisla          : Elementary symmetry handling
   Frank Wennmohs         : Technical directorship


 We gratefully acknowledge several colleagues who have allowed us to
 interface, adapt or use parts of their codes:
   Stefan Grimme, W. Hujo, H. Kruse, P. Pracht,  : VdW corrections, initial TS optimization,
                  C. Bannwarth, S. Ehlert          DFT functionals, gCP, sTDA/sTD-DF
   Ed Valeev, F. Pavosevic, A. Kumar             : LibInt (2-el integral package), F12 methods
   Garnet Chan, S. Sharma, J. Yang, R. Olivares  : DMRG
   Ulf Ekstrom                                   : XCFun DFT Library
   Mihaly Kallay                                 : mrcc  (arbitrary order and MRCC methods)
   Jiri Pittner, Ondrej Demel                    : Mk-CCSD
   Frank Weinhold                                : gennbo (NPA and NBO analysis)
   Christopher J. Cramer and Donald G. Truhlar   : smd solvation model
   Lars Goerigk                                  : TD-DFT with DH, B97 family of functionals
   V. Asgeirsson, H. Jonsson                     : NEB implementation
   FAccTs GmbH                                   : IRC, NEB, NEB-TS, DLPNO-Multilevel, CI-OPT
                                                   MM, QMMM, 2- and 3-layer-ONIOM, Crystal-QMMM,
                                                   LR-CPCM, SF, NACMEs, symmetry and pop. for TD-DFT,
                                                   nearIR, NL-DFT gradient (VV10), updates on ESD,
                                                   ML-optimized integration grids
   S Lehtola, MJT Oliveira, MAL Marques          : LibXC Library
   Liviu Ungur et al                             : ANISO software


 Your calculation uses the libint2 library for the computation of 2-el integrals
 For citations please refer to: http://libint.valeyev.net

 Your ORCA version has been built with support for libXC version: 5.1.0
 For citations please refer to: https://tddft.org/programs/libxc/

 This ORCA versions uses:
   CBLAS   interface :  Fast vector & matrix operations
   LAPACKE interface :  Fast linear algebra routines
   SCALAPACK package :  Parallel linear algebra routines
   Shared memory     :  Shared parallel matrices
   BLAS/LAPACK       :  OpenBLAS 0.3.15  USE64BITINT DYNAMIC_ARCH NO_AFFINITY SkylakeX SINGLE_THREADED
        Core in use  :  SkylakeX
   Copyright (c) 2011-2014, The OpenBLAS Project


Your calculation utilizes the atom-pairwise dispersion correction
with the Becke-Johnson damping scheme (D3BJ)
Cite in your paper:
S.Grimme, S.Ehrlich, L.Goerigk, J Comput Chem, (2011), 32, 1456–1465 
S.Grimme, J.Antony, S.Ehrlich and H.Krieg, J.Chem.Phys., 132, (2010), 154104 
   

================================================================================

----- Orbital basis set information -----
Your calculation utilizes the basis: def2-TZVP
   F. Weigend and R. Ahlrichs, Phys. Chem. Chem. Phys. 7, 3297 (2005).

----- AuxJ basis set information -----
Your calculation utilizes the auxiliary basis: def2/J
   F. Weigend, Phys. Chem. Chem. Phys. 8, 1057 (2006).

================================================================================
                                        WARNINGS
                       Please study these warnings very carefully!
================================================================================


INFO   : the flag for use of the SHARK integral package has been found!

================================================================================
                                       INPUT FILE
================================================================================
NAME = ox_gs_D_orca0000.inp
|  1> ! engrad PBE0 D3BJ def2-TZVP  
|  2> %pal nprocs 8 end
|  3> %maxcore 3000
|  4>  
|  5> *xyz 0 1 
|  6> O   -0.7565283845222538 1.0757943885058143 -0.017043889331135886
|  7> C   -0.7633393124075184 -0.4913744241213824 -0.03493508265808848
|  8> C   0.7605999590518834 -0.4750392905673034 -0.11522178287763468
|  9> H   -1.3404107083067083 -0.6672957068643552 0.907399203613131
| 10> H   -1.2995473984867376 -0.6591762707982423 -0.9364445531682778
| 11> H   1.2876437810157244 -0.5937609161094721 -0.9304020488272691
| 12> H   1.2888105454687797 -0.6709484601978182 0.9955930074968025
| 13> *
| 14> 
| 15>                          ****END OF INPUT****
================================================================================

                     *******************************
                     * Energy+Gradient Calculation *
                     *******************************

---------------------------------
CARTESIAN COORDINATES (ANGSTROEM)
---------------------------------
  O     -0.756528    1.075794   -0.017044
  C     -0.763339   -0.491374   -0.034935
  C      0.760600   -0.475039   -0.115222
  H     -1.340411   -0.667296    0.907399
  H     -1.299547   -0.659176   -0.936445
  H      1.287644   -0.593761   -0.930402
  H      1.288811   -0.670948    0.995593

----------------------------
CARTESIAN COORDINATES (A.U.)
----------------------------
  NO LB      ZA    FRAG     MASS         X           Y           Z
   0 O     8.0000    0    15.999   -1.429631    2.032957   -0.032208
   1 C     6.0000    0    12.011   -1.442502   -0.928563   -0.066018
   2 C     6.0000    0    12.011    1.437326   -0.897694   -0.217738
   3 H     1.0000    0     1.008   -2.533009   -1.261006    1.714736
   4 H     1.0000    0     1.008   -2.455789   -1.245663   -1.769624
   5 H     1.0000    0     1.008    2.433294   -1.122046   -1.758205
   6 H     1.0000    0     1.008    2.435499   -1.267909    1.881398

--------------------------------
INTERNAL COORDINATES (ANGSTROEM)
--------------------------------
 O      0   0   0     0.000000000000     0.00000000     0.00000000
 C      1   0   0     1.567285733620     0.00000000     0.00000000
 C      2   1   0     1.526140129188    89.17252615     0.00000000
 H      2   1   3     1.118907324477    98.61774416   124.42080082
 H      2   1   3     1.062259806613    99.77831967   242.26039889
 H      3   2   1     0.977951369259   125.49989354   260.31476442
 H      3   2   1     1.245510467585   112.01677547    99.35433430

---------------------------
INTERNAL COORDINATES (A.U.)
---------------------------
 O      0   0   0     0.000000000000     0.00000000     0.00000000
 C      1   0   0     2.961740810144     0.00000000     0.00000000
 C      2   1   0     2.883986886152    89.17252615     0.00000000
 H      2   1   3     2.114428412501    98.61774416   124.42080082
 H      2   1   3     2.007380117570    99.77831967   242.26039889
 H      3   2   1     1.848060260193   125.49989354   260.31476442
 H      3   2   1     2.353673680667   112.01677547    99.35433430

---------------------
BASIS SET INFORMATION
---------------------
There are 3 groups of distinct atoms

 Group   1 Type O   : 11s6p2d1f contracted to 5s3p2d1f pattern {62111/411/11/1}
 Group   2 Type C   : 11s6p2d1f contracted to 5s3p2d1f pattern {62111/411/11/1}
 Group   3 Type H   : 5s1p contracted to 3s1p pattern {311/1}

Atom   0O    basis set group =>   1
Atom   1C    basis set group =>   2
Atom   2C    basis set group =>   2
Atom   3H    basis set group =>   3
Atom   4H    basis set group =>   3
Atom   5H    basis set group =>   3
Atom   6H    basis set group =>   3
---------------------------------
AUXILIARY/J BASIS SET INFORMATION
---------------------------------
There are 3 groups of distinct atoms

 Group   1 Type O   : 12s5p4d2f1g contracted to 6s4p3d1f1g pattern {711111/2111/211/2/1}
 Group   2 Type C   : 12s5p4d2f1g contracted to 6s4p3d1f1g pattern {711111/2111/211/2/1}
 Group   3 Type H   : 5s2p1d contracted to 3s1p1d pattern {311/2/1}

Atom   0O    basis set group =>   1
Atom   1C    basis set group =>   2
Atom   2C    basis set group =>   2
Atom   3H    basis set group =>   3
Atom   4H    basis set group =>   3
Atom   5H    basis set group =>   3
Atom   6H    basis set group =>   3


           ************************************************************
           *        Program running with 8 parallel MPI-processes     *
           *              working on a common directory               *
           ************************************************************
------------------------------------------------------------------------------
                           ORCA GTO INTEGRAL CALCULATION
                           -- RI-GTO INTEGRALS CHOSEN --
------------------------------------------------------------------------------
------------------------------------------------------------------------------
                   ___                                                        
                  /   \      - P O W E R E D   B Y -                         
                 /     \                                                     
                 |  |  |   _    _      __       _____    __    __             
                 |  |  |  | |  | |    /  \     |  _  \  |  |  /  |          
                  \  \/   | |  | |   /    \    | | | |  |  | /  /          
                 / \  \   | |__| |  /  /\  \   | |_| |  |  |/  /          
                |  |  |   |  __  | /  /__\  \  |    /   |      \           
                |  |  |   | |  | | |   __   |  |    \   |  |\   \          
                \     /   | |  | | |  |  |  |  | |\  \  |  | \   \       
                 \___/    |_|  |_| |__|  |__|  |_| \__\ |__|  \__/        
                                                                              
                      - O R C A' S   B I G   F R I E N D -                    
                                      &                                       
                       - I N T E G R A L  F E E D E R -                       
                                                                              
 v1 FN, 2020, v2 2021                                                         
------------------------------------------------------------------------------


Reading SHARK input file ox_gs_D_orca0000.SHARKINP.tmp ... ok
----------------------
SHARK INTEGRAL PACKAGE
----------------------

Number of atoms                             ...      7
Number of basis functions                   ...    117
Number of shells                            ...     49
Maximum angular momentum                    ...      3
Integral batch strategy                     ... SHARK/LIBINT Hybrid
RI-J (if used) integral strategy            ... SPLIT-RIJ (Revised 2003 algorithm where possible)
Printlevel                                  ...      1
Contraction scheme used                     ... SEGMENTED contraction
Coulomb Range Separation                    ... NOT USED
Exchange Range Separation                   ... NOT USED
Finite Nucleus Model                        ... NOT USED
Auxiliary Coulomb fitting basis             ... AVAILABLE
   # of basis functions in Aux-J            ...    191
   # of shells in Aux-J                     ...     65
   Maximum angular momentum in Aux-J        ...      4
Auxiliary J/K fitting basis                 ... NOT available
Auxiliary Correlation fitting basis         ... NOT available
Auxiliary 'external' fitting basis          ... NOT available
Integral threshold                          ...     2.500000e-11
Primitive cut-off                           ...     2.500000e-12
Primitive pair pre-selection threshold      ...     2.500000e-12

Calculating pre-screening integrals         ... done (  0.0 sec) Dimension = 49
Organizing shell pair data                  ... done (  0.0 sec)
Shell pair information
Total number of shell pairs                 ...      1225
Shell pairs after pre-screening             ...      1213
Total number of primitive shell pairs       ...      3648
Primitive shell pairs kept                  ...      3069
          la=0 lb=0:    367 shell pairs
          la=1 lb=0:    351 shell pairs
          la=1 lb=1:     91 shell pairs
          la=2 lb=0:    161 shell pairs
          la=2 lb=1:     78 shell pairs
          la=2 lb=2:     21 shell pairs
          la=3 lb=0:     81 shell pairs
          la=3 lb=1:     39 shell pairs
          la=3 lb=2:     18 shell pairs
          la=3 lb=3:      6 shell pairs

Calculating one electron integrals          ... done (  0.0 sec)
Calculating RI/J V-Matrix + Cholesky decomp.... done (  0.0 sec)
Calculating Nuclear repulsion               ... done (  0.0 sec) ENN=     66.004619187371 Eh

SHARK setup successfully completed in   0.1 seconds

Maximum memory used throughout the entire GTOINT-calculation: 14.9 MB


           ************************************************************
           *        Program running with 8 parallel MPI-processes     *
           *              working on a common directory               *
           ************************************************************
-------------------------------------------------------------------------------
                                 ORCA SCF
-------------------------------------------------------------------------------

------------
SCF SETTINGS
------------
Hamiltonian:
 Density Functional     Method          .... DFT(GTOs)
 Exchange Functional    Exchange        .... PBE
   PBE kappa parameter   XKappa         ....  0.804000
   PBE mue parameter    XMuePBE         ....  0.219520
 Correlation Functional Correlation     .... PBE
   PBE beta parameter  CBetaPBE         ....  0.066725
 LDA part of GGA corr.  LDAOpt          .... PW91-LDA
 Gradients option       PostSCFGGA      .... off
 Hybrid DFT is turned on
   Fraction HF Exchange ScalHFX         ....  0.250000
   Scaling of DF-GGA-X  ScalDFX         ....  0.750000
   Scaling of DF-GGA-C  ScalDFC         ....  1.000000
   Scaling of DF-LDA-C  ScalLDAC        ....  1.000000
   Perturbative correction              ....  0.000000
   Density functional embedding theory  .... OFF
   NL short-range parameter             ....  6.900000
 RI-approximation to the Coulomb term is turned on
   Number of AuxJ basis functions       .... 191
   RIJ-COSX (HFX calculated with COS-X)).... on


General Settings:
 Integral files         IntName         .... ox_gs_D_orca0000
 Hartree-Fock type      HFTyp           .... RHF
 Total Charge           Charge          ....    0
 Multiplicity           Mult            ....    1
 Number of Electrons    NEL             ....   24
 Basis Dimension        Dim             ....  117
 Nuclear Repulsion      ENuc            ....     66.0046191874 Eh

Convergence Acceleration:
 DIIS                   CNVDIIS         .... on
   Start iteration      DIISMaxIt       ....    12
   Startup error        DIISStart       ....  0.200000
   # of expansion vecs  DIISMaxEq       ....     5
   Bias factor          DIISBfac        ....   1.050
   Max. coefficient     DIISMaxC        ....  10.000
 Trust-Rad. Augm. Hess. CNVTRAH         .... auto
   Auto Start mean grad. ratio tolernc. ....  1.125000
   Auto Start start iteration           ....    20
   Auto Start num. interpolation iter.  ....    10
   Max. Number of Micro iterations      ....    16
   Max. Number of Macro iterations      .... Maxiter - #DIIS iter
   Number of Davidson start vectors     ....     2
   Converg. threshold I  (grad. norm)   ....   1.000e-05
   Converg. threshold II (energy diff.) ....   1.000e-08
   Grad. Scal. Fac. for Micro threshold ....   0.100
   Minimum threshold for Micro iter.    ....   0.010
   NR start threshold (gradient norm)   ....   0.001
   Initial trust radius                 ....   0.400
   Minimum AH scaling param. (alpha)    ....   1.000
   Maximum AH scaling param. (alpha)    .... 1000.000
   Orbital update algorithm             .... Taylor
   White noise on init. David. guess    .... on
   Maximum white noise                  ....   0.010
   Quad. conv. algorithm                .... NR
 SOSCF                  CNVSOSCF        .... on
   Start iteration      SOSCFMaxIt      ....   150
   Startup grad/error   SOSCFStart      ....  0.003300
 Level Shifting         CNVShift        .... on
   Level shift para.    LevelShift      ....    0.2500
   Turn off err/grad.   ShiftErr        ....    0.0010
 Zerner damping         CNVZerner       .... off
 Static damping         CNVDamp         .... on
   Fraction old density DampFac         ....    0.7000
   Max. Damping (<1)    DampMax         ....    0.9800
   Min. Damping (>=0)   DampMin         ....    0.0000
   Turn off err/grad.   DampErr         ....    0.1000
 Fernandez-Rico         CNVRico         .... off

SCF Procedure:
 Maximum # iterations   MaxIter         ....   125
 SCF integral mode      SCFMode         .... Direct
   Integral package                     .... SHARK and LIBINT hybrid scheme
 Reset frequency        DirectResetFreq ....    20
 Integral Threshold     Thresh          ....  2.500e-11 Eh
 Primitive CutOff       TCut            ....  2.500e-12 Eh

Convergence Tolerance:
 Convergence Check Mode ConvCheckMode   .... Total+1el-Energy
 Convergence forced     ConvForced      .... 0
 Energy Change          TolE            ....  1.000e-08 Eh
 1-El. energy change                    ....  1.000e-05 Eh
 Orbital Gradient       TolG            ....  1.000e-05
 Orbital Rotation angle TolX            ....  1.000e-05
 DIIS Error             TolErr          ....  5.000e-07


Diagonalization of the overlap matrix:
Smallest eigenvalue                        ... 7.070e-04
Time for diagonalization                   ...    0.001 sec
Threshold for overlap eigenvalues          ... 1.000e-08
Number of eigenvalues below threshold      ... 0
Time for construction of square roots      ...    0.001 sec
Total time needed                          ...    0.003 sec

Time for model grid setup =    0.019 sec

------------------------------
INITIAL GUESS: MODEL POTENTIAL
------------------------------
Loading Hartree-Fock densities                     ... done
Calculating cut-offs                               ... done
Initializing the effective Hamiltonian             ... done
Setting up the integral package (SHARK)            ... done
Starting the Coulomb interaction                   ... done (   0.0 sec)
Reading the grid                                   ... done
Mapping shells                                     ... done
Starting the XC term evaluation                    ... done (   0.0 sec)
  promolecular density results
     # of electrons  =     23.998967425
     EX              =    -19.399809030
     EC              =     -0.756462786
     EX+EC           =    -20.156271816
Transforming the Hamiltonian                       ... done (   0.0 sec)
Diagonalizing the Hamiltonian                      ... done (   0.0 sec)
Back transforming the eigenvectors                 ... done (   0.0 sec)
Now organizing SCF variables                       ... done
                      ------------------
                      INITIAL GUESS DONE (   0.0 sec)
                      ------------------
-------------------
DFT GRID GENERATION
-------------------

General Integration Accuracy     IntAcc      ... 4.388
Radial Grid Type                 RadialGrid  ... OptM3 with GC (2021)
Angular Grid (max. ang.)         AngularGrid ... 4 (Lebedev-302)
Angular grid pruning method      GridPruning ... 4 (adaptive)
Weight generation scheme         WeightScheme... Becke
Basis function cutoff            BFCut       ... 1.0000e-11
Integration weight cutoff        WCut        ... 1.0000e-14
Angular grids for H and He will be reduced by one unit
Partially contracted basis set               ... off
Rotationally invariant grid construction     ... off

Total number of grid points                  ...    31361
Total number of batches                      ...      493
Average number of points per batch           ...       63
Average number of grid points per atom       ...     4480
Time for grid setup =    0.113 sec

--------------------
COSX GRID GENERATION
--------------------

GRIDX 1
-------
General Integration Accuracy     IntAcc      ... 3.816
Radial Grid Type                 RadialGrid  ... OptM3 with GC (2021)
Angular Grid (max. ang.)         AngularGrid ... 1 (Lebedev-50)
Angular grid pruning method      GridPruning ... 4 (adaptive)
Weight generation scheme         WeightScheme... Becke
Basis function cutoff            BFCut       ... 1.0000e-11
Integration weight cutoff        WCut        ... 1.0000e-14
Angular grids for H and He will be reduced by one unit
Partially contracted basis set               ... on
Rotationally invariant grid construction     ... off

Total number of grid points                  ...     4032
Total number of batches                      ...       68
Average number of points per batch           ...       59
Average number of grid points per atom       ...      576
UseSFitting                                  ... on

GRIDX 2
-------
General Integration Accuracy     IntAcc      ... 4.020
Radial Grid Type                 RadialGrid  ... OptM3 with GC (2021)
Angular Grid (max. ang.)         AngularGrid ... 2 (Lebedev-110)
Angular grid pruning method      GridPruning ... 4 (adaptive)
Weight generation scheme         WeightScheme... Becke
Basis function cutoff            BFCut       ... 1.0000e-11
Integration weight cutoff        WCut        ... 1.0000e-14
Angular grids for H and He will be reduced by one unit
Partially contracted basis set               ... on
Rotationally invariant grid construction     ... off

Total number of grid points                  ...     8732
Total number of batches                      ...      139
Average number of points per batch           ...       62
Average number of grid points per atom       ...     1247
UseSFitting                                  ... on

GRIDX 3
-------
General Integration Accuracy     IntAcc      ... 4.338
Radial Grid Type                 RadialGrid  ... OptM3 with GC (2021)
Angular Grid (max. ang.)         AngularGrid ... 3 (Lebedev-194)
Angular grid pruning method      GridPruning ... 4 (adaptive)
Weight generation scheme         WeightScheme... Becke
Basis function cutoff            BFCut       ... 1.0000e-11
Integration weight cutoff        WCut        ... 1.0000e-14
Angular grids for H and He will be reduced by one unit
Partially contracted basis set               ... on
Rotationally invariant grid construction     ... off

Total number of grid points                  ...    19266
Total number of batches                      ...      305
Average number of points per batch           ...       63
Average number of grid points per atom       ...     2752
UseSFitting                                  ... on

Time for X-Grid setup             =    0.072 sec

--------------
SCF ITERATIONS
--------------
ITER       Energy         Delta-E        Max-DP      RMS-DP      [F,P]     Damp
               ***  Starting incremental Fock matrix formation  ***
  0   -153.3900716369   0.000000000000 0.08244076  0.00216228  0.3120739 0.7000
  1   -153.4703226479  -0.080251010959 0.04611901  0.00116808  0.0774081 0.7000
                               ***Turning on DIIS***
  2   -153.4816431208  -0.011320472931 0.04194735  0.00150653  0.0587321 0.0000
  3   -153.5313227601  -0.049679639223 0.01887534  0.00082762  0.0333159 0.0000
  4   -153.5334486347  -0.002125874653 0.00876437  0.00028389  0.0392003 0.0000
  5   -153.5352633603  -0.001814725556 0.00294094  0.00009090  0.0086223 0.0000
  6   -153.5353729139  -0.000109553619 0.00092938  0.00003607  0.0034502 0.0000
                      *** Initiating the SOSCF procedure ***
                           *** Shutting down DIIS ***
                      *** Re-Reading the Fockian *** 
                      *** Removing any level shift *** 
ITER      Energy       Delta-E        Grad      Rot      Max-DP    RMS-DP
  7   -153.53538773  -0.0000148178  0.000348  0.000348  0.000501  0.000023
               *** Restarting incremental Fock matrix formation ***
  8   -153.53537587   0.0000118636  0.000110  0.000678  0.000352  0.000014
  9   -153.53537528   0.0000005906  0.000385  0.000676  0.000348  0.000009
 10   -153.53537604  -0.0000007664  0.000139  0.000245  0.000238  0.000009
 11   -153.53537579   0.0000002505  0.000185  0.000151  0.000144  0.000006
 12   -153.53537630  -0.0000005034  0.000007  0.000014  0.000005  0.000000
                  ***Gradient check signals convergence***
              ***Rediagonalizing the Fockian in SOSCF/NRSCF***

               *****************************************************
               *                     SUCCESS                       *
               *           SCF CONVERGED AFTER  13 CYCLES          *
               *****************************************************

Old exchange energy                            =     -4.930893753 Eh
New exchange energy                            =     -4.930900374 Eh
Exchange energy change after final integration =     -0.000006621 Eh
Total energy after final integration           =   -153.535382919 Eh
Final COS-X integration done in                =     0.256 sec

----------------
TOTAL SCF ENERGY
----------------

Total Energy       :         -153.53538292 Eh           -4177.91017 eV

Components:
Nuclear Repulsion  :           66.00461919 Eh            1796.07700 eV
Electronic Energy  :         -219.54000211 Eh           -5973.98717 eV
One Electron Energy:         -338.96624514 Eh           -9223.74046 eV
Two Electron Energy:          119.42624303 Eh            3249.75329 eV
Max COSX asymmetry :            0.00000125 Eh               0.00003 eV

Virial components:
Potential Energy   :         -305.96230184 Eh           -8325.65750 eV
Kinetic Energy     :          152.42691892 Eh            4147.74733 eV
Virial Ratio       :            2.00727210


DFT components:
N(Alpha)           :       12.000011864159 electrons
N(Beta)            :       12.000011864159 electrons
N(Total)           :       24.000023728318 electrons
E(X)               :      -14.815296179019 Eh       
E(C)               :       -0.764538910090 Eh       
E(XC)              :      -15.579835089109 Eh       
DFET-embed. en.    :        0.000000000000 Eh       

---------------
SCF CONVERGENCE
---------------

  Last Energy change         ...   -1.2553e-09  Tolerance :   1.0000e-08
  Last MAX-Density change    ...    1.3323e-15  Tolerance :   1.0000e-07
  Last RMS-Density change    ...    2.3467e-17  Tolerance :   5.0000e-09
  Last Orbital Gradient      ...    1.6215e-06  Tolerance :   1.0000e-05
  Last Orbital Rotation      ...    1.9433e-06  Tolerance :   1.0000e-05

             **** THE GBW FILE WAS UPDATED (ox_gs_D_orca0000.gbw) ****
             **** DENSITY ox_gs_D_orca0000.scfp WAS UPDATED ****
             **** ENERGY FILE WAS UPDATED (ox_gs_D_orca0000.en.tmp) ****
             **** THE GBW FILE WAS UPDATED (ox_gs_D_orca0000.gbw) ****
             **** DENSITY ox_gs_D_orca0000.scfp WAS UPDATED ****
----------------
ORBITAL ENERGIES
----------------

  NO   OCC          E(Eh)            E(eV) 
   0   2.0000     -19.204939      -522.5930 
   1   2.0000     -10.327018      -281.0124 
   2   2.0000     -10.287673      -279.9418 
   3   2.0000      -0.951270       -25.8854 
   4   2.0000      -0.762065       -20.7369 
   5   2.0000      -0.643336       -17.5061 
   6   2.0000      -0.513680       -13.9779 
   7   2.0000      -0.468396       -12.7457 
   8   2.0000      -0.415181       -11.2977 
   9   2.0000      -0.372244       -10.1293 
  10   2.0000      -0.282711        -7.6930 
  11   2.0000      -0.263151        -7.1607 
  12   0.0000      -0.119566        -3.2536 
  13   0.0000       0.038063         1.0358 
  14   0.0000       0.069040         1.8787 
  15   0.0000       0.087836         2.3901 
  16   0.0000       0.093716         2.5501 
  17   0.0000       0.139181         3.7873 
  18   0.0000       0.182373         4.9626 
  19   0.0000       0.187248         5.0953 
  20   0.0000       0.228369         6.2142 
  21   0.0000       0.245249         6.6736 
  22   0.0000       0.268339         7.3019 
  23   0.0000       0.298423         8.1205 
  24   0.0000       0.342483         9.3194 
  25   0.0000       0.379305        10.3214 
  26   0.0000       0.402730        10.9588 
  27   0.0000       0.422647        11.5008 
  28   0.0000       0.452686        12.3182 
  29   0.0000       0.470175        12.7941 
  30   0.0000       0.506564        13.7843 
  31   0.0000       0.532701        14.4955 
  32   0.0000       0.560772        15.2594 
  33   0.0000       0.619264        16.8510 
  34   0.0000       0.650891        17.7117 
  35   0.0000       0.718259        19.5448 
  36   0.0000       0.777760        21.1639 
  37   0.0000       0.812607        22.1122 
  38   0.0000       0.861073        23.4310 
  39   0.0000       0.913466        24.8567 
  40   0.0000       0.935972        25.4691 
  41   0.0000       1.020321        27.7644 
  42   0.0000       1.056059        28.7368 
  43   0.0000       1.056416        28.7465 
  44   0.0000       1.159856        31.5613 
  45   0.0000       1.329103        36.1667 
  46   0.0000       1.377085        37.4724 
  47   0.0000       1.465176        39.8695 
  48   0.0000       1.495750        40.7014 
  49   0.0000       1.509062        41.0637 
  50   0.0000       1.562853        42.5274 
  51   0.0000       1.591817        43.3155 
  52   0.0000       1.598617        43.5006 
  53   0.0000       1.666643        45.3517 
  54   0.0000       1.698915        46.2298 
  55   0.0000       1.723864        46.9087 
  56   0.0000       1.779977        48.4356 
  57   0.0000       1.813248        49.3410 
  58   0.0000       1.842357        50.1331 
  59   0.0000       1.903236        51.7897 
  60   0.0000       2.005549        54.5738 
  61   0.0000       2.091388        56.9096 
  62   0.0000       2.116319        57.5880 
  63   0.0000       2.145856        58.3917 
  64   0.0000       2.245911        61.1143 
  65   0.0000       2.328443        63.3602 
  66   0.0000       2.353919        64.0534 
  67   0.0000       2.440604        66.4122 
  68   0.0000       2.445344        66.5412 
  69   0.0000       2.502040        68.0840 
  70   0.0000       2.549723        69.3815 
  71   0.0000       2.603299        70.8394 
  72   0.0000       2.639940        71.8364 
  73   0.0000       2.677107        72.8478 
  74   0.0000       2.752492        74.8991 
  75   0.0000       2.808862        76.4330 
  76   0.0000       2.845470        77.4292 
  77   0.0000       2.887463        78.5719 
  78   0.0000       2.920918        79.4822 
  79   0.0000       2.933275        79.8185 
  80   0.0000       2.992427        81.4281 
  81   0.0000       3.055572        83.1463 
  82   0.0000       3.095202        84.2247 
  83   0.0000       3.107619        84.5626 
  84   0.0000       3.140429        85.4554 
  85   0.0000       3.223597        87.7185 
  86   0.0000       3.282039        89.3088 
  87   0.0000       3.316553        90.2480 
  88   0.0000       3.339206        90.8644 
  89   0.0000       3.433073        93.4187 
  90   0.0000       3.463166        94.2375 
  91   0.0000       3.583670        97.5166 
  92   0.0000       3.637483        98.9810 
  93   0.0000       3.748480       102.0013 
  94   0.0000       3.947097       107.4060 
  95   0.0000       3.993283       108.6627 
  96   0.0000       4.115724       111.9946 
  97   0.0000       4.209432       114.5445 
  98   0.0000       4.354482       118.4915 
  99   0.0000       4.444974       120.9539 
 100   0.0000       4.580010       124.6284 
 101   0.0000       4.749719       129.2464 
 102   0.0000       5.208035       141.7178 
 103   0.0000       5.243756       142.6899 
 104   0.0000       5.296707       144.1307 
 105   0.0000       5.305902       144.3809 
 106   0.0000       5.557267       151.2209 
 107   0.0000       5.569298       151.5483 
 108   0.0000       5.744730       156.3220 
 109   0.0000       6.352503       172.8604 
 110   0.0000       6.401877       174.2039 
 111   0.0000       6.685563       181.9234 
 112   0.0000       6.710390       182.5990 
 113   0.0000       7.007473       190.6830 
 114   0.0000      22.025201       599.3362 
 115   0.0000      22.210199       604.3702 
 116   0.0000      43.597467      1186.3474 

                    ********************************
                    * MULLIKEN POPULATION ANALYSIS *
                    ********************************

-----------------------
MULLIKEN ATOMIC CHARGES
-----------------------
   0 O :   -0.396519
   1 C :   -0.058030
   2 C :   -0.156253
   3 H :    0.144536
   4 H :    0.130399
   5 H :    0.171408
   6 H :    0.164459
Sum of atomic charges:    0.0000000

--------------------------------
MULLIKEN REDUCED ORBITAL CHARGES
--------------------------------
  0 O s       :     3.934375  s :     3.934375
      pz      :     1.939822  p :     4.444758
      px      :     1.319606
      py      :     1.185329
      dz2     :     0.002542  d :     0.016566
      dxz     :     0.000168
      dyz     :     0.003214
      dx2y2   :     0.006280
      dxy     :     0.004362
      f0      :     0.000091  f :     0.000820
      f+1     :     0.000041
      f-1     :     0.000225
      f+2     :     0.000085
      f-2     :     0.000016
      f+3     :     0.000140
      f-3     :     0.000224
  1 C s       :     3.213494  s :     3.213494
      pz      :     1.071589  p :     2.710250
      px      :     0.902862
      py      :     0.735798
      dz2     :     0.011472  d :     0.126529
      dxz     :     0.017066
      dyz     :     0.033526
      dx2y2   :     0.023147
      dxy     :     0.041316
      f0      :     0.001178  f :     0.007757
      f+1     :     0.001209
      f-1     :     0.000557
      f+2     :     0.002016
      f-2     :     0.000053
      f+3     :     0.001671
      f-3     :     0.001074
  2 C s       :     3.323715  s :     3.323715
      pz      :     1.047336  p :     2.777914
      px      :     0.985058
      py      :     0.745519
      dz2     :     0.007213  d :     0.050078
      dxz     :     0.020761
      dyz     :     0.004060
      dx2y2   :     0.006700
      dxy     :     0.011344
      f0      :     0.000561  f :     0.004546
      f+1     :     0.001150
      f-1     :     0.000075
      f+2     :     0.000700
      f-2     :     0.000176
      f+3     :     0.000874
      f-3     :     0.001011
  3 H s       :     0.835014  s :     0.835014
      pz      :     0.010337  p :     0.020450
      px      :     0.006264
      py      :     0.003849
  4 H s       :     0.847432  s :     0.847432
      pz      :     0.010951  p :     0.022169
      px      :     0.006772
      py      :     0.004446
  5 H s       :     0.802820  s :     0.802820
      pz      :     0.011775  p :     0.025772
      px      :     0.008593
      py      :     0.005404
  6 H s       :     0.818597  s :     0.818597
      pz      :     0.010067  p :     0.016944
      px      :     0.004165
      py      :     0.002712


                     *******************************
                     * LOEWDIN POPULATION ANALYSIS *
                     *******************************

----------------------
LOEWDIN ATOMIC CHARGES
----------------------
   0 O :   -0.165898
   1 C :   -0.316225
   2 C :   -0.017689
   3 H :    0.131397
   4 H :    0.113338
   5 H :    0.084646
   6 H :    0.170431

-------------------------------
LOEWDIN REDUCED ORBITAL CHARGES
-------------------------------
  0 O s       :     3.669353  s :     3.669353
      pz      :     1.890186  p :     4.459358
      px      :     1.288650
      py      :     1.280521
      dz2     :     0.005559  d :     0.035241
      dxz     :     0.000213
      dyz     :     0.007387
      dx2y2   :     0.014015
      dxy     :     0.008067
      f0      :     0.000172  f :     0.001946
      f+1     :     0.000050
      f-1     :     0.000406
      f+2     :     0.000319
      f-2     :     0.000014
      f+3     :     0.000469
      f-3     :     0.000516
  1 C s       :     2.871840  s :     2.871840
      pz      :     1.082697  p :     2.931693
      px      :     1.038414
      py      :     0.810582
      dz2     :     0.059467  d :     0.464629
      dxz     :     0.092529
      dyz     :     0.081402
      dx2y2   :     0.114034
      dxy     :     0.117197
      f0      :     0.006409  f :     0.048062
      f+1     :     0.004738
      f-1     :     0.005066
      f+2     :     0.010363
      f-2     :     0.000718
      f+3     :     0.009656
      f-3     :     0.011114
  2 C s       :     2.936068  s :     2.936068
      pz      :     1.079864  p :     2.857755
      px      :     1.085257
      py      :     0.692635
      dz2     :     0.033000  d :     0.203776
      dxz     :     0.091319
      dyz     :     0.008207
      dx2y2   :     0.036339
      dxy     :     0.034911
      f0      :     0.003045  f :     0.020090
      f+1     :     0.003281
      f-1     :     0.000736
      f+2     :     0.003696
      f-2     :     0.000734
      f+3     :     0.004121
      f-3     :     0.004477
  3 H s       :     0.810097  s :     0.810097
      pz      :     0.030830  p :     0.058505
      px      :     0.016990
      py      :     0.010685
  4 H s       :     0.819569  s :     0.819569
      pz      :     0.034401  p :     0.067093
      px      :     0.019501
      py      :     0.013190
  5 H s       :     0.828691  s :     0.828691
      pz      :     0.041987  p :     0.086664
      px      :     0.027886
      py      :     0.016790
  6 H s       :     0.785608  s :     0.785608
      pz      :     0.027257  p :     0.043961
      px      :     0.010177
      py      :     0.006527


                      *****************************
                      * MAYER POPULATION ANALYSIS *
                      *****************************

  NA   - Mulliken gross atomic population
  ZA   - Total nuclear charge
  QA   - Mulliken gross atomic charge
  VA   - Mayer's total valence
  BVA  - Mayer's bonded valence
  FA   - Mayer's free valence

  ATOM       NA         ZA         QA         VA         BVA        FA
  0 O      8.3965     8.0000    -0.3965     1.7871     1.7871    -0.0000
  1 C      6.0580     6.0000    -0.0580     3.9689     3.9689     0.0000
  2 C      6.1563     6.0000    -0.1563     3.8275     3.8275     0.0000
  3 H      0.8555     1.0000     0.1445     0.9648     0.9648    -0.0000
  4 H      0.8696     1.0000     0.1304     0.9697     0.9697     0.0000
  5 H      0.8286     1.0000     0.1714     0.9509     0.9509     0.0000
  6 H      0.8355     1.0000     0.1645     0.9589     0.9589     0.0000

  Mayer bond orders larger than 0.100000
B(  0-O ,  1-C ) :   0.9414 B(  0-O ,  2-C ) :   0.8456 B(  1-C ,  2-C ) :   1.0918 
B(  1-C ,  3-H ) :   0.9582 B(  1-C ,  4-H ) :   0.9670 B(  2-C ,  5-H ) :   0.9404 
B(  2-C ,  6-H ) :   0.9417 

-------
TIMINGS
-------

Total SCF time: 0 days 0 hours 0 min 2 sec 

Total time                  ....       2.888 sec
Sum of individual times     ....       2.591 sec  ( 89.7%)

Fock matrix formation       ....       2.319 sec  ( 80.3%)
  Split-RI-J                ....       0.254 sec  ( 10.9% of F)
  Chain of spheres X        ....       1.595 sec  ( 68.8% of F)
  XC integration            ....       0.444 sec  ( 19.1% of F)
    Basis function eval.    ....       0.122 sec  ( 27.5% of XC)
    Density eval.           ....       0.090 sec  ( 20.2% of XC)
    XC-Functional eval.     ....       0.027 sec  (  6.0% of XC)
    XC-Potential eval.      ....       0.153 sec  ( 34.5% of XC)
Diagonalization             ....       0.019 sec  (  0.6%)
Density matrix formation    ....       0.002 sec  (  0.1%)
Population analysis         ....       0.003 sec  (  0.1%)
Initial guess               ....       0.016 sec  (  0.6%)
Orbital Transformation      ....       0.000 sec  (  0.0%)
Orbital Orthonormalization  ....       0.000 sec  (  0.0%)
DIIS solution               ....       0.016 sec  (  0.5%)
SOSCF solution              ....       0.013 sec  (  0.5%)
Grid generation             ....       0.203 sec  (  7.0%)

Maximum memory used throughout the entire SCF-calculation: 61.0 MB


-------------------------------------------------------------------------------
                          DFT DISPERSION CORRECTION                            
                                                                               
                              DFTD3 V3.1  Rev 1                                
                          USING Becke-Johnson damping                          
-------------------------------------------------------------------------------
The PBE0 functional is recognized
Active option DFTDOPT                   ...         4   

molecular C6(AA) [au] = 396.137750 


            DFT-D V3
 parameters
 s6 scaling factor         :     1.0000 
 a1 scaling factor         :     0.4145 
 s8 scaling factor         :     1.2177 
 a2 scaling factor         :     4.8593 
 ad hoc parameters k1-k3   :    16.0000     1.3333    -4.0000 

 Edisp/kcal,au: -1.647359786525  -0.002625234644 
 E6   /kcal   :  -1.073905376 
 E8   /kcal   :  -0.573454411 
 % E8         :  34.810514087 

-------------------------   ----------------
Dispersion correction           -0.002625235
-------------------------   ----------------


-------------------------   --------------------
FINAL SINGLE POINT ENERGY      -153.538008153189
-------------------------   --------------------



           ************************************************************
           *        Program running with 8 parallel MPI-processes     *
           *              working on a common directory               *
           ************************************************************
------------------------------------------------------------------------------
                         ORCA SCF GRADIENT CALCULATION
------------------------------------------------------------------------------

 ... reading COSX grid (gridx3)
Gradient of the Kohn-Sham DFT energy:
Kohn-Sham wavefunction type      ... RKS
Hartree-Fock exchange scaling    ...    0.250
Number of operators              ...    1
Number of atoms                  ...    7
Basis set dimensions             ...  117
Integral neglect threshold       ... 2.5e-11
Integral primitive cutoff        ... 2.5e-12
SHARK Integral package           ... ON

Nuc. rep. gradient       (SHARK) ... done (  0.0 sec)
HCore & Overlap gradient (SHARK) ... done (  0.0 sec)
RI-J gradient            (SHARK) ... done (  0.1 sec)
COSX-gradient                    ... done (  0.3 sec)
Exchange-correlation gradient    ... done
Dispersion correction            ... done

------------------
CARTESIAN GRADIENT
------------------

   1   O   :   -0.062504084    0.072510327    0.004971240
   2   C   :   -0.012216565   -0.073196740   -0.014473451
   3   C   :    0.112825991   -0.014456709   -0.171733771
   4   H   :   -0.021107651    0.018485660    0.016224877
   5   H   :    0.006056504    0.020852240    0.013095356
   6   H   :   -0.048226288   -0.001590694    0.085772798
   7   H   :    0.025220748   -0.022571251    0.066163200

Difference to translation invariance:
           :    0.0000486544    0.0000328340    0.0000202489

Difference to rotation invariance:
           :    0.0000349940    0.0000561314    0.0000689795

Norm of the cartesian gradient     ...    0.2724679385
RMS gradient                       ...    0.0594573787
MAX gradient                       ...    0.1717337714

-------
TIMINGS
-------

Total SCF gradient time            ...        0.683 sec

One electron gradient       ....       0.010 sec  (  1.4%)
RI-J Coulomb gradient       ....       0.074 sec  ( 10.8%)
COSX gradient               ....       0.305 sec  ( 44.7%)
XC gradient                 ....       0.150 sec  ( 21.9%)

Maximum memory used throughout the entire SCFGRAD-calculation: 35.8 MB

                            ***************************************
                            *     ORCA property calculations      *
                            ***************************************

                                    ---------------------
                                    Active property flags
                                    ---------------------
   (+) Dipole Moment


------------------------------------------------------------------------------
                       ORCA ELECTRIC PROPERTIES CALCULATION
------------------------------------------------------------------------------

Dipole Moment Calculation                       ... on
Quadrupole Moment Calculation                   ... off
Polarizability Calculation                      ... off
GBWName                                         ... ox_gs_D_orca0000.gbw
Electron density                                ... ox_gs_D_orca0000.scfp
The origin for moment calculation is the CENTER OF MASS  = (-0.523365,  0.128352 -0.087500)

-------------
DIPOLE MOMENT
-------------
                                X             Y             Z
Electronic contribution:     -0.43387       1.37124      -0.23946
Nuclear contribution   :      0.97265      -2.67097       0.20811
                        -----------------------------------------
Total Dipole Moment    :      0.53879      -1.29973      -0.03136
                        -----------------------------------------
Magnitude (a.u.)       :      1.40733
Magnitude (Debye)      :      3.57714



--------------------
Rotational spectrum 
--------------------
 
Rotational constants in cm-1:     0.946016     0.404461     0.322648 
Rotational constants in MHz : 28360.844505 12125.450520  9672.747342 

 Dipole components along the rotational axes: 
x,y,z [a.u.] :    -1.288993    -0.564854    -0.002407 
x,y,z [Debye]:    -3.276361    -1.435744    -0.006118 

 

Timings for individual modules:

Sum of individual times         ...        4.226 sec (=   0.070 min)
GTO integral calculation        ...        0.283 sec (=   0.005 min)   6.7 %
SCF iterations                  ...        3.055 sec (=   0.051 min)  72.3 %
SCF Gradient evaluation         ...        0.887 sec (=   0.015 min)  21.0 %
                             ****ORCA TERMINATED NORMALLY****
TOTAL RUN TIME: 0 days 0 hours 0 minutes 4 seconds 536 msec
