
                                 *****************
                                 * O   R   C   A *
                                 *****************

                                            #,                                       
                                            ###                                      
                                            ####                                     
                                            #####                                    
                                            ######                                   
                                           ########,                                 
                                     ,,################,,,,,                         
                               ,,#################################,,                 
                          ,,##########################################,,             
                       ,#########################################, ''#####,          
                    ,#############################################,,   '####,        
                  ,##################################################,,,,####,       
                ,###########''''           ''''###############################       
              ,#####''   ,,,,##########,,,,          '''####'''          '####       
            ,##' ,,,,###########################,,,                        '##       
           ' ,,###''''                  '''############,,,                           
         ,,##''                                '''############,,,,        ,,,,,,###''
      ,#''                                            '''#######################'''  
     '                                                          ''''####''''         
             ,#######,   #######,   ,#######,      ##                                
            ,#'     '#,  ##    ##  ,#'     '#,    #''#        ######   ,####,        
            ##       ##  ##   ,#'  ##            #'  '#       #        #'  '#        
            ##       ##  #######   ##           ,######,      #####,   #    #        
            '#,     ,#'  ##    ##  '#,     ,#' ,#      #,         ##   #,  ,#        
             '#######'   ##     ##  '#######'  #'      '#     #####' # '####'        



                  #######################################################
                  #                        -***-                        #
                  #          Department of theory and spectroscopy      #
                  #    Directorship and core code : Frank Neese         #
                  #        Max Planck Institute fuer Kohlenforschung    #
                  #                Kaiser Wilhelm Platz 1               #
                  #                 D-45470 Muelheim/Ruhr               #
                  #                      Germany                        #
                  #                                                     #
                  #                  All rights reserved                #
                  #                        -***-                        #
                  #######################################################


                         Program Version 5.0.2 -  RELEASE  -


 With contributions from (in alphabetic order):
   Daniel Aravena         : Magnetic Suceptibility
   Michael Atanasov       : Ab Initio Ligand Field Theory (pilot matlab implementation)
   Alexander A. Auer      : GIAO ZORA, VPT2 properties, NMR spectrum
   Ute Becker             : Parallelization
   Giovanni Bistoni       : ED, misc. LED, open-shell LED, HFLD
   Martin Brehm           : Molecular dynamics
   Dmytro Bykov           : SCF Hessian
   Vijay G. Chilkuri      : MRCI spin determinant printing, contributions to CSF-ICE
   Dipayan Datta          : RHF DLPNO-CCSD density
   Achintya Kumar Dutta   : EOM-CC, STEOM-CC
   Dmitry Ganyushin       : Spin-Orbit,Spin-Spin,Magnetic field MRCI
   Miquel Garcia          : C-PCM and meta-GGA Hessian, CC/C-PCM, Gaussian charge scheme
   Yang Guo               : DLPNO-NEVPT2, F12-NEVPT2, CIM, IAO-localization
   Andreas Hansen         : Spin unrestricted coupled pair/coupled cluster methods
   Benjamin Helmich-Paris : MC-RPA, TRAH-SCF, COSX integrals
   Lee Huntington         : MR-EOM, pCC
   Robert Izsak           : Overlap fitted RIJCOSX, COSX-SCS-MP3, EOM
   Marcus Kettner         : VPT2
   Christian Kollmar      : KDIIS, OOCD, Brueckner-CCSD(T), CCSD density, CASPT2, CASPT2-K
   Simone Kossmann        : Meta GGA functionals, TD-DFT gradient, OOMP2, MP2 Hessian
   Martin Krupicka        : Initial AUTO-CI
   Lucas Lang             : DCDCAS
   Marvin Lechner         : AUTO-CI (C++ implementation), FIC-MRCC
   Dagmar Lenk            : GEPOL surface, SMD
   Dimitrios Liakos       : Extrapolation schemes; Compound Job, initial MDCI parallelization
   Dimitrios Manganas     : Further ROCIS development; embedding schemes
   Dimitrios Pantazis     : SARC Basis sets
   Anastasios Papadopoulos: AUTO-CI, single reference methods and gradients
   Taras Petrenko         : DFT Hessian,TD-DFT gradient, ASA, ECA, R-Raman, ABS, FL, XAS/XES, NRVS
   Peter Pinski           : DLPNO-MP2, DLPNO-MP2 Gradient
   Christoph Reimann      : Effective Core Potentials
   Marius Retegan         : Local ZFS, SOC
   Christoph Riplinger    : Optimizer, TS searches, QM/MM, DLPNO-CCSD(T), (RO)-DLPNO pert. Triples
   Tobias Risthaus        : Range-separated hybrids, TD-DFT gradient, RPA, STAB
   Michael Roemelt        : Original ROCIS implementation
   Masaaki Saitow         : Open-shell DLPNO-CCSD energy and density
   Barbara Sandhoefer     : DKH picture change effects
   Avijit Sen             : IP-ROCIS
   Kantharuban Sivalingam : CASSCF convergence, NEVPT2, FIC-MRCI
   Bernardo de Souza      : ESD, SOC TD-DFT
   Georgi Stoychev        : AutoAux, RI-MP2 NMR, DLPNO-MP2 response
   Willem Van den Heuvel  : Paramagnetic NMR
   Boris Wezisla          : Elementary symmetry handling
   Frank Wennmohs         : Technical directorship


 We gratefully acknowledge several colleagues who have allowed us to
 interface, adapt or use parts of their codes:
   Stefan Grimme, W. Hujo, H. Kruse, P. Pracht,  : VdW corrections, initial TS optimization,
                  C. Bannwarth, S. Ehlert          DFT functionals, gCP, sTDA/sTD-DF
   Ed Valeev, F. Pavosevic, A. Kumar             : LibInt (2-el integral package), F12 methods
   Garnet Chan, S. Sharma, J. Yang, R. Olivares  : DMRG
   Ulf Ekstrom                                   : XCFun DFT Library
   Mihaly Kallay                                 : mrcc  (arbitrary order and MRCC methods)
   Jiri Pittner, Ondrej Demel                    : Mk-CCSD
   Frank Weinhold                                : gennbo (NPA and NBO analysis)
   Christopher J. Cramer and Donald G. Truhlar   : smd solvation model
   Lars Goerigk                                  : TD-DFT with DH, B97 family of functionals
   V. Asgeirsson, H. Jonsson                     : NEB implementation
   FAccTs GmbH                                   : IRC, NEB, NEB-TS, DLPNO-Multilevel, CI-OPT
                                                   MM, QMMM, 2- and 3-layer-ONIOM, Crystal-QMMM,
                                                   LR-CPCM, SF, NACMEs, symmetry and pop. for TD-DFT,
                                                   nearIR, NL-DFT gradient (VV10), updates on ESD,
                                                   ML-optimized integration grids
   S Lehtola, MJT Oliveira, MAL Marques          : LibXC Library
   Liviu Ungur et al                             : ANISO software


 Your calculation uses the libint2 library for the computation of 2-el integrals
 For citations please refer to: http://libint.valeyev.net

 Your ORCA version has been built with support for libXC version: 5.1.0
 For citations please refer to: https://tddft.org/programs/libxc/

 This ORCA versions uses:
   CBLAS   interface :  Fast vector & matrix operations
   LAPACKE interface :  Fast linear algebra routines
   SCALAPACK package :  Parallel linear algebra routines
   Shared memory     :  Shared parallel matrices
   BLAS/LAPACK       :  OpenBLAS 0.3.15  USE64BITINT DYNAMIC_ARCH NO_AFFINITY SkylakeX SINGLE_THREADED
        Core in use  :  SkylakeX
   Copyright (c) 2011-2014, The OpenBLAS Project


Your calculation utilizes the atom-pairwise dispersion correction
with the Becke-Johnson damping scheme (D3BJ)
Cite in your paper:
S.Grimme, S.Ehrlich, L.Goerigk, J Comput Chem, (2011), 32, 1456–1465 
S.Grimme, J.Antony, S.Ehrlich and H.Krieg, J.Chem.Phys., 132, (2010), 154104 
   

================================================================================

----- Orbital basis set information -----
Your calculation utilizes the basis: def2-TZVP
   F. Weigend and R. Ahlrichs, Phys. Chem. Chem. Phys. 7, 3297 (2005).

----- AuxJ basis set information -----
Your calculation utilizes the auxiliary basis: def2/J
   F. Weigend, Phys. Chem. Chem. Phys. 8, 1057 (2006).

================================================================================
                                        WARNINGS
                       Please study these warnings very carefully!
================================================================================


INFO   : the flag for use of the SHARK integral package has been found!

================================================================================
                                       INPUT FILE
================================================================================
NAME = ox_gs_A_orca0022.inp
|  1> ! engrad PBE0 D3BJ def2-TZVP  
|  2> %pal nprocs 8 end
|  3> %maxcore 3000
|  4>  
|  5> *xyz 0 1 
|  6> O   -0.03498622539962928 0.7776233055367111 -0.005616292484541491
|  7> C   -0.7399380699766611 -0.41631215499782875 0.03787538550236526
|  8> C   0.7023644826194736 -0.475811402032234 -0.013752584857582201
|  9> H   -1.3789189882367792 -0.7440303631099277 0.9883199333722262
| 10> H   -1.1815743843249358 -0.680722711977819 -0.8911483718472117
| 11> H   1.2793853277271767 -0.5143268195772381 -0.8639974744282711
| 12> H   1.2574269904259616 -0.7160478320300213 0.8396538539871213
| 13> *
| 14> 
| 15>                          ****END OF INPUT****
================================================================================

                     *******************************
                     * Energy+Gradient Calculation *
                     *******************************

---------------------------------
CARTESIAN COORDINATES (ANGSTROEM)
---------------------------------
  O     -0.034986    0.777623   -0.005616
  C     -0.739938   -0.416312    0.037875
  C      0.702364   -0.475811   -0.013753
  H     -1.378919   -0.744030    0.988320
  H     -1.181574   -0.680723   -0.891148
  H      1.279385   -0.514327   -0.863997
  H      1.257427   -0.716048    0.839654

----------------------------
CARTESIAN COORDINATES (A.U.)
----------------------------
  NO LB      ZA    FRAG     MASS         X           Y           Z
   0 O     8.0000    0    15.999   -0.066114    1.469495   -0.010613
   1 C     6.0000    0    12.011   -1.398280   -0.786716    0.071574
   2 C     6.0000    0    12.011    1.327277   -0.899153   -0.025989
   3 H     1.0000    0     1.008   -2.605779   -1.406014    1.867654
   4 H     1.0000    0     1.008   -2.232852   -1.286379   -1.684026
   5 H     1.0000    0     1.008    2.417688   -0.971937   -1.632719
   6 H     1.0000    0     1.008    2.376193   -1.353134    1.586716

--------------------------------
INTERNAL COORDINATES (ANGSTROEM)
--------------------------------
 O      0   0   0     0.000000000000     0.00000000     0.00000000
 C      1   0   0     1.387202405256     0.00000000     0.00000000
 C      2   1   0     1.444452235606    61.76467717     0.00000000
 H      2   1   3     1.191234937535   122.30217010   113.75526025
 H      2   1   3     1.062092612964   113.46288956   256.74401174
 H      3   2   1     1.028276648241   126.25748831   269.92414091
 H      3   2   1     1.045997361245   120.67470952   104.90783949

---------------------------
INTERNAL COORDINATES (A.U.)
---------------------------
 O      0   0   0     0.000000000000     0.00000000     0.00000000
 C      1   0   0     2.621432638251     0.00000000     0.00000000
 C      2   1   0     2.729619138825    61.76467717     0.00000000
 H      2   1   3     2.251107793100   122.30217010   113.75526025
 H      2   1   3     2.007064167364   113.46288956   256.74401174
 H      3   2   1     1.943161255083   126.25748831   269.92414091
 H      3   2   1     1.976648549558   120.67470952   104.90783949

---------------------
BASIS SET INFORMATION
---------------------
There are 3 groups of distinct atoms

 Group   1 Type O   : 11s6p2d1f contracted to 5s3p2d1f pattern {62111/411/11/1}
 Group   2 Type C   : 11s6p2d1f contracted to 5s3p2d1f pattern {62111/411/11/1}
 Group   3 Type H   : 5s1p contracted to 3s1p pattern {311/1}

Atom   0O    basis set group =>   1
Atom   1C    basis set group =>   2
Atom   2C    basis set group =>   2
Atom   3H    basis set group =>   3
Atom   4H    basis set group =>   3
Atom   5H    basis set group =>   3
Atom   6H    basis set group =>   3
---------------------------------
AUXILIARY/J BASIS SET INFORMATION
---------------------------------
There are 3 groups of distinct atoms

 Group   1 Type O   : 12s5p4d2f1g contracted to 6s4p3d1f1g pattern {711111/2111/211/2/1}
 Group   2 Type C   : 12s5p4d2f1g contracted to 6s4p3d1f1g pattern {711111/2111/211/2/1}
 Group   3 Type H   : 5s2p1d contracted to 3s1p1d pattern {311/2/1}

Atom   0O    basis set group =>   1
Atom   1C    basis set group =>   2
Atom   2C    basis set group =>   2
Atom   3H    basis set group =>   3
Atom   4H    basis set group =>   3
Atom   5H    basis set group =>   3
Atom   6H    basis set group =>   3


           ************************************************************
           *        Program running with 8 parallel MPI-processes     *
           *              working on a common directory               *
           ************************************************************
------------------------------------------------------------------------------
                           ORCA GTO INTEGRAL CALCULATION
                           -- RI-GTO INTEGRALS CHOSEN --
------------------------------------------------------------------------------
------------------------------------------------------------------------------
                   ___                                                        
                  /   \      - P O W E R E D   B Y -                         
                 /     \                                                     
                 |  |  |   _    _      __       _____    __    __             
                 |  |  |  | |  | |    /  \     |  _  \  |  |  /  |          
                  \  \/   | |  | |   /    \    | | | |  |  | /  /          
                 / \  \   | |__| |  /  /\  \   | |_| |  |  |/  /          
                |  |  |   |  __  | /  /__\  \  |    /   |      \           
                |  |  |   | |  | | |   __   |  |    \   |  |\   \          
                \     /   | |  | | |  |  |  |  | |\  \  |  | \   \       
                 \___/    |_|  |_| |__|  |__|  |_| \__\ |__|  \__/        
                                                                              
                      - O R C A' S   B I G   F R I E N D -                    
                                      &                                       
                       - I N T E G R A L  F E E D E R -                       
                                                                              
 v1 FN, 2020, v2 2021                                                         
------------------------------------------------------------------------------


Reading SHARK input file ox_gs_A_orca0022.SHARKINP.tmp ... ok
----------------------
SHARK INTEGRAL PACKAGE
----------------------

Number of atoms                             ...      7
Number of basis functions                   ...    117
Number of shells                            ...     49
Maximum angular momentum                    ...      3
Integral batch strategy                     ... SHARK/LIBINT Hybrid
RI-J (if used) integral strategy            ... SPLIT-RIJ (Revised 2003 algorithm where possible)
Printlevel                                  ...      1
Contraction scheme used                     ... SEGMENTED contraction
Coulomb Range Separation                    ... NOT USED
Exchange Range Separation                   ... NOT USED
Finite Nucleus Model                        ... NOT USED
Auxiliary Coulomb fitting basis             ... AVAILABLE
   # of basis functions in Aux-J            ...    191
   # of shells in Aux-J                     ...     65
   Maximum angular momentum in Aux-J        ...      4
Auxiliary J/K fitting basis                 ... NOT available
Auxiliary Correlation fitting basis         ... NOT available
Auxiliary 'external' fitting basis          ... NOT available
Integral threshold                          ...     2.500000e-11
Primitive cut-off                           ...     2.500000e-12
Primitive pair pre-selection threshold      ...     2.500000e-12

Calculating pre-screening integrals         ... done (  0.0 sec) Dimension = 49
Organizing shell pair data                  ... done (  0.0 sec)
Shell pair information
Total number of shell pairs                 ...      1225
Shell pairs after pre-screening             ...      1220
Total number of primitive shell pairs       ...      3648
Primitive shell pairs kept                  ...      3151
          la=0 lb=0:    373 shell pairs
          la=1 lb=0:    351 shell pairs
          la=1 lb=1:     91 shell pairs
          la=2 lb=0:    162 shell pairs
          la=2 lb=1:     78 shell pairs
          la=2 lb=2:     21 shell pairs
          la=3 lb=0:     81 shell pairs
          la=3 lb=1:     39 shell pairs
          la=3 lb=2:     18 shell pairs
          la=3 lb=3:      6 shell pairs

Calculating one electron integrals          ... done (  0.0 sec)
Calculating RI/J V-Matrix + Cholesky decomp.... done (  0.0 sec)
Calculating Nuclear repulsion               ... done (  0.0 sec) ENN=     75.852720798956 Eh

SHARK setup successfully completed in   0.1 seconds

Maximum memory used throughout the entire GTOINT-calculation: 14.9 MB


           ************************************************************
           *        Program running with 8 parallel MPI-processes     *
           *              working on a common directory               *
           ************************************************************
-------------------------------------------------------------------------------
                                 ORCA SCF
-------------------------------------------------------------------------------

------------
SCF SETTINGS
------------
Hamiltonian:
 Density Functional     Method          .... DFT(GTOs)
 Exchange Functional    Exchange        .... PBE
   PBE kappa parameter   XKappa         ....  0.804000
   PBE mue parameter    XMuePBE         ....  0.219520
 Correlation Functional Correlation     .... PBE
   PBE beta parameter  CBetaPBE         ....  0.066725
 LDA part of GGA corr.  LDAOpt          .... PW91-LDA
 Gradients option       PostSCFGGA      .... off
 Hybrid DFT is turned on
   Fraction HF Exchange ScalHFX         ....  0.250000
   Scaling of DF-GGA-X  ScalDFX         ....  0.750000
   Scaling of DF-GGA-C  ScalDFC         ....  1.000000
   Scaling of DF-LDA-C  ScalLDAC        ....  1.000000
   Perturbative correction              ....  0.000000
   Density functional embedding theory  .... OFF
   NL short-range parameter             ....  6.900000
 RI-approximation to the Coulomb term is turned on
   Number of AuxJ basis functions       .... 191
   RIJ-COSX (HFX calculated with COS-X)).... on


General Settings:
 Integral files         IntName         .... ox_gs_A_orca0022
 Hartree-Fock type      HFTyp           .... RHF
 Total Charge           Charge          ....    0
 Multiplicity           Mult            ....    1
 Number of Electrons    NEL             ....   24
 Basis Dimension        Dim             ....  117
 Nuclear Repulsion      ENuc            ....     75.8527207990 Eh

Convergence Acceleration:
 DIIS                   CNVDIIS         .... on
   Start iteration      DIISMaxIt       ....    12
   Startup error        DIISStart       ....  0.200000
   # of expansion vecs  DIISMaxEq       ....     5
   Bias factor          DIISBfac        ....   1.050
   Max. coefficient     DIISMaxC        ....  10.000
 Trust-Rad. Augm. Hess. CNVTRAH         .... auto
   Auto Start mean grad. ratio tolernc. ....  1.125000
   Auto Start start iteration           ....    20
   Auto Start num. interpolation iter.  ....    10
   Max. Number of Micro iterations      ....    16
   Max. Number of Macro iterations      .... Maxiter - #DIIS iter
   Number of Davidson start vectors     ....     2
   Converg. threshold I  (grad. norm)   ....   1.000e-05
   Converg. threshold II (energy diff.) ....   1.000e-08
   Grad. Scal. Fac. for Micro threshold ....   0.100
   Minimum threshold for Micro iter.    ....   0.010
   NR start threshold (gradient norm)   ....   0.001
   Initial trust radius                 ....   0.400
   Minimum AH scaling param. (alpha)    ....   1.000
   Maximum AH scaling param. (alpha)    .... 1000.000
   Orbital update algorithm             .... Taylor
   White noise on init. David. guess    .... on
   Maximum white noise                  ....   0.010
   Quad. conv. algorithm                .... NR
 SOSCF                  CNVSOSCF        .... on
   Start iteration      SOSCFMaxIt      ....   150
   Startup grad/error   SOSCFStart      ....  0.003300
 Level Shifting         CNVShift        .... on
   Level shift para.    LevelShift      ....    0.2500
   Turn off err/grad.   ShiftErr        ....    0.0010
 Zerner damping         CNVZerner       .... off
 Static damping         CNVDamp         .... on
   Fraction old density DampFac         ....    0.7000
   Max. Damping (<1)    DampMax         ....    0.9800
   Min. Damping (>=0)   DampMin         ....    0.0000
   Turn off err/grad.   DampErr         ....    0.1000
 Fernandez-Rico         CNVRico         .... off

SCF Procedure:
 Maximum # iterations   MaxIter         ....   125
 SCF integral mode      SCFMode         .... Direct
   Integral package                     .... SHARK and LIBINT hybrid scheme
 Reset frequency        DirectResetFreq ....    20
 Integral Threshold     Thresh          ....  2.500e-11 Eh
 Primitive CutOff       TCut            ....  2.500e-12 Eh

Convergence Tolerance:
 Convergence Check Mode ConvCheckMode   .... Total+1el-Energy
 Convergence forced     ConvForced      .... 0
 Energy Change          TolE            ....  1.000e-08 Eh
 1-El. energy change                    ....  1.000e-05 Eh
 Orbital Gradient       TolG            ....  1.000e-05
 Orbital Rotation angle TolX            ....  1.000e-05
 DIIS Error             TolErr          ....  5.000e-07


Diagonalization of the overlap matrix:
Smallest eigenvalue                        ... 3.370e-04
Time for diagonalization                   ...    0.001 sec
Threshold for overlap eigenvalues          ... 1.000e-08
Number of eigenvalues below threshold      ... 0
Time for construction of square roots      ...    0.001 sec
Total time needed                          ...    0.003 sec

Time for model grid setup =    0.019 sec

------------------------------
INITIAL GUESS: MODEL POTENTIAL
------------------------------
Loading Hartree-Fock densities                     ... done
Calculating cut-offs                               ... done
Initializing the effective Hamiltonian             ... done
Setting up the integral package (SHARK)            ... done
Starting the Coulomb interaction                   ... done (   0.0 sec)
Reading the grid                                   ... done
Mapping shells                                     ... done
Starting the XC term evaluation                    ... done (   0.0 sec)
  promolecular density results
     # of electrons  =     23.996634952
     EX              =    -19.557983853
     EC              =     -0.784006470
     EX+EC           =    -20.341990323
Transforming the Hamiltonian                       ... done (   0.0 sec)
Diagonalizing the Hamiltonian                      ... done (   0.0 sec)
Back transforming the eigenvectors                 ... done (   0.0 sec)
Now organizing SCF variables                       ... done
                      ------------------
                      INITIAL GUESS DONE (   0.0 sec)
                      ------------------
-------------------
DFT GRID GENERATION
-------------------

General Integration Accuracy     IntAcc      ... 4.388
Radial Grid Type                 RadialGrid  ... OptM3 with GC (2021)
Angular Grid (max. ang.)         AngularGrid ... 4 (Lebedev-302)
Angular grid pruning method      GridPruning ... 4 (adaptive)
Weight generation scheme         WeightScheme... Becke
Basis function cutoff            BFCut       ... 1.0000e-11
Integration weight cutoff        WCut        ... 1.0000e-14
Angular grids for H and He will be reduced by one unit
Partially contracted basis set               ... off
Rotationally invariant grid construction     ... off

Total number of grid points                  ...    31300
Total number of batches                      ...      492
Average number of points per batch           ...       63
Average number of grid points per atom       ...     4471
Time for grid setup =    0.114 sec

--------------------
COSX GRID GENERATION
--------------------

GRIDX 1
-------
General Integration Accuracy     IntAcc      ... 3.816
Radial Grid Type                 RadialGrid  ... OptM3 with GC (2021)
Angular Grid (max. ang.)         AngularGrid ... 1 (Lebedev-50)
Angular grid pruning method      GridPruning ... 4 (adaptive)
Weight generation scheme         WeightScheme... Becke
Basis function cutoff            BFCut       ... 1.0000e-11
Integration weight cutoff        WCut        ... 1.0000e-14
Angular grids for H and He will be reduced by one unit
Partially contracted basis set               ... on
Rotationally invariant grid construction     ... off

Total number of grid points                  ...     4035
Total number of batches                      ...       68
Average number of points per batch           ...       59
Average number of grid points per atom       ...      576
UseSFitting                                  ... on

GRIDX 2
-------
General Integration Accuracy     IntAcc      ... 4.020
Radial Grid Type                 RadialGrid  ... OptM3 with GC (2021)
Angular Grid (max. ang.)         AngularGrid ... 2 (Lebedev-110)
Angular grid pruning method      GridPruning ... 4 (adaptive)
Weight generation scheme         WeightScheme... Becke
Basis function cutoff            BFCut       ... 1.0000e-11
Integration weight cutoff        WCut        ... 1.0000e-14
Angular grids for H and He will be reduced by one unit
Partially contracted basis set               ... on
Rotationally invariant grid construction     ... off

Total number of grid points                  ...     8702
Total number of batches                      ...      140
Average number of points per batch           ...       62
Average number of grid points per atom       ...     1243
UseSFitting                                  ... on

GRIDX 3
-------
General Integration Accuracy     IntAcc      ... 4.338
Radial Grid Type                 RadialGrid  ... OptM3 with GC (2021)
Angular Grid (max. ang.)         AngularGrid ... 3 (Lebedev-194)
Angular grid pruning method      GridPruning ... 4 (adaptive)
Weight generation scheme         WeightScheme... Becke
Basis function cutoff            BFCut       ... 1.0000e-11
Integration weight cutoff        WCut        ... 1.0000e-14
Angular grids for H and He will be reduced by one unit
Partially contracted basis set               ... on
Rotationally invariant grid construction     ... off

Total number of grid points                  ...    19239
Total number of batches                      ...      304
Average number of points per batch           ...       63
Average number of grid points per atom       ...     2748
UseSFitting                                  ... on

Time for X-Grid setup             =    0.073 sec

--------------
SCF ITERATIONS
--------------
ITER       Energy         Delta-E        Max-DP      RMS-DP      [F,P]     Damp
               ***  Starting incremental Fock matrix formation  ***
  0   -153.5917790187   0.000000000000 0.03269464  0.00118289  0.1710934 0.7000
  1   -153.6213992015  -0.029620182818 0.01805439  0.00088734  0.0732500 0.7000
                               ***Turning on DIIS***
  2   -153.6337863017  -0.012387100156 0.02780178  0.00151123  0.0344376 0.0000
  3   -153.6534911987  -0.019704897082 0.01352270  0.00067224  0.0390240 0.0000
  4   -153.6574392744  -0.003948075701 0.00354234  0.00018232  0.0077448 0.0000
  5   -153.6576055870  -0.000166312513 0.00154534  0.00006819  0.0042045 0.0000
                      *** Initiating the SOSCF procedure ***
                           *** Shutting down DIIS ***
                      *** Re-Reading the Fockian *** 
                      *** Removing any level shift *** 
ITER      Energy       Delta-E        Grad      Rot      Max-DP    RMS-DP
  6   -153.65763138  -0.0000257976  0.000112  0.000112  0.001065  0.000032
               *** Restarting incremental Fock matrix formation ***
  7   -153.65762050   0.0000108863  0.000048  0.000068  0.000109  0.000005
  8   -153.65762046   0.0000000353  0.000078  0.000045  0.000071  0.000003
  9   -153.65762054  -0.0000000790  0.000008  0.000014  0.000019  0.000001
 10   -153.65762054   0.0000000011  0.000010  0.000008  0.000012  0.000000
                  ***Gradient check signals convergence***
              ***Rediagonalizing the Fockian in SOSCF/NRSCF***

               *****************************************************
               *                     SUCCESS                       *
               *           SCF CONVERGED AFTER  11 CYCLES          *
               *****************************************************

Old exchange energy                            =     -5.003751873 Eh
New exchange energy                            =     -5.003741348 Eh
Exchange energy change after final integration =      0.000010526 Eh
Total energy after final integration           =   -153.657610018 Eh
Final COS-X integration done in                =     0.281 sec

----------------
TOTAL SCF ENERGY
----------------

Total Energy       :         -153.65761002 Eh           -4181.23614 eV

Components:
Nuclear Repulsion  :           75.85272080 Eh            2064.05747 eV
Electronic Energy  :         -229.51033082 Eh           -6245.29361 eV
One Electron Energy:         -358.31454899 Eh           -9750.23457 eV
Two Electron Energy:          128.80421817 Eh            3504.94096 eV
Max COSX asymmetry :            0.00000332 Eh               0.00009 eV

Virial components:
Potential Energy   :         -306.74623807 Eh           -8346.98949 eV
Kinetic Energy     :          153.08862805 Eh            4165.75335 eV
Virial Ratio       :            2.00371668


DFT components:
N(Alpha)           :       12.000000319232 electrons
N(Beta)            :       12.000000319232 electrons
N(Total)           :       24.000000638463 electrons
E(X)               :      -14.979660037448 Eh       
E(C)               :       -0.791896338191 Eh       
E(XC)              :      -15.771556375639 Eh       
DFET-embed. en.    :        0.000000000000 Eh       

---------------
SCF CONVERGENCE
---------------

  Last Energy change         ...   -2.9450e-09  Tolerance :   1.0000e-08
  Last MAX-Density change    ...    1.3323e-15  Tolerance :   1.0000e-07
  Last RMS-Density change    ...    2.6528e-17  Tolerance :   5.0000e-09
  Last Orbital Gradient      ...    4.1955e-07  Tolerance :   1.0000e-05
  Last Orbital Rotation      ...    8.2981e-07  Tolerance :   1.0000e-05

             **** THE GBW FILE WAS UPDATED (ox_gs_A_orca0022.gbw) ****
             **** DENSITY ox_gs_A_orca0022.scfp WAS UPDATED ****
             **** ENERGY FILE WAS UPDATED (ox_gs_A_orca0022.en.tmp) ****
             **** THE GBW FILE WAS UPDATED (ox_gs_A_orca0022.gbw) ****
             **** DENSITY ox_gs_A_orca0022.scfp WAS UPDATED ****
----------------
ORBITAL ENERGIES
----------------

  NO   OCC          E(Eh)            E(eV) 
   0   2.0000     -19.223795      -523.1060 
   1   2.0000     -10.282092      -279.7900 
   2   2.0000     -10.263265      -279.2776 
   3   2.0000      -1.113757       -30.3069 
   4   2.0000      -0.707294       -19.2465 
   5   2.0000      -0.657812       -17.9000 
   6   2.0000      -0.533526       -14.5180 
   7   2.0000      -0.505771       -13.7627 
   8   2.0000      -0.417570       -11.3626 
   9   2.0000      -0.395330       -10.7575 
  10   2.0000      -0.332929        -9.0595 
  11   2.0000      -0.290424        -7.9028 
  12   0.0000       0.059416         1.6168 
  13   0.0000       0.074010         2.0139 
  14   0.0000       0.086935         2.3656 
  15   0.0000       0.100532         2.7356 
  16   0.0000       0.108621         2.9557 
  17   0.0000       0.154803         4.2124 
  18   0.0000       0.191474         5.2103 
  19   0.0000       0.221136         6.0174 
  20   0.0000       0.267048         7.2667 
  21   0.0000       0.271897         7.3987 
  22   0.0000       0.290340         7.9006 
  23   0.0000       0.334351         9.0982 
  24   0.0000       0.370329        10.0772 
  25   0.0000       0.394461        10.7338 
  26   0.0000       0.406901        11.0723 
  27   0.0000       0.449112        12.2210 
  28   0.0000       0.450971        12.2715 
  29   0.0000       0.463867        12.6225 
  30   0.0000       0.513314        13.9680 
  31   0.0000       0.533198        14.5090 
  32   0.0000       0.544089        14.8054 
  33   0.0000       0.694200        18.8901 
  34   0.0000       0.711963        19.3735 
  35   0.0000       0.732017        19.9192 
  36   0.0000       0.818311        22.2674 
  37   0.0000       0.851499        23.1705 
  38   0.0000       0.895116        24.3573 
  39   0.0000       0.954765        25.9805 
  40   0.0000       1.020198        27.7610 
  41   0.0000       1.032938        28.1077 
  42   0.0000       1.078280        29.3415 
  43   0.0000       1.092228        29.7210 
  44   0.0000       1.166284        31.7362 
  45   0.0000       1.356286        36.9064 
  46   0.0000       1.460091        39.7311 
  47   0.0000       1.485563        40.4242 
  48   0.0000       1.519243        41.3407 
  49   0.0000       1.534458        41.7547 
  50   0.0000       1.574357        42.8404 
  51   0.0000       1.629338        44.3365 
  52   0.0000       1.667471        45.3742 
  53   0.0000       1.718291        46.7571 
  54   0.0000       1.769255        48.1439 
  55   0.0000       1.812945        49.3327 
  56   0.0000       1.825597        49.6770 
  57   0.0000       1.907954        51.9181 
  58   0.0000       1.944031        52.8998 
  59   0.0000       1.994654        54.2773 
  60   0.0000       2.117410        57.6176 
  61   0.0000       2.162419        58.8424 
  62   0.0000       2.172773        59.1242 
  63   0.0000       2.265854        61.6570 
  64   0.0000       2.289893        62.3111 
  65   0.0000       2.399690        65.2989 
  66   0.0000       2.411426        65.6182 
  67   0.0000       2.506222        68.1978 
  68   0.0000       2.574503        70.0558 
  69   0.0000       2.595374        70.6237 
  70   0.0000       2.619876        71.2904 
  71   0.0000       2.656884        72.2975 
  72   0.0000       2.714433        73.8635 
  73   0.0000       2.742681        74.6321 
  74   0.0000       2.786869        75.8346 
  75   0.0000       2.814608        76.5894 
  76   0.0000       2.881492        78.4094 
  77   0.0000       2.951928        80.3260 
  78   0.0000       3.000067        81.6360 
  79   0.0000       3.016250        82.0763 
  80   0.0000       3.038104        82.6710 
  81   0.0000       3.075281        83.6826 
  82   0.0000       3.166367        86.1612 
  83   0.0000       3.250464        88.4496 
  84   0.0000       3.323256        90.4304 
  85   0.0000       3.344989        91.0218 
  86   0.0000       3.372473        91.7697 
  87   0.0000       3.426960        93.2523 
  88   0.0000       3.577846        97.3581 
  89   0.0000       3.613470        98.3275 
  90   0.0000       3.680029       100.1387 
  91   0.0000       3.714906       101.0877 
  92   0.0000       3.943139       107.2983 
  93   0.0000       4.013761       109.2200 
  94   0.0000       4.129333       112.3649 
  95   0.0000       4.187455       113.9464 
  96   0.0000       4.224734       114.9609 
  97   0.0000       4.321040       117.5815 
  98   0.0000       4.489685       122.1705 
  99   0.0000       4.593123       124.9852 
 100   0.0000       4.723436       128.5312 
 101   0.0000       4.845789       131.8606 
 102   0.0000       5.305403       144.3674 
 103   0.0000       5.449649       148.2925 
 104   0.0000       5.705247       155.2477 
 105   0.0000       5.770400       157.0206 
 106   0.0000       5.819055       158.3445 
 107   0.0000       5.910753       160.8398 
 108   0.0000       6.070572       165.1887 
 109   0.0000       6.598510       179.5546 
 110   0.0000       6.635780       180.5687 
 111   0.0000       6.803127       185.1225 
 112   0.0000       6.970786       189.6847 
 113   0.0000       7.176141       195.2727 
 114   0.0000      22.331979       607.6840 
 115   0.0000      22.544002       613.4535 
 116   0.0000      43.874946      1193.8980 

                    ********************************
                    * MULLIKEN POPULATION ANALYSIS *
                    ********************************

-----------------------
MULLIKEN ATOMIC CHARGES
-----------------------
   0 O :   -0.315674
   1 C :   -0.035360
   2 C :   -0.102320
   3 H :    0.111105
   4 H :    0.098518
   5 H :    0.128490
   6 H :    0.115241
Sum of atomic charges:   -0.0000000

--------------------------------
MULLIKEN REDUCED ORBITAL CHARGES
--------------------------------
  0 O s       :     3.856320  s :     3.856320
      pz      :     1.833572  p :     4.413159
      px      :     1.320404
      py      :     1.259184
      dz2     :     0.005844  d :     0.043917
      dxz     :     0.002765
      dyz     :     0.007022
      dx2y2   :     0.012675
      dxy     :     0.015612
      f0      :     0.000269  f :     0.002277
      f+1     :     0.000198
      f-1     :     0.000479
      f+2     :     0.000094
      f-2     :     0.000216
      f+3     :     0.000391
      f-3     :     0.000629
  1 C s       :     3.214269  s :     3.214269
      pz      :     1.023398  p :     2.688408
      px      :     0.901126
      py      :     0.763884
      dz2     :     0.005180  d :     0.120345
      dxz     :     0.026928
      dyz     :     0.034082
      dx2y2   :     0.030430
      dxy     :     0.023725
      f0      :     0.001630  f :     0.012337
      f+1     :     0.001312
      f-1     :     0.000778
      f+2     :     0.001346
      f-2     :     0.001878
      f+3     :     0.002062
      f-3     :     0.003331
  2 C s       :     3.219641  s :     3.219641
      pz      :     1.072024  p :     2.763571
      px      :     0.910622
      py      :     0.780925
      dz2     :     0.005426  d :     0.107691
      dxz     :     0.026696
      dyz     :     0.027281
      dx2y2   :     0.029038
      dxy     :     0.019249
      f0      :     0.001441  f :     0.011417
      f+1     :     0.001348
      f-1     :     0.000575
      f+2     :     0.001464
      f-2     :     0.001565
      f+3     :     0.002143
      f-3     :     0.002882
  3 H s       :     0.871557  s :     0.871557
      pz      :     0.008606  p :     0.017339
      px      :     0.005816
      py      :     0.002917
  4 H s       :     0.879086  s :     0.879086
      pz      :     0.011540  p :     0.022397
      px      :     0.006235
      py      :     0.004621
  5 H s       :     0.848399  s :     0.848399
      pz      :     0.010895  p :     0.023111
      px      :     0.007625
      py      :     0.004592
  6 H s       :     0.862251  s :     0.862251
      pz      :     0.010485  p :     0.022508
      px      :     0.007373
      py      :     0.004650


                     *******************************
                     * LOEWDIN POPULATION ANALYSIS *
                     *******************************

----------------------
LOEWDIN ATOMIC CHARGES
----------------------
   0 O :    0.138400
   1 C :   -0.337957
   2 C :   -0.260970
   3 H :    0.135083
   4 H :    0.111760
   5 H :    0.105545
   6 H :    0.108139

-------------------------------
LOEWDIN REDUCED ORBITAL CHARGES
-------------------------------
  0 O s       :     3.376414  s :     3.376414
      pz      :     1.713514  p :     4.382913
      px      :     1.302428
      py      :     1.366971
      dz2     :     0.011748  d :     0.095287
      dxz     :     0.008255
      dyz     :     0.015741
      dx2y2   :     0.033884
      dxy     :     0.025659
      f0      :     0.000677  f :     0.006986
      f+1     :     0.000257
      f-1     :     0.000938
      f+2     :     0.000187
      f-2     :     0.000990
      f+3     :     0.001226
      f-3     :     0.002712
  1 C s       :     2.820297  s :     2.820297
      pz      :     1.037913  p :     2.912487
      px      :     1.037656
      py      :     0.836917
      dz2     :     0.054459  d :     0.523261
      dxz     :     0.134774
      dyz     :     0.104706
      dx2y2   :     0.115911
      dxy     :     0.113411
      f0      :     0.011457  f :     0.081912
      f+1     :     0.005861
      f-1     :     0.006334
      f+2     :     0.008972
      f-2     :     0.008485
      f+3     :     0.016298
      f-3     :     0.024503
  2 C s       :     2.805482  s :     2.805482
      pz      :     1.067581  p :     2.923437
      px      :     1.034477
      py      :     0.821379
      dz2     :     0.049404  d :     0.461514
      dxz     :     0.143038
      dyz     :     0.071455
      dx2y2   :     0.104443
      dxy     :     0.093174
      f0      :     0.008600  f :     0.070537
      f+1     :     0.006206
      f-1     :     0.005817
      f+2     :     0.009186
      f-2     :     0.006131
      f+3     :     0.014451
      f-3     :     0.020147
  3 H s       :     0.818030  s :     0.818030
      pz      :     0.024694  p :     0.046886
      px      :     0.014129
      py      :     0.008064
  4 H s       :     0.822834  s :     0.822834
      pz      :     0.034906  p :     0.065406
      px      :     0.016893
      py      :     0.013607
  5 H s       :     0.822618  s :     0.822618
      pz      :     0.035036  p :     0.071837
      px      :     0.022009
      py      :     0.014792
  6 H s       :     0.823889  s :     0.823889
      pz      :     0.033097  p :     0.067972
      px      :     0.020566
      py      :     0.014310


                      *****************************
                      * MAYER POPULATION ANALYSIS *
                      *****************************

  NA   - Mulliken gross atomic population
  ZA   - Total nuclear charge
  QA   - Mulliken gross atomic charge
  VA   - Mayer's total valence
  BVA  - Mayer's bonded valence
  FA   - Mayer's free valence

  ATOM       NA         ZA         QA         VA         BVA        FA
  0 O      8.3157     8.0000    -0.3157     2.0043     2.0043    -0.0000
  1 C      6.0354     6.0000    -0.0354     3.9864     3.9864     0.0000
  2 C      6.1023     6.0000    -0.1023     3.9669     3.9669    -0.0000
  3 H      0.8889     1.0000     0.1111     0.9594     0.9594     0.0000
  4 H      0.9015     1.0000     0.0985     0.9545     0.9545     0.0000
  5 H      0.8715     1.0000     0.1285     0.9664     0.9664     0.0000
  6 H      0.8848     1.0000     0.1152     0.9611     0.9611     0.0000

  Mayer bond orders larger than 0.100000
B(  0-O ,  1-C ) :   1.0243 B(  0-O ,  2-C ) :   0.9531 B(  1-C ,  2-C ) :   1.0692 
B(  1-C ,  3-H ) :   0.9324 B(  1-C ,  4-H ) :   0.9513 B(  2-C ,  5-H ) :   0.9679 
B(  2-C ,  6-H ) :   0.9578 

-------
TIMINGS
-------

Total SCF time: 0 days 0 hours 0 min 2 sec 

Total time                  ....       2.630 sec
Sum of individual times     ....       2.442 sec  ( 92.9%)

Fock matrix formation       ....       2.173 sec  ( 82.6%)
  Split-RI-J                ....       0.241 sec  ( 11.1% of F)
  Chain of spheres X        ....       1.490 sec  ( 68.6% of F)
  XC integration            ....       0.419 sec  ( 19.3% of F)
    Basis function eval.    ....       0.108 sec  ( 25.7% of XC)
    Density eval.           ....       0.087 sec  ( 20.8% of XC)
    XC-Functional eval.     ....       0.024 sec  (  5.6% of XC)
    XC-Potential eval.      ....       0.147 sec  ( 35.1% of XC)
Diagonalization             ....       0.016 sec  (  0.6%)
Density matrix formation    ....       0.002 sec  (  0.1%)
Population analysis         ....       0.003 sec  (  0.1%)
Initial guess               ....       0.017 sec  (  0.6%)
Orbital Transformation      ....       0.000 sec  (  0.0%)
Orbital Orthonormalization  ....       0.000 sec  (  0.0%)
DIIS solution               ....       0.013 sec  (  0.5%)
SOSCF solution              ....       0.012 sec  (  0.4%)
Grid generation             ....       0.207 sec  (  7.9%)

Maximum memory used throughout the entire SCF-calculation: 61.1 MB


-------------------------------------------------------------------------------
                          DFT DISPERSION CORRECTION                            
                                                                               
                              DFTD3 V3.1  Rev 1                                
                          USING Becke-Johnson damping                          
-------------------------------------------------------------------------------
The PBE0 functional is recognized
Active option DFTDOPT                   ...         4   

molecular C6(AA) [au] = 351.014358 


            DFT-D V3
 parameters
 s6 scaling factor         :     1.0000 
 a1 scaling factor         :     0.4145 
 s8 scaling factor         :     1.2177 
 a2 scaling factor         :     4.8593 
 ad hoc parameters k1-k3   :    16.0000     1.3333    -4.0000 

 Edisp/kcal,au: -1.510609966091  -0.002407309957 
 E6   /kcal   :  -0.990555964 
 E8   /kcal   :  -0.520054003 
 % E8         :  34.426755699 

-------------------------   ----------------
Dispersion correction           -0.002407310
-------------------------   ----------------


-------------------------   --------------------
FINAL SINGLE POINT ENERGY      -153.660017328144
-------------------------   --------------------



           ************************************************************
           *        Program running with 8 parallel MPI-processes     *
           *              working on a common directory               *
           ************************************************************
------------------------------------------------------------------------------
                         ORCA SCF GRADIENT CALCULATION
------------------------------------------------------------------------------

 ... reading COSX grid (gridx3)
Gradient of the Kohn-Sham DFT energy:
Kohn-Sham wavefunction type      ... RKS
Hartree-Fock exchange scaling    ...    0.250
Number of operators              ...    1
Number of atoms                  ...    7
Basis set dimensions             ...  117
Integral neglect threshold       ... 2.5e-11
Integral primitive cutoff        ... 2.5e-12
SHARK Integral package           ... ON

Nuc. rep. gradient       (SHARK) ... done (  0.0 sec)
HCore & Overlap gradient (SHARK) ... done (  0.0 sec)
RI-J gradient            (SHARK) ... done (  0.1 sec)
COSX-gradient                    ... done (  0.3 sec)
Exchange-correlation gradient    ... done
Dispersion correction            ... done

------------------
CARTESIAN GRADIENT
------------------

   1   O   :   -0.005274995    0.001055856   -0.018381631
   2   C   :    0.025552777    0.027330725   -0.023572999
   3   C   :    0.019807199   -0.028848905   -0.021269040
   4   H   :   -0.031909125   -0.018601643    0.036351641
   5   H   :    0.019290960    0.002509957    0.013286582
   6   H   :   -0.015480362    0.015046494    0.044291337
   7   H   :   -0.011994608    0.001275068   -0.030795962

Difference to translation invariance:
           :   -0.0000081545   -0.0002324476   -0.0000900721

Difference to rotation invariance:
           :   -0.0001050579    0.0000702703    0.0000372948

Norm of the cartesian gradient     ...    0.1037384148
RMS gradient                       ...    0.0226375780
MAX gradient                       ...    0.0442913368

-------
TIMINGS
-------

Total SCF gradient time            ...        0.712 sec

One electron gradient       ....       0.009 sec  (  1.3%)
RI-J Coulomb gradient       ....       0.074 sec  ( 10.5%)
COSX gradient               ....       0.320 sec  ( 45.0%)
XC gradient                 ....       0.165 sec  ( 23.2%)

Maximum memory used throughout the entire SCFGRAD-calculation: 35.9 MB

                            ***************************************
                            *     ORCA property calculations      *
                            ***************************************

                                    ---------------------
                                    Active property flags
                                    ---------------------
   (+) Dipole Moment


------------------------------------------------------------------------------
                       ORCA ELECTRIC PROPERTIES CALCULATION
------------------------------------------------------------------------------

Dipole Moment Calculation                       ... on
Quadrupole Moment Calculation                   ... off
Polarizability Calculation                      ... off
GBWName                                         ... ox_gs_A_orca0022.gbw
Electron density                                ... ox_gs_A_orca0022.scfp
The origin for moment calculation is the CENTER OF MASS  = (-0.044394, -0.040772  0.011723)

-------------
DIPOLE MOMENT
-------------
                                X             Y             Z
Electronic contribution:     -0.00125       1.66999      -0.05203
Nuclear contribution   :      0.06577      -2.39819       0.04487
                        -----------------------------------------
Total Dipole Moment    :      0.06453      -0.72820      -0.00716
                        -----------------------------------------
Magnitude (a.u.)       :      0.73109
Magnitude (Debye)      :      1.85829



--------------------
Rotational spectrum 
--------------------
 
Rotational constants in cm-1:     0.868416     0.752919     0.476380 
Rotational constants in MHz : 26034.453186 22571.931460 14281.519196 

 Dipole components along the rotational axes: 
x,y,z [a.u.] :     0.181125     0.707623    -0.030988 
x,y,z [Debye]:     0.460383     1.798635    -0.078766 

 

Timings for individual modules:

Sum of individual times         ...        4.142 sec (=   0.069 min)
GTO integral calculation        ...        0.383 sec (=   0.006 min)   9.2 %
SCF iterations                  ...        2.821 sec (=   0.047 min)  68.1 %
SCF Gradient evaluation         ...        0.937 sec (=   0.016 min)  22.6 %
                             ****ORCA TERMINATED NORMALLY****
TOTAL RUN TIME: 0 days 0 hours 0 minutes 4 seconds 431 msec
