
                                 *****************
                                 * O   R   C   A *
                                 *****************

                                            #,                                       
                                            ###                                      
                                            ####                                     
                                            #####                                    
                                            ######                                   
                                           ########,                                 
                                     ,,################,,,,,                         
                               ,,#################################,,                 
                          ,,##########################################,,             
                       ,#########################################, ''#####,          
                    ,#############################################,,   '####,        
                  ,##################################################,,,,####,       
                ,###########''''           ''''###############################       
              ,#####''   ,,,,##########,,,,          '''####'''          '####       
            ,##' ,,,,###########################,,,                        '##       
           ' ,,###''''                  '''############,,,                           
         ,,##''                                '''############,,,,        ,,,,,,###''
      ,#''                                            '''#######################'''  
     '                                                          ''''####''''         
             ,#######,   #######,   ,#######,      ##                                
            ,#'     '#,  ##    ##  ,#'     '#,    #''#        ######   ,####,        
            ##       ##  ##   ,#'  ##            #'  '#       #        #'  '#        
            ##       ##  #######   ##           ,######,      #####,   #    #        
            '#,     ,#'  ##    ##  '#,     ,#' ,#      #,         ##   #,  ,#        
             '#######'   ##     ##  '#######'  #'      '#     #####' # '####'        



                  #######################################################
                  #                        -***-                        #
                  #          Department of theory and spectroscopy      #
                  #    Directorship and core code : Frank Neese         #
                  #        Max Planck Institute fuer Kohlenforschung    #
                  #                Kaiser Wilhelm Platz 1               #
                  #                 D-45470 Muelheim/Ruhr               #
                  #                      Germany                        #
                  #                                                     #
                  #                  All rights reserved                #
                  #                        -***-                        #
                  #######################################################


                         Program Version 5.0.2 -  RELEASE  -


 With contributions from (in alphabetic order):
   Daniel Aravena         : Magnetic Suceptibility
   Michael Atanasov       : Ab Initio Ligand Field Theory (pilot matlab implementation)
   Alexander A. Auer      : GIAO ZORA, VPT2 properties, NMR spectrum
   Ute Becker             : Parallelization
   Giovanni Bistoni       : ED, misc. LED, open-shell LED, HFLD
   Martin Brehm           : Molecular dynamics
   Dmytro Bykov           : SCF Hessian
   Vijay G. Chilkuri      : MRCI spin determinant printing, contributions to CSF-ICE
   Dipayan Datta          : RHF DLPNO-CCSD density
   Achintya Kumar Dutta   : EOM-CC, STEOM-CC
   Dmitry Ganyushin       : Spin-Orbit,Spin-Spin,Magnetic field MRCI
   Miquel Garcia          : C-PCM and meta-GGA Hessian, CC/C-PCM, Gaussian charge scheme
   Yang Guo               : DLPNO-NEVPT2, F12-NEVPT2, CIM, IAO-localization
   Andreas Hansen         : Spin unrestricted coupled pair/coupled cluster methods
   Benjamin Helmich-Paris : MC-RPA, TRAH-SCF, COSX integrals
   Lee Huntington         : MR-EOM, pCC
   Robert Izsak           : Overlap fitted RIJCOSX, COSX-SCS-MP3, EOM
   Marcus Kettner         : VPT2
   Christian Kollmar      : KDIIS, OOCD, Brueckner-CCSD(T), CCSD density, CASPT2, CASPT2-K
   Simone Kossmann        : Meta GGA functionals, TD-DFT gradient, OOMP2, MP2 Hessian
   Martin Krupicka        : Initial AUTO-CI
   Lucas Lang             : DCDCAS
   Marvin Lechner         : AUTO-CI (C++ implementation), FIC-MRCC
   Dagmar Lenk            : GEPOL surface, SMD
   Dimitrios Liakos       : Extrapolation schemes; Compound Job, initial MDCI parallelization
   Dimitrios Manganas     : Further ROCIS development; embedding schemes
   Dimitrios Pantazis     : SARC Basis sets
   Anastasios Papadopoulos: AUTO-CI, single reference methods and gradients
   Taras Petrenko         : DFT Hessian,TD-DFT gradient, ASA, ECA, R-Raman, ABS, FL, XAS/XES, NRVS
   Peter Pinski           : DLPNO-MP2, DLPNO-MP2 Gradient
   Christoph Reimann      : Effective Core Potentials
   Marius Retegan         : Local ZFS, SOC
   Christoph Riplinger    : Optimizer, TS searches, QM/MM, DLPNO-CCSD(T), (RO)-DLPNO pert. Triples
   Tobias Risthaus        : Range-separated hybrids, TD-DFT gradient, RPA, STAB
   Michael Roemelt        : Original ROCIS implementation
   Masaaki Saitow         : Open-shell DLPNO-CCSD energy and density
   Barbara Sandhoefer     : DKH picture change effects
   Avijit Sen             : IP-ROCIS
   Kantharuban Sivalingam : CASSCF convergence, NEVPT2, FIC-MRCI
   Bernardo de Souza      : ESD, SOC TD-DFT
   Georgi Stoychev        : AutoAux, RI-MP2 NMR, DLPNO-MP2 response
   Willem Van den Heuvel  : Paramagnetic NMR
   Boris Wezisla          : Elementary symmetry handling
   Frank Wennmohs         : Technical directorship


 We gratefully acknowledge several colleagues who have allowed us to
 interface, adapt or use parts of their codes:
   Stefan Grimme, W. Hujo, H. Kruse, P. Pracht,  : VdW corrections, initial TS optimization,
                  C. Bannwarth, S. Ehlert          DFT functionals, gCP, sTDA/sTD-DF
   Ed Valeev, F. Pavosevic, A. Kumar             : LibInt (2-el integral package), F12 methods
   Garnet Chan, S. Sharma, J. Yang, R. Olivares  : DMRG
   Ulf Ekstrom                                   : XCFun DFT Library
   Mihaly Kallay                                 : mrcc  (arbitrary order and MRCC methods)
   Jiri Pittner, Ondrej Demel                    : Mk-CCSD
   Frank Weinhold                                : gennbo (NPA and NBO analysis)
   Christopher J. Cramer and Donald G. Truhlar   : smd solvation model
   Lars Goerigk                                  : TD-DFT with DH, B97 family of functionals
   V. Asgeirsson, H. Jonsson                     : NEB implementation
   FAccTs GmbH                                   : IRC, NEB, NEB-TS, DLPNO-Multilevel, CI-OPT
                                                   MM, QMMM, 2- and 3-layer-ONIOM, Crystal-QMMM,
                                                   LR-CPCM, SF, NACMEs, symmetry and pop. for TD-DFT,
                                                   nearIR, NL-DFT gradient (VV10), updates on ESD,
                                                   ML-optimized integration grids
   S Lehtola, MJT Oliveira, MAL Marques          : LibXC Library
   Liviu Ungur et al                             : ANISO software


 Your calculation uses the libint2 library for the computation of 2-el integrals
 For citations please refer to: http://libint.valeyev.net

 Your ORCA version has been built with support for libXC version: 5.1.0
 For citations please refer to: https://tddft.org/programs/libxc/

 This ORCA versions uses:
   CBLAS   interface :  Fast vector & matrix operations
   LAPACKE interface :  Fast linear algebra routines
   SCALAPACK package :  Parallel linear algebra routines
   Shared memory     :  Shared parallel matrices
   BLAS/LAPACK       :  OpenBLAS 0.3.15  USE64BITINT DYNAMIC_ARCH NO_AFFINITY SkylakeX SINGLE_THREADED
        Core in use  :  SkylakeX
   Copyright (c) 2011-2014, The OpenBLAS Project


Your calculation utilizes the atom-pairwise dispersion correction
with the Becke-Johnson damping scheme (D3BJ)
Cite in your paper:
S.Grimme, S.Ehrlich, L.Goerigk, J Comput Chem, (2011), 32, 1456–1465 
S.Grimme, J.Antony, S.Ehrlich and H.Krieg, J.Chem.Phys., 132, (2010), 154104 
   

================================================================================

----- Orbital basis set information -----
Your calculation utilizes the basis: def2-TZVP
   F. Weigend and R. Ahlrichs, Phys. Chem. Chem. Phys. 7, 3297 (2005).

----- AuxJ basis set information -----
Your calculation utilizes the auxiliary basis: def2/J
   F. Weigend, Phys. Chem. Chem. Phys. 8, 1057 (2006).

================================================================================
                                        WARNINGS
                       Please study these warnings very carefully!
================================================================================


INFO   : the flag for use of the SHARK integral package has been found!

================================================================================
                                       INPUT FILE
================================================================================
NAME = ox_gs_A_orca0046.inp
|  1> ! engrad PBE0 D3BJ def2-TZVP  
|  2> %pal nprocs 8 end
|  3> %maxcore 3000
|  4>  
|  5> *xyz 0 1 
|  6> O   -0.03381956510296349 0.8569713316455408 -0.0020077875322171705
|  7> C   -0.8004283451059024 -0.44061526925446054 -0.03405258287374404
|  8> C   0.7709217174494362 -0.47965168896511956 -0.022309171660738987
|  9> H   -1.3582999665472764 -0.6908861259624538 0.7987822536685522
| 10> H   -1.3430179111742861 -0.6302501771927852 -0.8806862120674583
| 11> H   1.285095698089248 -0.7166196671564606 -0.922361787807099
| 12> H   1.2636427430454715 -0.7261890444596272 0.9951460850883576
| 13> *
| 14> 
| 15>                          ****END OF INPUT****
================================================================================

                     *******************************
                     * Energy+Gradient Calculation *
                     *******************************

---------------------------------
CARTESIAN COORDINATES (ANGSTROEM)
---------------------------------
  O     -0.033820    0.856971   -0.002008
  C     -0.800428   -0.440615   -0.034053
  C      0.770922   -0.479652   -0.022309
  H     -1.358300   -0.690886    0.798782
  H     -1.343018   -0.630250   -0.880686
  H      1.285096   -0.716620   -0.922362
  H      1.263643   -0.726189    0.995146

----------------------------
CARTESIAN COORDINATES (A.U.)
----------------------------
  NO LB      ZA    FRAG     MASS         X           Y           Z
   0 O     8.0000    0    15.999   -0.063910    1.619441   -0.003794
   1 C     6.0000    0    12.011   -1.512590   -0.832642   -0.064350
   2 C     6.0000    0    12.011    1.456831   -0.906410   -0.042158
   3 H     1.0000    0     1.008   -2.566815   -1.305586    1.509480
   4 H     1.0000    0     1.008   -2.537936   -1.191000   -1.664256
   5 H     1.0000    0     1.008    2.428479   -1.354215   -1.743011
   6 H     1.0000    0     1.008    2.387939   -1.372298    1.880554

--------------------------------
INTERNAL COORDINATES (ANGSTROEM)
--------------------------------
 O      0   0   0     0.000000000000     0.00000000     0.00000000
 C      1   0   0     1.507463723385     0.00000000     0.00000000
 C      1   2   0     1.560314640471    61.61692362     0.00000000
 H      2   1   3     1.033184452402   117.77246182   112.90463804
 H      2   1   3     1.023305104843   116.53524902   246.30417390
 H      3   1   2     1.063307771479   116.82854410   108.61668303
 H      3   1   2     1.157052235729   112.99904115   252.94109155

---------------------------
INTERNAL COORDINATES (A.U.)
---------------------------
 O      0   0   0     0.000000000000     0.00000000     0.00000000
 C      1   0   0     2.848693594019     0.00000000     0.00000000
 C      1   2   0     2.948567353238    61.61692362     0.00000000
 H      2   1   3     1.952435660865   117.77246182   112.90463804
 H      2   1   3     1.933766399596   116.53524902   246.30417390
 H      3   1   2     2.009360484165   116.82854410   108.61668303
 H      3   1   2     2.186511848169   112.99904115   252.94109155

---------------------
BASIS SET INFORMATION
---------------------
There are 3 groups of distinct atoms

 Group   1 Type O   : 11s6p2d1f contracted to 5s3p2d1f pattern {62111/411/11/1}
 Group   2 Type C   : 11s6p2d1f contracted to 5s3p2d1f pattern {62111/411/11/1}
 Group   3 Type H   : 5s1p contracted to 3s1p pattern {311/1}

Atom   0O    basis set group =>   1
Atom   1C    basis set group =>   2
Atom   2C    basis set group =>   2
Atom   3H    basis set group =>   3
Atom   4H    basis set group =>   3
Atom   5H    basis set group =>   3
Atom   6H    basis set group =>   3
---------------------------------
AUXILIARY/J BASIS SET INFORMATION
---------------------------------
There are 3 groups of distinct atoms

 Group   1 Type O   : 12s5p4d2f1g contracted to 6s4p3d1f1g pattern {711111/2111/211/2/1}
 Group   2 Type C   : 12s5p4d2f1g contracted to 6s4p3d1f1g pattern {711111/2111/211/2/1}
 Group   3 Type H   : 5s2p1d contracted to 3s1p1d pattern {311/2/1}

Atom   0O    basis set group =>   1
Atom   1C    basis set group =>   2
Atom   2C    basis set group =>   2
Atom   3H    basis set group =>   3
Atom   4H    basis set group =>   3
Atom   5H    basis set group =>   3
Atom   6H    basis set group =>   3


           ************************************************************
           *        Program running with 8 parallel MPI-processes     *
           *              working on a common directory               *
           ************************************************************
------------------------------------------------------------------------------
                           ORCA GTO INTEGRAL CALCULATION
                           -- RI-GTO INTEGRALS CHOSEN --
------------------------------------------------------------------------------
------------------------------------------------------------------------------
                   ___                                                        
                  /   \      - P O W E R E D   B Y -                         
                 /     \                                                     
                 |  |  |   _    _      __       _____    __    __             
                 |  |  |  | |  | |    /  \     |  _  \  |  |  /  |          
                  \  \/   | |  | |   /    \    | | | |  |  | /  /          
                 / \  \   | |__| |  /  /\  \   | |_| |  |  |/  /          
                |  |  |   |  __  | /  /__\  \  |    /   |      \           
                |  |  |   | |  | | |   __   |  |    \   |  |\   \          
                \     /   | |  | | |  |  |  |  | |\  \  |  | \   \       
                 \___/    |_|  |_| |__|  |__|  |_| \__\ |__|  \__/        
                                                                              
                      - O R C A' S   B I G   F R I E N D -                    
                                      &                                       
                       - I N T E G R A L  F E E D E R -                       
                                                                              
 v1 FN, 2020, v2 2021                                                         
------------------------------------------------------------------------------


Reading SHARK input file ox_gs_A_orca0046.SHARKINP.tmp ... ok
----------------------
SHARK INTEGRAL PACKAGE
----------------------

Number of atoms                             ...      7
Number of basis functions                   ...    117
Number of shells                            ...     49
Maximum angular momentum                    ...      3
Integral batch strategy                     ... SHARK/LIBINT Hybrid
RI-J (if used) integral strategy            ... SPLIT-RIJ (Revised 2003 algorithm where possible)
Printlevel                                  ...      1
Contraction scheme used                     ... SEGMENTED contraction
Coulomb Range Separation                    ... NOT USED
Exchange Range Separation                   ... NOT USED
Finite Nucleus Model                        ... NOT USED
Auxiliary Coulomb fitting basis             ... AVAILABLE
   # of basis functions in Aux-J            ...    191
   # of shells in Aux-J                     ...     65
   Maximum angular momentum in Aux-J        ...      4
Auxiliary J/K fitting basis                 ... NOT available
Auxiliary Correlation fitting basis         ... NOT available
Auxiliary 'external' fitting basis          ... NOT available
Integral threshold                          ...     2.500000e-11
Primitive cut-off                           ...     2.500000e-12
Primitive pair pre-selection threshold      ...     2.500000e-12

Calculating pre-screening integrals         ... done (  0.0 sec) Dimension = 49
Organizing shell pair data                  ... done (  0.0 sec)
Shell pair information
Total number of shell pairs                 ...      1225
Shell pairs after pre-screening             ...      1220
Total number of primitive shell pairs       ...      3648
Primitive shell pairs kept                  ...      3134
          la=0 lb=0:    373 shell pairs
          la=1 lb=0:    351 shell pairs
          la=1 lb=1:     91 shell pairs
          la=2 lb=0:    162 shell pairs
          la=2 lb=1:     78 shell pairs
          la=2 lb=2:     21 shell pairs
          la=3 lb=0:     81 shell pairs
          la=3 lb=1:     39 shell pairs
          la=3 lb=2:     18 shell pairs
          la=3 lb=3:      6 shell pairs

Calculating one electron integrals          ... done (  0.0 sec)
Calculating RI/J V-Matrix + Cholesky decomp.... done (  0.0 sec)
Calculating Nuclear repulsion               ... done (  0.0 sec) ENN=     71.638653225865 Eh

SHARK setup successfully completed in   0.1 seconds

Maximum memory used throughout the entire GTOINT-calculation: 14.9 MB


           ************************************************************
           *        Program running with 8 parallel MPI-processes     *
           *              working on a common directory               *
           ************************************************************
-------------------------------------------------------------------------------
                                 ORCA SCF
-------------------------------------------------------------------------------

------------
SCF SETTINGS
------------
Hamiltonian:
 Density Functional     Method          .... DFT(GTOs)
 Exchange Functional    Exchange        .... PBE
   PBE kappa parameter   XKappa         ....  0.804000
   PBE mue parameter    XMuePBE         ....  0.219520
 Correlation Functional Correlation     .... PBE
   PBE beta parameter  CBetaPBE         ....  0.066725
 LDA part of GGA corr.  LDAOpt          .... PW91-LDA
 Gradients option       PostSCFGGA      .... off
 Hybrid DFT is turned on
   Fraction HF Exchange ScalHFX         ....  0.250000
   Scaling of DF-GGA-X  ScalDFX         ....  0.750000
   Scaling of DF-GGA-C  ScalDFC         ....  1.000000
   Scaling of DF-LDA-C  ScalLDAC        ....  1.000000
   Perturbative correction              ....  0.000000
   Density functional embedding theory  .... OFF
   NL short-range parameter             ....  6.900000
 RI-approximation to the Coulomb term is turned on
   Number of AuxJ basis functions       .... 191
   RIJ-COSX (HFX calculated with COS-X)).... on


General Settings:
 Integral files         IntName         .... ox_gs_A_orca0046
 Hartree-Fock type      HFTyp           .... RHF
 Total Charge           Charge          ....    0
 Multiplicity           Mult            ....    1
 Number of Electrons    NEL             ....   24
 Basis Dimension        Dim             ....  117
 Nuclear Repulsion      ENuc            ....     71.6386532259 Eh

Convergence Acceleration:
 DIIS                   CNVDIIS         .... on
   Start iteration      DIISMaxIt       ....    12
   Startup error        DIISStart       ....  0.200000
   # of expansion vecs  DIISMaxEq       ....     5
   Bias factor          DIISBfac        ....   1.050
   Max. coefficient     DIISMaxC        ....  10.000
 Trust-Rad. Augm. Hess. CNVTRAH         .... auto
   Auto Start mean grad. ratio tolernc. ....  1.125000
   Auto Start start iteration           ....    20
   Auto Start num. interpolation iter.  ....    10
   Max. Number of Micro iterations      ....    16
   Max. Number of Macro iterations      .... Maxiter - #DIIS iter
   Number of Davidson start vectors     ....     2
   Converg. threshold I  (grad. norm)   ....   1.000e-05
   Converg. threshold II (energy diff.) ....   1.000e-08
   Grad. Scal. Fac. for Micro threshold ....   0.100
   Minimum threshold for Micro iter.    ....   0.010
   NR start threshold (gradient norm)   ....   0.001
   Initial trust radius                 ....   0.400
   Minimum AH scaling param. (alpha)    ....   1.000
   Maximum AH scaling param. (alpha)    .... 1000.000
   Orbital update algorithm             .... Taylor
   White noise on init. David. guess    .... on
   Maximum white noise                  ....   0.010
   Quad. conv. algorithm                .... NR
 SOSCF                  CNVSOSCF        .... on
   Start iteration      SOSCFMaxIt      ....   150
   Startup grad/error   SOSCFStart      ....  0.003300
 Level Shifting         CNVShift        .... on
   Level shift para.    LevelShift      ....    0.2500
   Turn off err/grad.   ShiftErr        ....    0.0010
 Zerner damping         CNVZerner       .... off
 Static damping         CNVDamp         .... on
   Fraction old density DampFac         ....    0.7000
   Max. Damping (<1)    DampMax         ....    0.9800
   Min. Damping (>=0)   DampMin         ....    0.0000
   Turn off err/grad.   DampErr         ....    0.1000
 Fernandez-Rico         CNVRico         .... off

SCF Procedure:
 Maximum # iterations   MaxIter         ....   125
 SCF integral mode      SCFMode         .... Direct
   Integral package                     .... SHARK and LIBINT hybrid scheme
 Reset frequency        DirectResetFreq ....    20
 Integral Threshold     Thresh          ....  2.500e-11 Eh
 Primitive CutOff       TCut            ....  2.500e-12 Eh

Convergence Tolerance:
 Convergence Check Mode ConvCheckMode   .... Total+1el-Energy
 Convergence forced     ConvForced      .... 0
 Energy Change          TolE            ....  1.000e-08 Eh
 1-El. energy change                    ....  1.000e-05 Eh
 Orbital Gradient       TolG            ....  1.000e-05
 Orbital Rotation angle TolX            ....  1.000e-05
 DIIS Error             TolErr          ....  5.000e-07


Diagonalization of the overlap matrix:
Smallest eigenvalue                        ... 8.092e-04
Time for diagonalization                   ...    0.001 sec
Threshold for overlap eigenvalues          ... 1.000e-08
Number of eigenvalues below threshold      ... 0
Time for construction of square roots      ...    0.001 sec
Total time needed                          ...    0.003 sec

Time for model grid setup =    0.023 sec

------------------------------
INITIAL GUESS: MODEL POTENTIAL
------------------------------
Loading Hartree-Fock densities                     ... done
Calculating cut-offs                               ... done
Initializing the effective Hamiltonian             ... done
Setting up the integral package (SHARK)            ... done
Starting the Coulomb interaction                   ... done (   0.0 sec)
Reading the grid                                   ... done
Mapping shells                                     ... done
Starting the XC term evaluation                    ... done (   0.0 sec)
  promolecular density results
     # of electrons  =     23.996841056
     EX              =    -19.478190929
     EC              =     -0.772069889
     EX+EC           =    -20.250260819
Transforming the Hamiltonian                       ... done (   0.0 sec)
Diagonalizing the Hamiltonian                      ... done (   0.0 sec)
Back transforming the eigenvectors                 ... done (   0.0 sec)
Now organizing SCF variables                       ... done
                      ------------------
                      INITIAL GUESS DONE (   0.0 sec)
                      ------------------
-------------------
DFT GRID GENERATION
-------------------

General Integration Accuracy     IntAcc      ... 4.388
Radial Grid Type                 RadialGrid  ... OptM3 with GC (2021)
Angular Grid (max. ang.)         AngularGrid ... 4 (Lebedev-302)
Angular grid pruning method      GridPruning ... 4 (adaptive)
Weight generation scheme         WeightScheme... Becke
Basis function cutoff            BFCut       ... 1.0000e-11
Integration weight cutoff        WCut        ... 1.0000e-14
Angular grids for H and He will be reduced by one unit
Partially contracted basis set               ... off
Rotationally invariant grid construction     ... off

Total number of grid points                  ...    31331
Total number of batches                      ...      494
Average number of points per batch           ...       63
Average number of grid points per atom       ...     4476
Time for grid setup =    0.113 sec

--------------------
COSX GRID GENERATION
--------------------

GRIDX 1
-------
General Integration Accuracy     IntAcc      ... 3.816
Radial Grid Type                 RadialGrid  ... OptM3 with GC (2021)
Angular Grid (max. ang.)         AngularGrid ... 1 (Lebedev-50)
Angular grid pruning method      GridPruning ... 4 (adaptive)
Weight generation scheme         WeightScheme... Becke
Basis function cutoff            BFCut       ... 1.0000e-11
Integration weight cutoff        WCut        ... 1.0000e-14
Angular grids for H and He will be reduced by one unit
Partially contracted basis set               ... on
Rotationally invariant grid construction     ... off

Total number of grid points                  ...     4041
Total number of batches                      ...       68
Average number of points per batch           ...       59
Average number of grid points per atom       ...      577
UseSFitting                                  ... on

GRIDX 2
-------
General Integration Accuracy     IntAcc      ... 4.020
Radial Grid Type                 RadialGrid  ... OptM3 with GC (2021)
Angular Grid (max. ang.)         AngularGrid ... 2 (Lebedev-110)
Angular grid pruning method      GridPruning ... 4 (adaptive)
Weight generation scheme         WeightScheme... Becke
Basis function cutoff            BFCut       ... 1.0000e-11
Integration weight cutoff        WCut        ... 1.0000e-14
Angular grids for H and He will be reduced by one unit
Partially contracted basis set               ... on
Rotationally invariant grid construction     ... off

Total number of grid points                  ...     8726
Total number of batches                      ...      140
Average number of points per batch           ...       62
Average number of grid points per atom       ...     1247
UseSFitting                                  ... on

GRIDX 3
-------
General Integration Accuracy     IntAcc      ... 4.338
Radial Grid Type                 RadialGrid  ... OptM3 with GC (2021)
Angular Grid (max. ang.)         AngularGrid ... 3 (Lebedev-194)
Angular grid pruning method      GridPruning ... 4 (adaptive)
Weight generation scheme         WeightScheme... Becke
Basis function cutoff            BFCut       ... 1.0000e-11
Integration weight cutoff        WCut        ... 1.0000e-14
Angular grids for H and He will be reduced by one unit
Partially contracted basis set               ... on
Rotationally invariant grid construction     ... off

Total number of grid points                  ...    19261
Total number of batches                      ...      305
Average number of points per batch           ...       63
Average number of grid points per atom       ...     2752
UseSFitting                                  ... on

Time for X-Grid setup             =    0.075 sec

--------------
SCF ITERATIONS
--------------
ITER       Energy         Delta-E        Max-DP      RMS-DP      [F,P]     Damp
               ***  Starting incremental Fock matrix formation  ***
  0   -153.5893576909   0.000000000000 0.03095199  0.00107003  0.1728439 0.7000
  1   -153.6145877865  -0.025230095611 0.01586939  0.00076997  0.0683287 0.7000
                               ***Turning on DIIS***
  2   -153.6247690558  -0.010181269281 0.02403211  0.00130191  0.0310747 0.0000
  3   -153.6422586203  -0.017489564539 0.01314242  0.00058449  0.0365533 0.0000
  4   -153.6449955336  -0.002736913294 0.00464070  0.00015951  0.0118354 0.0000
                      *** Initiating the SOSCF procedure ***
                           *** Shutting down DIIS ***
                      *** Re-Reading the Fockian *** 
                      *** Removing any level shift *** 
ITER      Energy       Delta-E        Grad      Rot      Max-DP    RMS-DP
  5   -153.64525458  -0.0002590476  0.000604  0.000604  0.001165  0.000047
               *** Restarting incremental Fock matrix formation ***
  6   -153.64526759  -0.0000130133  0.000110  0.000154  0.000496  0.000019
  7   -153.64526773  -0.0000001313  0.000122  0.000141  0.000239  0.000010
  8   -153.64526802  -0.0000002947  0.000055  0.000074  0.000108  0.000005
  9   -153.64526803  -0.0000000130  0.000036  0.000038  0.000054  0.000002
 10   -153.64526807  -0.0000000351  0.000011  0.000021  0.000026  0.000001
 11   -153.64526807  -0.0000000005  0.000007  0.000008  0.000010  0.000000
                  ***Gradient check signals convergence***
              ***Rediagonalizing the Fockian in SOSCF/NRSCF***

               *****************************************************
               *                     SUCCESS                       *
               *           SCF CONVERGED AFTER  12 CYCLES          *
               *****************************************************

Old exchange energy                            =     -4.971041653 Eh
New exchange energy                            =     -4.971045555 Eh
Exchange energy change after final integration =     -0.000003902 Eh
Total energy after final integration           =   -153.645271973 Eh
Final COS-X integration done in                =     0.271 sec

----------------
TOTAL SCF ENERGY
----------------

Total Energy       :         -153.64527197 Eh           -4180.90040 eV

Components:
Nuclear Repulsion  :           71.63865323 Eh            1949.38686 eV
Electronic Energy  :         -225.28392520 Eh           -6130.28726 eV
One Electron Energy:         -350.13450482 Eh           -9527.64425 eV
Two Electron Energy:          124.85057962 Eh            3397.35699 eV
Max COSX asymmetry :            0.00000249 Eh               0.00007 eV

Virial components:
Potential Energy   :         -306.29576264 Eh           -8334.73143 eV
Kinetic Energy     :          152.65049067 Eh            4153.83103 eV
Virial Ratio       :            2.00651673


DFT components:
N(Alpha)           :       12.000000117719 electrons
N(Beta)            :       12.000000117719 electrons
N(Total)           :       24.000000235437 electrons
E(X)               :      -14.898527921719 Eh       
E(C)               :       -0.781422051296 Eh       
E(XC)              :      -15.679949973014 Eh       
DFET-embed. en.    :        0.000000000000 Eh       

---------------
SCF CONVERGENCE
---------------

  Last Energy change         ...   -1.2966e-09  Tolerance :   1.0000e-08
  Last MAX-Density change    ...    6.6613e-16  Tolerance :   1.0000e-07
  Last RMS-Density change    ...    2.1380e-17  Tolerance :   5.0000e-09
  Last Orbital Gradient      ...    1.4839e-06  Tolerance :   1.0000e-05
  Last Orbital Rotation      ...    2.0647e-06  Tolerance :   1.0000e-05

             **** THE GBW FILE WAS UPDATED (ox_gs_A_orca0046.gbw) ****
             **** DENSITY ox_gs_A_orca0046.scfp WAS UPDATED ****
             **** ENERGY FILE WAS UPDATED (ox_gs_A_orca0046.en.tmp) ****
             **** THE GBW FILE WAS UPDATED (ox_gs_A_orca0046.gbw) ****
             **** DENSITY ox_gs_A_orca0046.scfp WAS UPDATED ****
----------------
ORBITAL ENERGIES
----------------

  NO   OCC          E(Eh)            E(eV) 
   0   2.0000     -19.225225      -523.1450 
   1   2.0000     -10.296391      -280.1790 
   2   2.0000     -10.274898      -279.5942 
   3   2.0000      -1.040179       -28.3047 
   4   2.0000      -0.708170       -19.2703 
   5   2.0000      -0.661422       -17.9982 
   6   2.0000      -0.511661       -13.9230 
   7   2.0000      -0.482934       -13.1413 
   8   2.0000      -0.411719       -11.2034 
   9   2.0000      -0.393549       -10.7090 
  10   2.0000      -0.322226        -8.7682 
  11   2.0000      -0.289496        -7.8776 
  12   0.0000       0.045349         1.2340 
  13   0.0000       0.057210         1.5568 
  14   0.0000       0.069145         1.8815 
  15   0.0000       0.089717         2.4413 
  16   0.0000       0.104208         2.8356 
  17   0.0000       0.152953         4.1621 
  18   0.0000       0.189352         5.1525 
  19   0.0000       0.201556         5.4846 
  20   0.0000       0.261318         7.1108 
  21   0.0000       0.267975         7.2920 
  22   0.0000       0.280794         7.6408 
  23   0.0000       0.289329         7.8731 
  24   0.0000       0.355657         9.6779 
  25   0.0000       0.393183        10.6990 
  26   0.0000       0.401995        10.9388 
  27   0.0000       0.413949        11.2641 
  28   0.0000       0.448869        12.2143 
  29   0.0000       0.466554        12.6956 
  30   0.0000       0.509733        13.8705 
  31   0.0000       0.518895        14.1198 
  32   0.0000       0.530023        14.4226 
  33   0.0000       0.687257        18.7012 
  34   0.0000       0.704164        19.1613 
  35   0.0000       0.719180        19.5699 
  36   0.0000       0.812936        22.1211 
  37   0.0000       0.849577        23.1182 
  38   0.0000       0.896875        24.4052 
  39   0.0000       0.921778        25.0829 
  40   0.0000       0.981789        26.7158 
  41   0.0000       1.004245        27.3269 
  42   0.0000       1.070373        29.1263 
  43   0.0000       1.074758        29.2457 
  44   0.0000       1.132754        30.8238 
  45   0.0000       1.344314        36.5807 
  46   0.0000       1.456693        39.6386 
  47   0.0000       1.474784        40.1309 
  48   0.0000       1.488648        40.5082 
  49   0.0000       1.492875        40.6232 
  50   0.0000       1.575810        42.8800 
  51   0.0000       1.622649        44.1545 
  52   0.0000       1.646841        44.8128 
  53   0.0000       1.717601        46.7383 
  54   0.0000       1.754752        47.7492 
  55   0.0000       1.830017        49.7973 
  56   0.0000       1.841531        50.1106 
  57   0.0000       1.876642        51.0660 
  58   0.0000       1.904742        51.8307 
  59   0.0000       1.930595        52.5342 
  60   0.0000       2.145888        58.3926 
  61   0.0000       2.155796        58.6622 
  62   0.0000       2.173715        59.1498 
  63   0.0000       2.194011        59.7021 
  64   0.0000       2.204568        59.9894 
  65   0.0000       2.365424        64.3664 
  66   0.0000       2.433722        66.2250 
  67   0.0000       2.467123        67.1338 
  68   0.0000       2.513991        68.4092 
  69   0.0000       2.581959        70.2587 
  70   0.0000       2.603105        70.8341 
  71   0.0000       2.616346        71.1944 
  72   0.0000       2.639489        71.8241 
  73   0.0000       2.648737        72.0758 
  74   0.0000       2.718530        73.9749 
  75   0.0000       2.781606        75.6913 
  76   0.0000       2.816213        76.6330 
  77   0.0000       2.919681        79.4486 
  78   0.0000       2.963120        80.6306 
  79   0.0000       3.009378        81.8893 
  80   0.0000       3.056396        83.1688 
  81   0.0000       3.114845        84.7592 
  82   0.0000       3.150071        85.7178 
  83   0.0000       3.162508        86.0562 
  84   0.0000       3.216772        87.5328 
  85   0.0000       3.272858        89.0590 
  86   0.0000       3.330410        90.6251 
  87   0.0000       3.391943        92.2995 
  88   0.0000       3.490006        94.9679 
  89   0.0000       3.548953        96.5719 
  90   0.0000       3.615753        98.3896 
  91   0.0000       3.648067        99.2689 
  92   0.0000       3.800450       103.4155 
  93   0.0000       3.929837       106.9363 
  94   0.0000       3.988171       108.5236 
  95   0.0000       4.171281       113.5063 
  96   0.0000       4.182193       113.8032 
  97   0.0000       4.286747       116.6483 
  98   0.0000       4.354246       118.4851 
  99   0.0000       4.538078       123.4874 
 100   0.0000       4.701948       127.9465 
 101   0.0000       4.757097       129.4472 
 102   0.0000       5.250220       142.8657 
 103   0.0000       5.368913       146.0956 
 104   0.0000       5.540722       150.7707 
 105   0.0000       5.639095       153.4476 
 106   0.0000       5.645542       153.6230 
 107   0.0000       5.724798       155.7797 
 108   0.0000       5.911001       160.8465 
 109   0.0000       6.543944       178.0698 
 110   0.0000       6.552981       178.3157 
 111   0.0000       6.714047       182.6985 
 112   0.0000       6.946283       189.0180 
 113   0.0000       7.182539       195.4468 
 114   0.0000      22.091842       601.1496 
 115   0.0000      22.393734       609.3645 
 116   0.0000      43.750698      1190.5170 

                    ********************************
                    * MULLIKEN POPULATION ANALYSIS *
                    ********************************

-----------------------
MULLIKEN ATOMIC CHARGES
-----------------------
   0 O :   -0.319278
   1 C :   -0.085474
   2 C :   -0.107351
   3 H :    0.121465
   4 H :    0.122414
   5 H :    0.136607
   6 H :    0.131616
Sum of atomic charges:    0.0000000

--------------------------------
MULLIKEN REDUCED ORBITAL CHARGES
--------------------------------
  0 O s       :     3.878370  s :     3.878370
      pz      :     1.878947  p :     4.406569
      px      :     1.313931
      py      :     1.213691
      dz2     :     0.004832  d :     0.032801
      dxz     :     0.001683
      dyz     :     0.004668
      dx2y2   :     0.009141
      dxy     :     0.012477
      f0      :     0.000171  f :     0.001538
      f+1     :     0.000157
      f-1     :     0.000375
      f+2     :     0.000051
      f-2     :     0.000125
      f+3     :     0.000298
      f-3     :     0.000362
  1 C s       :     3.226124  s :     3.226124
      pz      :     1.066447  p :     2.749930
      px      :     0.902776
      py      :     0.780707
      dz2     :     0.005806  d :     0.099721
      dxz     :     0.022937
      dyz     :     0.026068
      dx2y2   :     0.025908
      dxy     :     0.019002
      f0      :     0.001108  f :     0.009700
      f+1     :     0.001330
      f-1     :     0.000567
      f+2     :     0.001038
      f-2     :     0.001319
      f+3     :     0.002029
      f-3     :     0.002309
  2 C s       :     3.266613  s :     3.266613
      pz      :     1.036356  p :     2.738302
      px      :     0.917991
      py      :     0.783956
      dz2     :     0.008771  d :     0.093497
      dxz     :     0.020375
      dyz     :     0.023761
      dx2y2   :     0.022476
      dxy     :     0.018113
      f0      :     0.001136  f :     0.008939
      f+1     :     0.001262
      f-1     :     0.000518
      f+2     :     0.000850
      f-2     :     0.001134
      f+3     :     0.001981
      f-3     :     0.002058
  3 H s       :     0.855616  s :     0.855616
      pz      :     0.010491  p :     0.022919
      px      :     0.007728
      py      :     0.004700
  4 H s       :     0.854399  s :     0.854399
      pz      :     0.010899  p :     0.023186
      px      :     0.007710
      py      :     0.004577
  5 H s       :     0.840769  s :     0.840769
      pz      :     0.011327  p :     0.022624
      px      :     0.006882
      py      :     0.004414
  6 H s       :     0.848984  s :     0.848984
      pz      :     0.010921  p :     0.019400
      px      :     0.005107
      py      :     0.003372


                     *******************************
                     * LOEWDIN POPULATION ANALYSIS *
                     *******************************

----------------------
LOEWDIN ATOMIC CHARGES
----------------------
   0 O :    0.009778
   1 C :   -0.233834
   2 C :   -0.211785
   3 H :    0.098367
   4 H :    0.095377
   5 H :    0.108431
   6 H :    0.133667

-------------------------------
LOEWDIN REDUCED ORBITAL CHARGES
-------------------------------
  0 O s       :     3.490795  s :     3.490795
      pz      :     1.791912  p :     4.427137
      px      :     1.313817
      py      :     1.321408
      dz2     :     0.010219  d :     0.068189
      dxz     :     0.004957
      dyz     :     0.009289
      dx2y2   :     0.022497
      dxy     :     0.021227
      f0      :     0.000342  f :     0.004101
      f+1     :     0.000194
      f-1     :     0.000696
      f+2     :     0.000101
      f-2     :     0.000550
      f+3     :     0.000884
      f-3     :     0.001334
  1 C s       :     2.832882  s :     2.832882
      pz      :     1.096285  p :     2.929976
      px      :     1.006757
      py      :     0.826933
      dz2     :     0.047136  d :     0.416497
      dxz     :     0.113417
      dyz     :     0.071453
      dx2y2   :     0.097498
      dxy     :     0.086993
      f0      :     0.005928  f :     0.054481
      f+1     :     0.005239
      f-1     :     0.005044
      f+2     :     0.006380
      f-2     :     0.005496
      f+3     :     0.012969
      f-3     :     0.013423
  2 C s       :     2.884886  s :     2.884886
      pz      :     1.072135  p :     2.912023
      px      :     1.021808
      py      :     0.818080
      dz2     :     0.050116  d :     0.368118
      dxz     :     0.096205
      dyz     :     0.063089
      dx2y2   :     0.083643
      dxy     :     0.075065
      f0      :     0.006257  f :     0.046758
      f+1     :     0.004208
      f-1     :     0.004121
      f+2     :     0.004907
      f-2     :     0.004152
      f+3     :     0.011619
      f-3     :     0.011493
  3 H s       :     0.829605  s :     0.829605
      pz      :     0.034365  p :     0.072028
      px      :     0.022461
      py      :     0.015202
  4 H s       :     0.830699  s :     0.830699
      pz      :     0.036049  p :     0.073924
      px      :     0.022786
      py      :     0.015090
  5 H s       :     0.822846  s :     0.822846
      pz      :     0.035577  p :     0.068723
      px      :     0.019558
      py      :     0.013588
  6 H s       :     0.812530  s :     0.812530
      pz      :     0.031078  p :     0.053803
      px      :     0.013252
      py      :     0.009473


                      *****************************
                      * MAYER POPULATION ANALYSIS *
                      *****************************

  NA   - Mulliken gross atomic population
  ZA   - Total nuclear charge
  QA   - Mulliken gross atomic charge
  VA   - Mayer's total valence
  BVA  - Mayer's bonded valence
  FA   - Mayer's free valence

  ATOM       NA         ZA         QA         VA         BVA        FA
  0 O      8.3193     8.0000    -0.3193     1.9807     1.9807     0.0000
  1 C      6.0855     6.0000    -0.0855     3.9719     3.9719     0.0000
  2 C      6.1074     6.0000    -0.1074     3.9372     3.9372     0.0000
  3 H      0.8785     1.0000     0.1215     0.9568     0.9568     0.0000
  4 H      0.8776     1.0000     0.1224     0.9577     0.9577    -0.0000
  5 H      0.8634     1.0000     0.1366     0.9557     0.9557     0.0000
  6 H      0.8684     1.0000     0.1316     0.9604     0.9604     0.0000

  Mayer bond orders larger than 0.100000
B(  0-O ,  1-C ) :   0.9867 B(  0-O ,  2-C ) :   0.9778 B(  1-C ,  2-C ) :   1.0550 
B(  1-C ,  3-H ) :   0.9582 B(  1-C ,  4-H ) :   0.9610 B(  2-C ,  5-H ) :   0.9475 
B(  2-C ,  6-H ) :   0.9470 

-------
TIMINGS
-------

Total SCF time: 0 days 0 hours 0 min 2 sec 

Total time                  ....       2.848 sec
Sum of individual times     ....       2.646 sec  ( 92.9%)

Fock matrix formation       ....       2.372 sec  ( 83.3%)
  Split-RI-J                ....       0.250 sec  ( 10.6% of F)
  Chain of spheres X        ....       1.657 sec  ( 69.9% of F)
  XC integration            ....       0.438 sec  ( 18.5% of F)
    Basis function eval.    ....       0.120 sec  ( 27.4% of XC)
    Density eval.           ....       0.087 sec  ( 19.9% of XC)
    XC-Functional eval.     ....       0.026 sec  (  5.8% of XC)
    XC-Potential eval.      ....       0.154 sec  ( 35.0% of XC)
Diagonalization             ....       0.014 sec  (  0.5%)
Density matrix formation    ....       0.002 sec  (  0.1%)
Population analysis         ....       0.003 sec  (  0.1%)
Initial guess               ....       0.017 sec  (  0.6%)
Orbital Transformation      ....       0.000 sec  (  0.0%)
Orbital Orthonormalization  ....       0.000 sec  (  0.0%)
DIIS solution               ....       0.011 sec  (  0.4%)
SOSCF solution              ....       0.016 sec  (  0.5%)
Grid generation             ....       0.212 sec  (  7.4%)

Maximum memory used throughout the entire SCF-calculation: 61.0 MB


-------------------------------------------------------------------------------
                          DFT DISPERSION CORRECTION                            
                                                                               
                              DFTD3 V3.1  Rev 1                                
                          USING Becke-Johnson damping                          
-------------------------------------------------------------------------------
The PBE0 functional is recognized
Active option DFTDOPT                   ...         4   

molecular C6(AA) [au] = 351.574936 


            DFT-D V3
 parameters
 s6 scaling factor         :     1.0000 
 a1 scaling factor         :     0.4145 
 s8 scaling factor         :     1.2177 
 a2 scaling factor         :     4.8593 
 ad hoc parameters k1-k3   :    16.0000     1.3333    -4.0000 

 Edisp/kcal,au: -1.500249769890  -0.002390799935 
 E6   /kcal   :  -0.982388608 
 E8   /kcal   :  -0.517861161 
 % E8         :  34.518329672 

-------------------------   ----------------
Dispersion correction           -0.002390800
-------------------------   ----------------


-------------------------   --------------------
FINAL SINGLE POINT ENERGY      -153.647662772709
-------------------------   --------------------



           ************************************************************
           *        Program running with 8 parallel MPI-processes     *
           *              working on a common directory               *
           ************************************************************
------------------------------------------------------------------------------
                         ORCA SCF GRADIENT CALCULATION
------------------------------------------------------------------------------

 ... reading COSX grid (gridx3)
Gradient of the Kohn-Sham DFT energy:
Kohn-Sham wavefunction type      ... RKS
Hartree-Fock exchange scaling    ...    0.250
Number of operators              ...    1
Number of atoms                  ...    7
Basis set dimensions             ...  117
Integral neglect threshold       ... 2.5e-11
Integral primitive cutoff        ... 2.5e-12
SHARK Integral package           ... ON

Nuc. rep. gradient       (SHARK) ... done (  0.0 sec)
HCore & Overlap gradient (SHARK) ... done (  0.0 sec)
RI-J gradient            (SHARK) ... done (  0.1 sec)
COSX-gradient                    ... done (  0.3 sec)
Exchange-correlation gradient    ... done
Dispersion correction            ... done

------------------
CARTESIAN GRADIENT
------------------

   1   O   :   -0.007888535    0.081003210    0.003067610
   2   C   :   -0.109582638   -0.044379202   -0.008322431
   3   C   :    0.079918454   -0.033054138   -0.052134020
   4   H   :    0.012558987    0.004506651   -0.042745311
   5   H   :    0.016646319    0.004903100    0.050516524
   6   H   :   -0.007293928   -0.002453833    0.012200747
   7   H   :    0.015613671   -0.010715625    0.037482854

Difference to translation invariance:
           :   -0.0000276695   -0.0001898368    0.0000659730

Difference to rotation invariance:
           :    0.0001242051   -0.0000476273   -0.0000199826

Norm of the cartesian gradient     ...    0.1941846991
RMS gradient                       ...    0.0423745754
MAX gradient                       ...    0.1095826380

-------
TIMINGS
-------

Total SCF gradient time            ...        0.717 sec

One electron gradient       ....       0.010 sec  (  1.4%)
RI-J Coulomb gradient       ....       0.081 sec  ( 11.3%)
COSX gradient               ....       0.324 sec  ( 45.2%)
XC gradient                 ....       0.156 sec  ( 21.7%)

Maximum memory used throughout the entire SCFGRAD-calculation: 35.9 MB

                            ***************************************
                            *     ORCA property calculations      *
                            ***************************************

                                    ---------------------
                                    Active property flags
                                    ---------------------
   (+) Dipole Moment


------------------------------------------------------------------------------
                       ORCA ELECTRIC PROPERTIES CALCULATION
------------------------------------------------------------------------------

Dipole Moment Calculation                       ... on
Quadrupole Moment Calculation                   ... off
Polarizability Calculation                      ... off
GBWName                                         ... ox_gs_A_orca0046.gbw
Electron density                                ... ox_gs_A_orca0046.scfp
The origin for moment calculation is the CENTER OF MASS  = (-0.045011, -0.005521 -0.030812)

-------------
DIPOLE MOMENT
-------------
                                X             Y             Z
Electronic contribution:      0.03541       1.68361      -0.07852
Nuclear contribution   :     -0.05391      -2.56939       0.05284
                        -----------------------------------------
Total Dipole Moment    :     -0.01850      -0.88577      -0.02568
                        -----------------------------------------
Magnitude (a.u.)       :      0.88634
Magnitude (Debye)      :      2.25289



--------------------
Rotational spectrum 
--------------------
 
Rotational constants in cm-1:     0.769921     0.668173     0.415603 
Rotational constants in MHz : 23081.658895 20031.314435 12459.478098 

 Dipole components along the rotational axes: 
x,y,z [a.u.] :     0.178579    -0.868077    -0.012162 
x,y,z [Debye]:     0.453913    -2.206477    -0.030913 

 

Timings for individual modules:

Sum of individual times         ...        4.294 sec (=   0.072 min)
GTO integral calculation        ...        0.305 sec (=   0.005 min)   7.1 %
SCF iterations                  ...        3.042 sec (=   0.051 min)  70.8 %
SCF Gradient evaluation         ...        0.947 sec (=   0.016 min)  22.1 %
                             ****ORCA TERMINATED NORMALLY****
TOTAL RUN TIME: 0 days 0 hours 0 minutes 4 seconds 566 msec
