
                                 *****************
                                 * O   R   C   A *
                                 *****************

                                            #,                                       
                                            ###                                      
                                            ####                                     
                                            #####                                    
                                            ######                                   
                                           ########,                                 
                                     ,,################,,,,,                         
                               ,,#################################,,                 
                          ,,##########################################,,             
                       ,#########################################, ''#####,          
                    ,#############################################,,   '####,        
                  ,##################################################,,,,####,       
                ,###########''''           ''''###############################       
              ,#####''   ,,,,##########,,,,          '''####'''          '####       
            ,##' ,,,,###########################,,,                        '##       
           ' ,,###''''                  '''############,,,                           
         ,,##''                                '''############,,,,        ,,,,,,###''
      ,#''                                            '''#######################'''  
     '                                                          ''''####''''         
             ,#######,   #######,   ,#######,      ##                                
            ,#'     '#,  ##    ##  ,#'     '#,    #''#        ######   ,####,        
            ##       ##  ##   ,#'  ##            #'  '#       #        #'  '#        
            ##       ##  #######   ##           ,######,      #####,   #    #        
            '#,     ,#'  ##    ##  '#,     ,#' ,#      #,         ##   #,  ,#        
             '#######'   ##     ##  '#######'  #'      '#     #####' # '####'        



                  #######################################################
                  #                        -***-                        #
                  #          Department of theory and spectroscopy      #
                  #    Directorship and core code : Frank Neese         #
                  #        Max Planck Institute fuer Kohlenforschung    #
                  #                Kaiser Wilhelm Platz 1               #
                  #                 D-45470 Muelheim/Ruhr               #
                  #                      Germany                        #
                  #                                                     #
                  #                  All rights reserved                #
                  #                        -***-                        #
                  #######################################################


                         Program Version 5.0.2 -  RELEASE  -


 With contributions from (in alphabetic order):
   Daniel Aravena         : Magnetic Suceptibility
   Michael Atanasov       : Ab Initio Ligand Field Theory (pilot matlab implementation)
   Alexander A. Auer      : GIAO ZORA, VPT2 properties, NMR spectrum
   Ute Becker             : Parallelization
   Giovanni Bistoni       : ED, misc. LED, open-shell LED, HFLD
   Martin Brehm           : Molecular dynamics
   Dmytro Bykov           : SCF Hessian
   Vijay G. Chilkuri      : MRCI spin determinant printing, contributions to CSF-ICE
   Dipayan Datta          : RHF DLPNO-CCSD density
   Achintya Kumar Dutta   : EOM-CC, STEOM-CC
   Dmitry Ganyushin       : Spin-Orbit,Spin-Spin,Magnetic field MRCI
   Miquel Garcia          : C-PCM and meta-GGA Hessian, CC/C-PCM, Gaussian charge scheme
   Yang Guo               : DLPNO-NEVPT2, F12-NEVPT2, CIM, IAO-localization
   Andreas Hansen         : Spin unrestricted coupled pair/coupled cluster methods
   Benjamin Helmich-Paris : MC-RPA, TRAH-SCF, COSX integrals
   Lee Huntington         : MR-EOM, pCC
   Robert Izsak           : Overlap fitted RIJCOSX, COSX-SCS-MP3, EOM
   Marcus Kettner         : VPT2
   Christian Kollmar      : KDIIS, OOCD, Brueckner-CCSD(T), CCSD density, CASPT2, CASPT2-K
   Simone Kossmann        : Meta GGA functionals, TD-DFT gradient, OOMP2, MP2 Hessian
   Martin Krupicka        : Initial AUTO-CI
   Lucas Lang             : DCDCAS
   Marvin Lechner         : AUTO-CI (C++ implementation), FIC-MRCC
   Dagmar Lenk            : GEPOL surface, SMD
   Dimitrios Liakos       : Extrapolation schemes; Compound Job, initial MDCI parallelization
   Dimitrios Manganas     : Further ROCIS development; embedding schemes
   Dimitrios Pantazis     : SARC Basis sets
   Anastasios Papadopoulos: AUTO-CI, single reference methods and gradients
   Taras Petrenko         : DFT Hessian,TD-DFT gradient, ASA, ECA, R-Raman, ABS, FL, XAS/XES, NRVS
   Peter Pinski           : DLPNO-MP2, DLPNO-MP2 Gradient
   Christoph Reimann      : Effective Core Potentials
   Marius Retegan         : Local ZFS, SOC
   Christoph Riplinger    : Optimizer, TS searches, QM/MM, DLPNO-CCSD(T), (RO)-DLPNO pert. Triples
   Tobias Risthaus        : Range-separated hybrids, TD-DFT gradient, RPA, STAB
   Michael Roemelt        : Original ROCIS implementation
   Masaaki Saitow         : Open-shell DLPNO-CCSD energy and density
   Barbara Sandhoefer     : DKH picture change effects
   Avijit Sen             : IP-ROCIS
   Kantharuban Sivalingam : CASSCF convergence, NEVPT2, FIC-MRCI
   Bernardo de Souza      : ESD, SOC TD-DFT
   Georgi Stoychev        : AutoAux, RI-MP2 NMR, DLPNO-MP2 response
   Willem Van den Heuvel  : Paramagnetic NMR
   Boris Wezisla          : Elementary symmetry handling
   Frank Wennmohs         : Technical directorship


 We gratefully acknowledge several colleagues who have allowed us to
 interface, adapt or use parts of their codes:
   Stefan Grimme, W. Hujo, H. Kruse, P. Pracht,  : VdW corrections, initial TS optimization,
                  C. Bannwarth, S. Ehlert          DFT functionals, gCP, sTDA/sTD-DF
   Ed Valeev, F. Pavosevic, A. Kumar             : LibInt (2-el integral package), F12 methods
   Garnet Chan, S. Sharma, J. Yang, R. Olivares  : DMRG
   Ulf Ekstrom                                   : XCFun DFT Library
   Mihaly Kallay                                 : mrcc  (arbitrary order and MRCC methods)
   Jiri Pittner, Ondrej Demel                    : Mk-CCSD
   Frank Weinhold                                : gennbo (NPA and NBO analysis)
   Christopher J. Cramer and Donald G. Truhlar   : smd solvation model
   Lars Goerigk                                  : TD-DFT with DH, B97 family of functionals
   V. Asgeirsson, H. Jonsson                     : NEB implementation
   FAccTs GmbH                                   : IRC, NEB, NEB-TS, DLPNO-Multilevel, CI-OPT
                                                   MM, QMMM, 2- and 3-layer-ONIOM, Crystal-QMMM,
                                                   LR-CPCM, SF, NACMEs, symmetry and pop. for TD-DFT,
                                                   nearIR, NL-DFT gradient (VV10), updates on ESD,
                                                   ML-optimized integration grids
   S Lehtola, MJT Oliveira, MAL Marques          : LibXC Library
   Liviu Ungur et al                             : ANISO software


 Your calculation uses the libint2 library for the computation of 2-el integrals
 For citations please refer to: http://libint.valeyev.net

 Your ORCA version has been built with support for libXC version: 5.1.0
 For citations please refer to: https://tddft.org/programs/libxc/

 This ORCA versions uses:
   CBLAS   interface :  Fast vector & matrix operations
   LAPACKE interface :  Fast linear algebra routines
   SCALAPACK package :  Parallel linear algebra routines
   Shared memory     :  Shared parallel matrices
   BLAS/LAPACK       :  OpenBLAS 0.3.15  USE64BITINT DYNAMIC_ARCH NO_AFFINITY SkylakeX SINGLE_THREADED
        Core in use  :  SkylakeX
   Copyright (c) 2011-2014, The OpenBLAS Project


Your calculation utilizes the atom-pairwise dispersion correction
with the Becke-Johnson damping scheme (D3BJ)
Cite in your paper:
S.Grimme, S.Ehrlich, L.Goerigk, J Comput Chem, (2011), 32, 1456–1465 
S.Grimme, J.Antony, S.Ehrlich and H.Krieg, J.Chem.Phys., 132, (2010), 154104 
   

================================================================================

----- Orbital basis set information -----
Your calculation utilizes the basis: def2-TZVP
   F. Weigend and R. Ahlrichs, Phys. Chem. Chem. Phys. 7, 3297 (2005).

----- AuxJ basis set information -----
Your calculation utilizes the auxiliary basis: def2/J
   F. Weigend, Phys. Chem. Chem. Phys. 8, 1057 (2006).

================================================================================
                                        WARNINGS
                       Please study these warnings very carefully!
================================================================================


INFO   : the flag for use of the SHARK integral package has been found!

================================================================================
                                       INPUT FILE
================================================================================
NAME = ox_gs_E_orca0009.inp
|  1> ! engrad PBE0 D3BJ def2-TZVP  
|  2> %pal nprocs 8 end
|  3> %maxcore 3000
|  4>  
|  5> *xyz 0 1 
|  6> O   -1.0214088326791642 0.8820363258764221 0.02208105249652641
|  7> C   -0.729248793733583 -0.5170987939118424 0.003653066474808427
|  8> C   0.7888482063954422 -0.3675242819539122 0.005775368566757359
|  9> H   -1.2669852550661564 -0.6189312072590103 0.8504830395597563
| 10> H   -1.2220623115022153 -0.6712138976127486 -0.9983401342401697
| 11> H   1.2881851759895575 -0.7076479672835909 -0.8701546635770867
| 12> H   1.1469860140766206 -0.7048475065737403 0.9465581382092381
| 13> *
| 14> 
| 15>                          ****END OF INPUT****
================================================================================

                     *******************************
                     * Energy+Gradient Calculation *
                     *******************************

---------------------------------
CARTESIAN COORDINATES (ANGSTROEM)
---------------------------------
  O     -1.021409    0.882036    0.022081
  C     -0.729249   -0.517099    0.003653
  C      0.788848   -0.367524    0.005775
  H     -1.266985   -0.618931    0.850483
  H     -1.222062   -0.671214   -0.998340
  H      1.288185   -0.707648   -0.870155
  H      1.146986   -0.704848    0.946558

----------------------------
CARTESIAN COORDINATES (A.U.)
----------------------------
  NO LB      ZA    FRAG     MASS         X           Y           Z
   0 O     8.0000    0    15.999   -1.930183    1.666807    0.041727
   1 C     6.0000    0    12.011   -1.378081   -0.977175    0.006903
   2 C     6.0000    0    12.011    1.490707   -0.694520    0.010914
   3 H     1.0000    0     1.008   -2.394255   -1.169610    1.607180
   4 H     1.0000    0     1.008   -2.309363   -1.268410   -1.886589
   5 H     1.0000    0     1.008    2.434317   -1.337261   -1.644354
   6 H     1.0000    0     1.008    2.167489   -1.331969    1.788736

--------------------------------
INTERNAL COORDINATES (ANGSTROEM)
--------------------------------
 O      0   0   0     0.000000000000     0.00000000     0.00000000
 C      1   0   0     1.429432111872     0.00000000     0.00000000
 C      2   1   0     1.525449291387    96.16611139     0.00000000
 H      2   1   3     1.008291299957    88.79804384   122.71566845
 H      2   1   3     1.127212048713    93.20599987   242.67031173
 H      3   2   1     1.064084090539   115.75450080   245.40297314
 H      3   2   1     1.061659958186   107.80570285   110.76991373

---------------------------
INTERNAL COORDINATES (A.U.)
---------------------------
 O      0   0   0     0.000000000000     0.00000000     0.00000000
 C      1   0   0     2.701235218470     0.00000000     0.00000000
 C      2   1   0     2.882681391906    96.16611139     0.00000000
 H      2   1   3     1.905394420135    88.79804384   122.71566845
 H      2   1   3     2.130122066923    93.20599987   242.67031173
 H      3   2   1     2.010827514580   115.75450080   245.40297314
 H      3   2   1     2.006246568321   107.80570285   110.76991373

---------------------
BASIS SET INFORMATION
---------------------
There are 3 groups of distinct atoms

 Group   1 Type O   : 11s6p2d1f contracted to 5s3p2d1f pattern {62111/411/11/1}
 Group   2 Type C   : 11s6p2d1f contracted to 5s3p2d1f pattern {62111/411/11/1}
 Group   3 Type H   : 5s1p contracted to 3s1p pattern {311/1}

Atom   0O    basis set group =>   1
Atom   1C    basis set group =>   2
Atom   2C    basis set group =>   2
Atom   3H    basis set group =>   3
Atom   4H    basis set group =>   3
Atom   5H    basis set group =>   3
Atom   6H    basis set group =>   3
---------------------------------
AUXILIARY/J BASIS SET INFORMATION
---------------------------------
There are 3 groups of distinct atoms

 Group   1 Type O   : 12s5p4d2f1g contracted to 6s4p3d1f1g pattern {711111/2111/211/2/1}
 Group   2 Type C   : 12s5p4d2f1g contracted to 6s4p3d1f1g pattern {711111/2111/211/2/1}
 Group   3 Type H   : 5s2p1d contracted to 3s1p1d pattern {311/2/1}

Atom   0O    basis set group =>   1
Atom   1C    basis set group =>   2
Atom   2C    basis set group =>   2
Atom   3H    basis set group =>   3
Atom   4H    basis set group =>   3
Atom   5H    basis set group =>   3
Atom   6H    basis set group =>   3


           ************************************************************
           *        Program running with 8 parallel MPI-processes     *
           *              working on a common directory               *
           ************************************************************
------------------------------------------------------------------------------
                           ORCA GTO INTEGRAL CALCULATION
                           -- RI-GTO INTEGRALS CHOSEN --
------------------------------------------------------------------------------
------------------------------------------------------------------------------
                   ___                                                        
                  /   \      - P O W E R E D   B Y -                         
                 /     \                                                     
                 |  |  |   _    _      __       _____    __    __             
                 |  |  |  | |  | |    /  \     |  _  \  |  |  /  |          
                  \  \/   | |  | |   /    \    | | | |  |  | /  /          
                 / \  \   | |__| |  /  /\  \   | |_| |  |  |/  /          
                |  |  |   |  __  | /  /__\  \  |    /   |      \           
                |  |  |   | |  | | |   __   |  |    \   |  |\   \          
                \     /   | |  | | |  |  |  |  | |\  \  |  | \   \       
                 \___/    |_|  |_| |__|  |__|  |_| \__\ |__|  \__/        
                                                                              
                      - O R C A' S   B I G   F R I E N D -                    
                                      &                                       
                       - I N T E G R A L  F E E D E R -                       
                                                                              
 v1 FN, 2020, v2 2021                                                         
------------------------------------------------------------------------------


Reading SHARK input file ox_gs_E_orca0009.SHARKINP.tmp ... ok
----------------------
SHARK INTEGRAL PACKAGE
----------------------

Number of atoms                             ...      7
Number of basis functions                   ...    117
Number of shells                            ...     49
Maximum angular momentum                    ...      3
Integral batch strategy                     ... SHARK/LIBINT Hybrid
RI-J (if used) integral strategy            ... SPLIT-RIJ (Revised 2003 algorithm where possible)
Printlevel                                  ...      1
Contraction scheme used                     ... SEGMENTED contraction
Coulomb Range Separation                    ... NOT USED
Exchange Range Separation                   ... NOT USED
Finite Nucleus Model                        ... NOT USED
Auxiliary Coulomb fitting basis             ... AVAILABLE
   # of basis functions in Aux-J            ...    191
   # of shells in Aux-J                     ...     65
   Maximum angular momentum in Aux-J        ...      4
Auxiliary J/K fitting basis                 ... NOT available
Auxiliary Correlation fitting basis         ... NOT available
Auxiliary 'external' fitting basis          ... NOT available
Integral threshold                          ...     2.500000e-11
Primitive cut-off                           ...     2.500000e-12
Primitive pair pre-selection threshold      ...     2.500000e-12

Calculating pre-screening integrals         ... done (  0.0 sec) Dimension = 49
Organizing shell pair data                  ... done (  0.0 sec)
Shell pair information
Total number of shell pairs                 ...      1225
Shell pairs after pre-screening             ...      1213
Total number of primitive shell pairs       ...      3648
Primitive shell pairs kept                  ...      3087
          la=0 lb=0:    367 shell pairs
          la=1 lb=0:    351 shell pairs
          la=1 lb=1:     91 shell pairs
          la=2 lb=0:    161 shell pairs
          la=2 lb=1:     78 shell pairs
          la=2 lb=2:     21 shell pairs
          la=3 lb=0:     81 shell pairs
          la=3 lb=1:     39 shell pairs
          la=3 lb=2:     18 shell pairs
          la=3 lb=3:      6 shell pairs

Calculating one electron integrals          ... done (  0.0 sec)
Calculating RI/J V-Matrix + Cholesky decomp.... done (  0.0 sec)
Calculating Nuclear repulsion               ... done (  0.0 sec) ENN=     68.497557867028 Eh

SHARK setup successfully completed in   0.1 seconds

Maximum memory used throughout the entire GTOINT-calculation: 14.9 MB


           ************************************************************
           *        Program running with 8 parallel MPI-processes     *
           *              working on a common directory               *
           ************************************************************
-------------------------------------------------------------------------------
                                 ORCA SCF
-------------------------------------------------------------------------------

------------
SCF SETTINGS
------------
Hamiltonian:
 Density Functional     Method          .... DFT(GTOs)
 Exchange Functional    Exchange        .... PBE
   PBE kappa parameter   XKappa         ....  0.804000
   PBE mue parameter    XMuePBE         ....  0.219520
 Correlation Functional Correlation     .... PBE
   PBE beta parameter  CBetaPBE         ....  0.066725
 LDA part of GGA corr.  LDAOpt          .... PW91-LDA
 Gradients option       PostSCFGGA      .... off
 Hybrid DFT is turned on
   Fraction HF Exchange ScalHFX         ....  0.250000
   Scaling of DF-GGA-X  ScalDFX         ....  0.750000
   Scaling of DF-GGA-C  ScalDFC         ....  1.000000
   Scaling of DF-LDA-C  ScalLDAC        ....  1.000000
   Perturbative correction              ....  0.000000
   Density functional embedding theory  .... OFF
   NL short-range parameter             ....  6.900000
 RI-approximation to the Coulomb term is turned on
   Number of AuxJ basis functions       .... 191
   RIJ-COSX (HFX calculated with COS-X)).... on


General Settings:
 Integral files         IntName         .... ox_gs_E_orca0009
 Hartree-Fock type      HFTyp           .... RHF
 Total Charge           Charge          ....    0
 Multiplicity           Mult            ....    1
 Number of Electrons    NEL             ....   24
 Basis Dimension        Dim             ....  117
 Nuclear Repulsion      ENuc            ....     68.4975578670 Eh

Convergence Acceleration:
 DIIS                   CNVDIIS         .... on
   Start iteration      DIISMaxIt       ....    12
   Startup error        DIISStart       ....  0.200000
   # of expansion vecs  DIISMaxEq       ....     5
   Bias factor          DIISBfac        ....   1.050
   Max. coefficient     DIISMaxC        ....  10.000
 Trust-Rad. Augm. Hess. CNVTRAH         .... auto
   Auto Start mean grad. ratio tolernc. ....  1.125000
   Auto Start start iteration           ....    20
   Auto Start num. interpolation iter.  ....    10
   Max. Number of Micro iterations      ....    16
   Max. Number of Macro iterations      .... Maxiter - #DIIS iter
   Number of Davidson start vectors     ....     2
   Converg. threshold I  (grad. norm)   ....   1.000e-05
   Converg. threshold II (energy diff.) ....   1.000e-08
   Grad. Scal. Fac. for Micro threshold ....   0.100
   Minimum threshold for Micro iter.    ....   0.010
   NR start threshold (gradient norm)   ....   0.001
   Initial trust radius                 ....   0.400
   Minimum AH scaling param. (alpha)    ....   1.000
   Maximum AH scaling param. (alpha)    .... 1000.000
   Orbital update algorithm             .... Taylor
   White noise on init. David. guess    .... on
   Maximum white noise                  ....   0.010
   Quad. conv. algorithm                .... NR
 SOSCF                  CNVSOSCF        .... on
   Start iteration      SOSCFMaxIt      ....   150
   Startup grad/error   SOSCFStart      ....  0.003300
 Level Shifting         CNVShift        .... on
   Level shift para.    LevelShift      ....    0.2500
   Turn off err/grad.   ShiftErr        ....    0.0010
 Zerner damping         CNVZerner       .... off
 Static damping         CNVDamp         .... on
   Fraction old density DampFac         ....    0.7000
   Max. Damping (<1)    DampMax         ....    0.9800
   Min. Damping (>=0)   DampMin         ....    0.0000
   Turn off err/grad.   DampErr         ....    0.1000
 Fernandez-Rico         CNVRico         .... off

SCF Procedure:
 Maximum # iterations   MaxIter         ....   125
 SCF integral mode      SCFMode         .... Direct
   Integral package                     .... SHARK and LIBINT hybrid scheme
 Reset frequency        DirectResetFreq ....    20
 Integral Threshold     Thresh          ....  2.500e-11 Eh
 Primitive CutOff       TCut            ....  2.500e-12 Eh

Convergence Tolerance:
 Convergence Check Mode ConvCheckMode   .... Total+1el-Energy
 Convergence forced     ConvForced      .... 0
 Energy Change          TolE            ....  1.000e-08 Eh
 1-El. energy change                    ....  1.000e-05 Eh
 Orbital Gradient       TolG            ....  1.000e-05
 Orbital Rotation angle TolX            ....  1.000e-05
 DIIS Error             TolErr          ....  5.000e-07


Diagonalization of the overlap matrix:
Smallest eigenvalue                        ... 6.405e-04
Time for diagonalization                   ...    0.001 sec
Threshold for overlap eigenvalues          ... 1.000e-08
Number of eigenvalues below threshold      ... 0
Time for construction of square roots      ...    0.001 sec
Total time needed                          ...    0.003 sec

Time for model grid setup =    0.020 sec

------------------------------
INITIAL GUESS: MODEL POTENTIAL
------------------------------
Loading Hartree-Fock densities                     ... done
Calculating cut-offs                               ... done
Initializing the effective Hamiltonian             ... done
Setting up the integral package (SHARK)            ... done
Starting the Coulomb interaction                   ... done (   0.0 sec)
Reading the grid                                   ... done
Mapping shells                                     ... done
Starting the XC term evaluation                    ... done (   0.0 sec)
  promolecular density results
     # of electrons  =     23.997985640
     EX              =    -19.460894512
     EC              =     -0.766583240
     EX+EC           =    -20.227477752
Transforming the Hamiltonian                       ... done (   0.0 sec)
Diagonalizing the Hamiltonian                      ... done (   0.0 sec)
Back transforming the eigenvectors                 ... done (   0.0 sec)
Now organizing SCF variables                       ... done
                      ------------------
                      INITIAL GUESS DONE (   0.0 sec)
                      ------------------
-------------------
DFT GRID GENERATION
-------------------

General Integration Accuracy     IntAcc      ... 4.388
Radial Grid Type                 RadialGrid  ... OptM3 with GC (2021)
Angular Grid (max. ang.)         AngularGrid ... 4 (Lebedev-302)
Angular grid pruning method      GridPruning ... 4 (adaptive)
Weight generation scheme         WeightScheme... Becke
Basis function cutoff            BFCut       ... 1.0000e-11
Integration weight cutoff        WCut        ... 1.0000e-14
Angular grids for H and He will be reduced by one unit
Partially contracted basis set               ... off
Rotationally invariant grid construction     ... off

Total number of grid points                  ...    31324
Total number of batches                      ...      492
Average number of points per batch           ...       63
Average number of grid points per atom       ...     4475
Time for grid setup =    0.113 sec

--------------------
COSX GRID GENERATION
--------------------

GRIDX 1
-------
General Integration Accuracy     IntAcc      ... 3.816
Radial Grid Type                 RadialGrid  ... OptM3 with GC (2021)
Angular Grid (max. ang.)         AngularGrid ... 1 (Lebedev-50)
Angular grid pruning method      GridPruning ... 4 (adaptive)
Weight generation scheme         WeightScheme... Becke
Basis function cutoff            BFCut       ... 1.0000e-11
Integration weight cutoff        WCut        ... 1.0000e-14
Angular grids for H and He will be reduced by one unit
Partially contracted basis set               ... on
Rotationally invariant grid construction     ... off

Total number of grid points                  ...     4037
Total number of batches                      ...       67
Average number of points per batch           ...       60
Average number of grid points per atom       ...      577
UseSFitting                                  ... on

GRIDX 2
-------
General Integration Accuracy     IntAcc      ... 4.020
Radial Grid Type                 RadialGrid  ... OptM3 with GC (2021)
Angular Grid (max. ang.)         AngularGrid ... 2 (Lebedev-110)
Angular grid pruning method      GridPruning ... 4 (adaptive)
Weight generation scheme         WeightScheme... Becke
Basis function cutoff            BFCut       ... 1.0000e-11
Integration weight cutoff        WCut        ... 1.0000e-14
Angular grids for H and He will be reduced by one unit
Partially contracted basis set               ... on
Rotationally invariant grid construction     ... off

Total number of grid points                  ...     8723
Total number of batches                      ...      140
Average number of points per batch           ...       62
Average number of grid points per atom       ...     1246
UseSFitting                                  ... on

GRIDX 3
-------
General Integration Accuracy     IntAcc      ... 4.338
Radial Grid Type                 RadialGrid  ... OptM3 with GC (2021)
Angular Grid (max. ang.)         AngularGrid ... 3 (Lebedev-194)
Angular grid pruning method      GridPruning ... 4 (adaptive)
Weight generation scheme         WeightScheme... Becke
Basis function cutoff            BFCut       ... 1.0000e-11
Integration weight cutoff        WCut        ... 1.0000e-14
Angular grids for H and He will be reduced by one unit
Partially contracted basis set               ... on
Rotationally invariant grid construction     ... off

Total number of grid points                  ...    19259
Total number of batches                      ...      304
Average number of points per batch           ...       63
Average number of grid points per atom       ...     2751
UseSFitting                                  ... on

Time for X-Grid setup             =    0.073 sec

--------------
SCF ITERATIONS
--------------
ITER       Energy         Delta-E        Max-DP      RMS-DP      [F,P]     Damp
               ***  Starting incremental Fock matrix formation  ***
  0   -153.3150897534   0.000000000000 0.09904251  0.00312268  0.3440762 0.7000
  1   -153.4218428122  -0.106753058761 0.05921171  0.00156646  0.0848702 0.7000
                               ***Turning on DIIS***
  2   -153.4339702346  -0.012127422434 0.04951484  0.00209826  0.0783010 0.0000
  3   -153.5010399159  -0.067069681258 0.03102111  0.00123660  0.0364357 0.0000
  4   -153.5040164579  -0.002976541994 0.00969374  0.00033734  0.0466319 0.0000
  5   -153.5062889897  -0.002272531807 0.00380904  0.00012224  0.0120295 0.0000
  6   -153.5064693585  -0.000180368852 0.00140441  0.00004851  0.0035888 0.0000
                      *** Initiating the SOSCF procedure ***
                           *** Shutting down DIIS ***
                      *** Re-Reading the Fockian *** 
                      *** Removing any level shift *** 
ITER      Energy       Delta-E        Grad      Rot      Max-DP    RMS-DP
  7   -153.50648497  -0.0000156092  0.000354  0.000354  0.000563  0.000025
               *** Restarting incremental Fock matrix formation ***
  8   -153.50648790  -0.0000029272  0.000329  0.003049  0.000866  0.000041
  9   -153.50649263  -0.0000047326  0.000215  0.004984  0.001533  0.000057
 10   -153.50649496  -0.0000023334  0.000193  0.001708  0.000596  0.000022
 11   -153.50649421   0.0000007508  0.000431  0.000501  0.000357  0.000014
 12   -153.50649522  -0.0000010058  0.000179  0.000794  0.000264  0.000012
 13   -153.50649532  -0.0000001044  0.000115  0.000645  0.000217  0.000008
 14   -153.50649557  -0.0000002474  0.000011  0.000038  0.000017  0.000001
 15   -153.50649557  -0.0000000017  0.000005  0.000013  0.000006  0.000000
                 **** Energy Check signals convergence ****
              ***Rediagonalizing the Fockian in SOSCF/NRSCF***

               *****************************************************
               *                     SUCCESS                       *
               *           SCF CONVERGED AFTER  16 CYCLES          *
               *****************************************************

Old exchange energy                            =     -4.955642354 Eh
New exchange energy                            =     -4.955657846 Eh
Exchange energy change after final integration =     -0.000015491 Eh
Total energy after final integration           =   -153.506511061 Eh
Final COS-X integration done in                =     0.331 sec

----------------
TOTAL SCF ENERGY
----------------

Total Energy       :         -153.50651106 Eh           -4177.12453 eV

Components:
Nuclear Repulsion  :           68.49755787 Eh            1863.91331 eV
Electronic Energy  :         -222.00406893 Eh           -6041.03784 eV
One Electron Energy:         -343.70833615 Eh           -9352.77931 eV
Two Electron Energy:          121.70426722 Eh            3311.74148 eV
Max COSX asymmetry :            0.00000147 Eh               0.00004 eV

Virial components:
Potential Energy   :         -306.34438619 Eh           -8336.05454 eV
Kinetic Energy     :          152.83787513 Eh            4158.93002 eV
Virial Ratio       :            2.00437481


DFT components:
N(Alpha)           :       12.000003865694 electrons
N(Beta)            :       12.000003865694 electrons
N(Total)           :       24.000007731387 electrons
E(X)               :      -14.885952713100 Eh       
E(C)               :       -0.772152978326 Eh       
E(XC)              :      -15.658105691426 Eh       
DFET-embed. en.    :        0.000000000000 Eh       

---------------
SCF CONVERGENCE
---------------

  Last Energy change         ...   -3.6221e-10  Tolerance :   1.0000e-08
  Last MAX-Density change    ...    7.7716e-16  Tolerance :   1.0000e-07
  Last RMS-Density change    ...    2.1651e-17  Tolerance :   5.0000e-09
  Last Orbital Gradient      ...    2.4008e-06  Tolerance :   1.0000e-05
  Last Orbital Rotation      ...    6.6190e-06  Tolerance :   1.0000e-05

             **** THE GBW FILE WAS UPDATED (ox_gs_E_orca0009.gbw) ****
             **** DENSITY ox_gs_E_orca0009.scfp WAS UPDATED ****
             **** ENERGY FILE WAS UPDATED (ox_gs_E_orca0009.en.tmp) ****
             **** THE GBW FILE WAS UPDATED (ox_gs_E_orca0009.gbw) ****
             **** DENSITY ox_gs_E_orca0009.scfp WAS UPDATED ****
----------------
ORBITAL ENERGIES
----------------

  NO   OCC          E(Eh)            E(eV) 
   0   2.0000     -19.209833      -522.7261 
   1   2.0000     -10.316084      -280.7149 
   2   2.0000     -10.267388      -279.3898 
   3   2.0000      -1.005449       -27.3597 
   4   2.0000      -0.767069       -20.8730 
   5   2.0000      -0.627371       -17.0716 
   6   2.0000      -0.527408       -14.3515 
   7   2.0000      -0.475429       -12.9371 
   8   2.0000      -0.436901       -11.8887 
   9   2.0000      -0.389537       -10.5998 
  10   2.0000      -0.276132        -7.5139 
  11   2.0000      -0.259603        -7.0642 
  12   0.0000      -0.151186        -4.1140 
  13   0.0000       0.053188         1.4473 
  14   0.0000       0.080884         2.2010 
  15   0.0000       0.091153         2.4804 
  16   0.0000       0.121558         3.3078 
  17   0.0000       0.149984         4.0813 
  18   0.0000       0.178255         4.8506 
  19   0.0000       0.193164         5.2563 
  20   0.0000       0.235475         6.4076 
  21   0.0000       0.246238         6.7005 
  22   0.0000       0.272869         7.4251 
  23   0.0000       0.298210         8.1147 
  24   0.0000       0.324781         8.8377 
  25   0.0000       0.360571         9.8116 
  26   0.0000       0.412378        11.2214 
  27   0.0000       0.425155        11.5691 
  28   0.0000       0.448053        12.1921 
  29   0.0000       0.470105        12.7922 
  30   0.0000       0.519311        14.1312 
  31   0.0000       0.547656        14.9025 
  32   0.0000       0.572497        15.5784 
  33   0.0000       0.603424        16.4200 
  34   0.0000       0.713387        19.4123 
  35   0.0000       0.721469        19.6322 
  36   0.0000       0.781743        21.2723 
  37   0.0000       0.842426        22.9236 
  38   0.0000       0.885699        24.1011 
  39   0.0000       0.927951        25.2508 
  40   0.0000       0.939545        25.5663 
  41   0.0000       1.016974        27.6733 
  42   0.0000       1.037140        28.2220 
  43   0.0000       1.078030        29.3347 
  44   0.0000       1.138939        30.9921 
  45   0.0000       1.311155        35.6783 
  46   0.0000       1.412513        38.4364 
  47   0.0000       1.420947        38.6659 
  48   0.0000       1.469288        39.9814 
  49   0.0000       1.510285        41.0969 
  50   0.0000       1.591480        43.3064 
  51   0.0000       1.604549        43.6620 
  52   0.0000       1.611662        43.8555 
  53   0.0000       1.671256        45.4772 
  54   0.0000       1.732653        47.1479 
  55   0.0000       1.751939        47.6727 
  56   0.0000       1.811482        49.2929 
  57   0.0000       1.864742        50.7422 
  58   0.0000       1.879300        51.1383 
  59   0.0000       1.929031        52.4916 
  60   0.0000       1.979339        53.8605 
  61   0.0000       2.015080        54.8331 
  62   0.0000       2.188692        59.5573 
  63   0.0000       2.211003        60.1644 
  64   0.0000       2.310156        62.8625 
  65   0.0000       2.350245        63.9534 
  66   0.0000       2.387307        64.9619 
  67   0.0000       2.468445        67.1698 
  68   0.0000       2.489385        67.7396 
  69   0.0000       2.513404        68.3932 
  70   0.0000       2.562929        69.7408 
  71   0.0000       2.578561        70.1662 
  72   0.0000       2.639693        71.8297 
  73   0.0000       2.667028        72.5735 
  74   0.0000       2.737382        74.4879 
  75   0.0000       2.832976        77.0892 
  76   0.0000       2.929184        79.7071 
  77   0.0000       2.965794        80.7034 
  78   0.0000       2.977709        81.0276 
  79   0.0000       2.999938        81.6325 
  80   0.0000       3.080872        83.8348 
  81   0.0000       3.109509        84.6140 
  82   0.0000       3.153141        85.8013 
  83   0.0000       3.188853        86.7731 
  84   0.0000       3.199761        87.0699 
  85   0.0000       3.230301        87.9009 
  86   0.0000       3.307288        89.9959 
  87   0.0000       3.356385        91.3319 
  88   0.0000       3.480461        94.7082 
  89   0.0000       3.484182        94.8094 
  90   0.0000       3.535504        96.2059 
  91   0.0000       3.605982        98.1238 
  92   0.0000       3.711874       101.0052 
  93   0.0000       3.813545       103.7718 
  94   0.0000       3.936180       107.1089 
  95   0.0000       4.000614       108.8622 
  96   0.0000       4.099143       111.5434 
  97   0.0000       4.351373       118.4069 
  98   0.0000       4.415017       120.1387 
  99   0.0000       4.524948       123.1301 
 100   0.0000       4.549177       123.7894 
 101   0.0000       4.696430       127.7964 
 102   0.0000       5.184020       141.0643 
 103   0.0000       5.233776       142.4183 
 104   0.0000       5.377672       146.3339 
 105   0.0000       5.397782       146.8811 
 106   0.0000       5.734872       156.0538 
 107   0.0000       5.754195       156.5796 
 108   0.0000       5.941256       161.6698 
 109   0.0000       6.351069       172.8214 
 110   0.0000       6.390887       173.9049 
 111   0.0000       6.782949       184.5734 
 112   0.0000       6.789156       184.7423 
 113   0.0000       6.952177       189.1783 
 114   0.0000      22.071347       600.5919 
 115   0.0000      22.421674       610.1248 
 116   0.0000      43.757231      1190.6948 

                    ********************************
                    * MULLIKEN POPULATION ANALYSIS *
                    ********************************

-----------------------
MULLIKEN ATOMIC CHARGES
-----------------------
   0 O :   -0.361955
   1 C :   -0.081016
   2 C :   -0.146541
   3 H :    0.141258
   4 H :    0.123936
   5 H :    0.164710
   6 H :    0.159609
Sum of atomic charges:   -0.0000000

--------------------------------
MULLIKEN REDUCED ORBITAL CHARGES
--------------------------------
  0 O s       :     3.912483  s :     3.912483
      pz      :     1.931095  p :     4.424337
      px      :     1.142236
      py      :     1.351007
      dz2     :     0.003109  d :     0.023919
      dxz     :     0.000206
      dyz     :     0.005745
      dx2y2   :     0.008724
      dxy     :     0.006135
      f0      :     0.000149  f :     0.001216
      f+1     :     0.000070
      f-1     :     0.000272
      f+2     :     0.000176
      f-2     :     0.000023
      f+3     :     0.000261
      f-3     :     0.000266
  1 C s       :     3.211459  s :     3.211459
      pz      :     1.087553  p :     2.708246
      px      :     0.895017
      py      :     0.725676
      dz2     :     0.014609  d :     0.151339
      dxz     :     0.019733
      dyz     :     0.042661
      dx2y2   :     0.022746
      dxy     :     0.051591
      f0      :     0.001953  f :     0.009972
      f+1     :     0.001318
      f-1     :     0.000589
      f+2     :     0.002672
      f-2     :     0.000313
      f+3     :     0.002757
      f-3     :     0.000370
  2 C s       :     3.282623  s :     3.282623
      pz      :     1.040191  p :     2.813461
      px      :     0.997680
      py      :     0.775590
      dz2     :     0.006905  d :     0.046368
      dxz     :     0.016523
      dyz     :     0.004346
      dx2y2   :     0.004968
      dxy     :     0.013626
      f0      :     0.000545  f :     0.004089
      f+1     :     0.000867
      f-1     :     0.000242
      f+2     :     0.000518
      f-2     :     0.000259
      f+3     :     0.000697
      f-3     :     0.000959
  3 H s       :     0.832363  s :     0.832363
      pz      :     0.010953  p :     0.026379
      px      :     0.007563
      py      :     0.007863
  4 H s       :     0.855290  s :     0.855290
      pz      :     0.010765  p :     0.020775
      px      :     0.005261
      py      :     0.004749
  5 H s       :     0.811229  s :     0.811229
      pz      :     0.010800  p :     0.024061
      px      :     0.007531
      py      :     0.005730
  6 H s       :     0.816170  s :     0.816170
      pz      :     0.011955  p :     0.024221
      px      :     0.006517
      py      :     0.005750


                     *******************************
                     * LOEWDIN POPULATION ANALYSIS *
                     *******************************

----------------------
LOEWDIN ATOMIC CHARGES
----------------------
   0 O :   -0.042920
   1 C :   -0.421113
   2 C :   -0.026476
   3 H :    0.104671
   4 H :    0.129934
   5 H :    0.126923
   6 H :    0.128981

-------------------------------
LOEWDIN REDUCED ORBITAL CHARGES
-------------------------------
  0 O s       :     3.574489  s :     3.574489
      pz      :     1.857651  p :     4.408578
      px      :     1.099515
      py      :     1.451411
      dz2     :     0.006463  d :     0.056215
      dxz     :     0.000266
      dyz     :     0.016876
      dx2y2   :     0.018021
      dxy     :     0.014589
      f0      :     0.000420  f :     0.003638
      f+1     :     0.000105
      f-1     :     0.000522
      f+2     :     0.000757
      f-2     :     0.000070
      f+3     :     0.000926
      f-3     :     0.000837
  1 C s       :     2.844374  s :     2.844374
      pz      :     1.070589  p :     2.947535
      px      :     1.017948
      py      :     0.858998
      dz2     :     0.075254  d :     0.559979
      dxz     :     0.090496
      dyz     :     0.113461
      dx2y2   :     0.121087
      dxy     :     0.159680
      f0      :     0.011409  f :     0.069226
      f+1     :     0.006414
      f-1     :     0.006756
      f+2     :     0.014710
      f-2     :     0.002528
      f+3     :     0.019553
      f-3     :     0.007856
  2 C s       :     2.910739  s :     2.910739
      pz      :     1.087775  p :     2.896399
      px      :     1.099951
      py      :     0.708673
      dz2     :     0.031810  d :     0.197715
      dxz     :     0.077285
      dyz     :     0.017288
      dx2y2   :     0.034053
      dxy     :     0.037279
      f0      :     0.003017  f :     0.021623
      f+1     :     0.002807
      f-1     :     0.001887
      f+2     :     0.002998
      f-2     :     0.002582
      f+3     :     0.003698
      f-3     :     0.004634
  3 H s       :     0.813662  s :     0.813662
      pz      :     0.035303  p :     0.081668
      px      :     0.023635
      py      :     0.022730
  4 H s       :     0.813214  s :     0.813214
      pz      :     0.030187  p :     0.056852
      px      :     0.014417
      py      :     0.012248
  5 H s       :     0.801328  s :     0.801328
      pz      :     0.033701  p :     0.071749
      px      :     0.020940
      py      :     0.017109
  6 H s       :     0.798892  s :     0.798892
      pz      :     0.036555  p :     0.072126
      px      :     0.018522
      py      :     0.017050


                      *****************************
                      * MAYER POPULATION ANALYSIS *
                      *****************************

  NA   - Mulliken gross atomic population
  ZA   - Total nuclear charge
  QA   - Mulliken gross atomic charge
  VA   - Mayer's total valence
  BVA  - Mayer's bonded valence
  FA   - Mayer's free valence

  ATOM       NA         ZA         QA         VA         BVA        FA
  0 O      8.3620     8.0000    -0.3620     1.7883     1.7883    -0.0000
  1 C      6.0810     6.0000    -0.0810     3.9472     3.9472    -0.0000
  2 C      6.1465     6.0000    -0.1465     3.7834     3.7834    -0.0000
  3 H      0.8587     1.0000     0.1413     0.9999     0.9999    -0.0000
  4 H      0.8761     1.0000     0.1239     0.9794     0.9794    -0.0000
  5 H      0.8353     1.0000     0.1647     0.9682     0.9682    -0.0000
  6 H      0.8404     1.0000     0.1596     0.9661     0.9661    -0.0000

  Mayer bond orders larger than 0.100000
B(  0-O ,  1-C ) :   0.9297 B(  0-O ,  2-C ) :   0.8482 B(  1-C ,  2-C ) :   1.0412 
B(  1-C ,  3-H ) :   0.9952 B(  1-C ,  4-H ) :   0.9747 B(  2-C ,  5-H ) :   0.9468 
B(  2-C ,  6-H ) :   0.9499 

-------
TIMINGS
-------

Total SCF time: 0 days 0 hours 0 min 4 sec 

Total time                  ....       4.031 sec
Sum of individual times     ....       3.669 sec  ( 91.0%)

Fock matrix formation       ....       3.382 sec  ( 83.9%)
  Split-RI-J                ....       0.341 sec  ( 10.1% of F)
  Chain of spheres X        ....       2.350 sec  ( 69.5% of F)
  XC integration            ....       0.612 sec  ( 18.1% of F)
    Basis function eval.    ....       0.173 sec  ( 28.3% of XC)
    Density eval.           ....       0.127 sec  ( 20.7% of XC)
    XC-Functional eval.     ....       0.037 sec  (  6.0% of XC)
    XC-Potential eval.      ....       0.199 sec  ( 32.5% of XC)
Diagonalization             ....       0.019 sec  (  0.5%)
Density matrix formation    ....       0.002 sec  (  0.0%)
Population analysis         ....       0.005 sec  (  0.1%)
Initial guess               ....       0.016 sec  (  0.4%)
Orbital Transformation      ....       0.000 sec  (  0.0%)
Orbital Orthonormalization  ....       0.000 sec  (  0.0%)
DIIS solution               ....       0.015 sec  (  0.4%)
SOSCF solution              ....       0.024 sec  (  0.6%)
Grid generation             ....       0.206 sec  (  5.1%)

Maximum memory used throughout the entire SCF-calculation: 61.0 MB


-------------------------------------------------------------------------------
                          DFT DISPERSION CORRECTION                            
                                                                               
                              DFTD3 V3.1  Rev 1                                
                          USING Becke-Johnson damping                          
-------------------------------------------------------------------------------
The PBE0 functional is recognized
Active option DFTDOPT                   ...         4   

molecular C6(AA) [au] = 394.335426 


            DFT-D V3
 parameters
 s6 scaling factor         :     1.0000 
 a1 scaling factor         :     0.4145 
 s8 scaling factor         :     1.2177 
 a2 scaling factor         :     4.8593 
 ad hoc parameters k1-k3   :    16.0000     1.3333    -4.0000 

 Edisp/kcal,au: -1.652659438985  -0.002633680177 
 E6   /kcal   :  -1.078796223 
 E8   /kcal   :  -0.573863216 
 % E8         :  34.723621947 

-------------------------   ----------------
Dispersion correction           -0.002633680
-------------------------   ----------------


-------------------------   --------------------
FINAL SINGLE POINT ENERGY      -153.509144741396
-------------------------   --------------------



           ************************************************************
           *        Program running with 8 parallel MPI-processes     *
           *              working on a common directory               *
           ************************************************************
------------------------------------------------------------------------------
                         ORCA SCF GRADIENT CALCULATION
------------------------------------------------------------------------------

 ... reading COSX grid (gridx3)
Gradient of the Kohn-Sham DFT energy:
Kohn-Sham wavefunction type      ... RKS
Hartree-Fock exchange scaling    ...    0.250
Number of operators              ...    1
Number of atoms                  ...    7
Basis set dimensions             ...  117
Integral neglect threshold       ... 2.5e-11
Integral primitive cutoff        ... 2.5e-12
SHARK Integral package           ... ON

Nuc. rep. gradient       (SHARK) ... done (  0.0 sec)
HCore & Overlap gradient (SHARK) ... done (  0.0 sec)
RI-J gradient            (SHARK) ... done (  0.1 sec)
COSX-gradient                    ... done (  0.4 sec)
Exchange-correlation gradient    ... done
Dispersion correction            ... done

------------------
CARTESIAN GRADIENT
------------------

   1   O   :   -0.082804817   -0.034704914    0.004725442
   2   C   :   -0.003770257   -0.041788542    0.086675660
   3   C   :    0.102186059    0.019925354   -0.011582174
   4   H   :    0.022245947    0.062905521   -0.058214917
   5   H   :   -0.014109802    0.036957726   -0.020702956
   6   H   :   -0.007832380   -0.021673102    0.018703591
   7   H   :   -0.015969701   -0.021697388   -0.019634225

Difference to translation invariance:
           :   -0.0000549505   -0.0000753440   -0.0000295794

Difference to rotation invariance:
           :    0.0000277266   -0.0000125837    0.0002116707

Norm of the cartesian gradient     ...    0.2003907754
RMS gradient                       ...    0.0437288522
MAX gradient                       ...    0.1021860586

-------
TIMINGS
-------

Total SCF gradient time            ...        0.809 sec

One electron gradient       ....       0.010 sec  (  1.3%)
RI-J Coulomb gradient       ....       0.084 sec  ( 10.4%)
COSX gradient               ....       0.377 sec  ( 46.6%)
XC gradient                 ....       0.189 sec  ( 23.3%)

Maximum memory used throughout the entire SCFGRAD-calculation: 35.9 MB

                            ***************************************
                            *     ORCA property calculations      *
                            ***************************************

                                    ---------------------
                                    Active property flags
                                    ---------------------
   (+) Dipole Moment


------------------------------------------------------------------------------
                       ORCA ELECTRIC PROPERTIES CALCULATION
------------------------------------------------------------------------------

Dipole Moment Calculation                       ... on
Quadrupole Moment Calculation                   ... off
Polarizability Calculation                      ... off
GBWName                                         ... ox_gs_E_orca0009.gbw
Electron density                                ... ox_gs_E_orca0009.scfp
The origin for moment calculation is the CENTER OF MASS  = (-0.672619,  0.032697  0.016922)

-------------
DIPOLE MOMENT
-------------
                                X             Y             Z
Electronic contribution:     -0.63236       1.46439       0.09823
Nuclear contribution   :      1.27533      -2.58770      -0.10045
                        -----------------------------------------
Total Dipole Moment    :      0.64297      -1.12331      -0.00221
                        -----------------------------------------
Magnitude (a.u.)       :      1.29431
Magnitude (Debye)      :      3.28988



--------------------
Rotational spectrum 
--------------------
 
Rotational constants in cm-1:     1.204079     0.391973     0.335687 
Rotational constants in MHz : 36097.366582 11751.048796 10063.652593 

 Dipole components along the rotational axes: 
x,y,z [a.u.] :    -1.149042    -0.595182     0.026463 
x,y,z [Debye]:    -2.920632    -1.512832     0.067264 

 

Timings for individual modules:

Sum of individual times         ...        5.505 sec (=   0.092 min)
GTO integral calculation        ...        0.287 sec (=   0.005 min)   5.2 %
SCF iterations                  ...        4.206 sec (=   0.070 min)  76.4 %
SCF Gradient evaluation         ...        1.013 sec (=   0.017 min)  18.4 %
                             ****ORCA TERMINATED NORMALLY****
TOTAL RUN TIME: 0 days 0 hours 0 minutes 5 seconds 833 msec
