
                                 *****************
                                 * O   R   C   A *
                                 *****************

                                            #,                                       
                                            ###                                      
                                            ####                                     
                                            #####                                    
                                            ######                                   
                                           ########,                                 
                                     ,,################,,,,,                         
                               ,,#################################,,                 
                          ,,##########################################,,             
                       ,#########################################, ''#####,          
                    ,#############################################,,   '####,        
                  ,##################################################,,,,####,       
                ,###########''''           ''''###############################       
              ,#####''   ,,,,##########,,,,          '''####'''          '####       
            ,##' ,,,,###########################,,,                        '##       
           ' ,,###''''                  '''############,,,                           
         ,,##''                                '''############,,,,        ,,,,,,###''
      ,#''                                            '''#######################'''  
     '                                                          ''''####''''         
             ,#######,   #######,   ,#######,      ##                                
            ,#'     '#,  ##    ##  ,#'     '#,    #''#        ######   ,####,        
            ##       ##  ##   ,#'  ##            #'  '#       #        #'  '#        
            ##       ##  #######   ##           ,######,      #####,   #    #        
            '#,     ,#'  ##    ##  '#,     ,#' ,#      #,         ##   #,  ,#        
             '#######'   ##     ##  '#######'  #'      '#     #####' # '####'        



                  #######################################################
                  #                        -***-                        #
                  #          Department of theory and spectroscopy      #
                  #    Directorship and core code : Frank Neese         #
                  #        Max Planck Institute fuer Kohlenforschung    #
                  #                Kaiser Wilhelm Platz 1               #
                  #                 D-45470 Muelheim/Ruhr               #
                  #                      Germany                        #
                  #                                                     #
                  #                  All rights reserved                #
                  #                        -***-                        #
                  #######################################################


                         Program Version 5.0.2 -  RELEASE  -


 With contributions from (in alphabetic order):
   Daniel Aravena         : Magnetic Suceptibility
   Michael Atanasov       : Ab Initio Ligand Field Theory (pilot matlab implementation)
   Alexander A. Auer      : GIAO ZORA, VPT2 properties, NMR spectrum
   Ute Becker             : Parallelization
   Giovanni Bistoni       : ED, misc. LED, open-shell LED, HFLD
   Martin Brehm           : Molecular dynamics
   Dmytro Bykov           : SCF Hessian
   Vijay G. Chilkuri      : MRCI spin determinant printing, contributions to CSF-ICE
   Dipayan Datta          : RHF DLPNO-CCSD density
   Achintya Kumar Dutta   : EOM-CC, STEOM-CC
   Dmitry Ganyushin       : Spin-Orbit,Spin-Spin,Magnetic field MRCI
   Miquel Garcia          : C-PCM and meta-GGA Hessian, CC/C-PCM, Gaussian charge scheme
   Yang Guo               : DLPNO-NEVPT2, F12-NEVPT2, CIM, IAO-localization
   Andreas Hansen         : Spin unrestricted coupled pair/coupled cluster methods
   Benjamin Helmich-Paris : MC-RPA, TRAH-SCF, COSX integrals
   Lee Huntington         : MR-EOM, pCC
   Robert Izsak           : Overlap fitted RIJCOSX, COSX-SCS-MP3, EOM
   Marcus Kettner         : VPT2
   Christian Kollmar      : KDIIS, OOCD, Brueckner-CCSD(T), CCSD density, CASPT2, CASPT2-K
   Simone Kossmann        : Meta GGA functionals, TD-DFT gradient, OOMP2, MP2 Hessian
   Martin Krupicka        : Initial AUTO-CI
   Lucas Lang             : DCDCAS
   Marvin Lechner         : AUTO-CI (C++ implementation), FIC-MRCC
   Dagmar Lenk            : GEPOL surface, SMD
   Dimitrios Liakos       : Extrapolation schemes; Compound Job, initial MDCI parallelization
   Dimitrios Manganas     : Further ROCIS development; embedding schemes
   Dimitrios Pantazis     : SARC Basis sets
   Anastasios Papadopoulos: AUTO-CI, single reference methods and gradients
   Taras Petrenko         : DFT Hessian,TD-DFT gradient, ASA, ECA, R-Raman, ABS, FL, XAS/XES, NRVS
   Peter Pinski           : DLPNO-MP2, DLPNO-MP2 Gradient
   Christoph Reimann      : Effective Core Potentials
   Marius Retegan         : Local ZFS, SOC
   Christoph Riplinger    : Optimizer, TS searches, QM/MM, DLPNO-CCSD(T), (RO)-DLPNO pert. Triples
   Tobias Risthaus        : Range-separated hybrids, TD-DFT gradient, RPA, STAB
   Michael Roemelt        : Original ROCIS implementation
   Masaaki Saitow         : Open-shell DLPNO-CCSD energy and density
   Barbara Sandhoefer     : DKH picture change effects
   Avijit Sen             : IP-ROCIS
   Kantharuban Sivalingam : CASSCF convergence, NEVPT2, FIC-MRCI
   Bernardo de Souza      : ESD, SOC TD-DFT
   Georgi Stoychev        : AutoAux, RI-MP2 NMR, DLPNO-MP2 response
   Willem Van den Heuvel  : Paramagnetic NMR
   Boris Wezisla          : Elementary symmetry handling
   Frank Wennmohs         : Technical directorship


 We gratefully acknowledge several colleagues who have allowed us to
 interface, adapt or use parts of their codes:
   Stefan Grimme, W. Hujo, H. Kruse, P. Pracht,  : VdW corrections, initial TS optimization,
                  C. Bannwarth, S. Ehlert          DFT functionals, gCP, sTDA/sTD-DF
   Ed Valeev, F. Pavosevic, A. Kumar             : LibInt (2-el integral package), F12 methods
   Garnet Chan, S. Sharma, J. Yang, R. Olivares  : DMRG
   Ulf Ekstrom                                   : XCFun DFT Library
   Mihaly Kallay                                 : mrcc  (arbitrary order and MRCC methods)
   Jiri Pittner, Ondrej Demel                    : Mk-CCSD
   Frank Weinhold                                : gennbo (NPA and NBO analysis)
   Christopher J. Cramer and Donald G. Truhlar   : smd solvation model
   Lars Goerigk                                  : TD-DFT with DH, B97 family of functionals
   V. Asgeirsson, H. Jonsson                     : NEB implementation
   FAccTs GmbH                                   : IRC, NEB, NEB-TS, DLPNO-Multilevel, CI-OPT
                                                   MM, QMMM, 2- and 3-layer-ONIOM, Crystal-QMMM,
                                                   LR-CPCM, SF, NACMEs, symmetry and pop. for TD-DFT,
                                                   nearIR, NL-DFT gradient (VV10), updates on ESD,
                                                   ML-optimized integration grids
   S Lehtola, MJT Oliveira, MAL Marques          : LibXC Library
   Liviu Ungur et al                             : ANISO software


 Your calculation uses the libint2 library for the computation of 2-el integrals
 For citations please refer to: http://libint.valeyev.net

 Your ORCA version has been built with support for libXC version: 5.1.0
 For citations please refer to: https://tddft.org/programs/libxc/

 This ORCA versions uses:
   CBLAS   interface :  Fast vector & matrix operations
   LAPACKE interface :  Fast linear algebra routines
   SCALAPACK package :  Parallel linear algebra routines
   Shared memory     :  Shared parallel matrices
   BLAS/LAPACK       :  OpenBLAS 0.3.15  USE64BITINT DYNAMIC_ARCH NO_AFFINITY SkylakeX SINGLE_THREADED
        Core in use  :  SkylakeX
   Copyright (c) 2011-2014, The OpenBLAS Project


Your calculation utilizes the atom-pairwise dispersion correction
with the Becke-Johnson damping scheme (D3BJ)
Cite in your paper:
S.Grimme, S.Ehrlich, L.Goerigk, J Comput Chem, (2011), 32, 1456–1465 
S.Grimme, J.Antony, S.Ehrlich and H.Krieg, J.Chem.Phys., 132, (2010), 154104 
   

================================================================================

----- Orbital basis set information -----
Your calculation utilizes the basis: def2-TZVP
   F. Weigend and R. Ahlrichs, Phys. Chem. Chem. Phys. 7, 3297 (2005).

----- AuxJ basis set information -----
Your calculation utilizes the auxiliary basis: def2/J
   F. Weigend, Phys. Chem. Chem. Phys. 8, 1057 (2006).

================================================================================
                                        WARNINGS
                       Please study these warnings very carefully!
================================================================================


INFO   : the flag for use of the SHARK integral package has been found!

================================================================================
                                       INPUT FILE
================================================================================
NAME = ox_gs_D_orca0007.inp
|  1> ! engrad PBE0 D3BJ def2-TZVP  
|  2> %pal nprocs 8 end
|  3> %maxcore 3000
|  4>  
|  5> *xyz 0 1 
|  6> O   -0.7211924901755584 0.9914815480494275 -0.024017823758860597
|  7> C   -0.7325029764069814 -0.3984807993279228 -0.05035880982216209
|  8> C   0.7218645843583106 -0.4372571989801323 -0.013345280946018057
|  9> H   -1.290944104464895 -0.7579778831085495 0.9671733503710132
| 10> H   -1.2452919417895427 -0.645628284440856 -0.9674751640973431
| 11> H   1.2870463358049333 -0.6525988159959619 -0.964556401960299
| 12> H   1.1679828002250265 -0.687012843572781 0.9766613294704894
| 13> *
| 14> 
| 15>                          ****END OF INPUT****
================================================================================

                     *******************************
                     * Energy+Gradient Calculation *
                     *******************************

---------------------------------
CARTESIAN COORDINATES (ANGSTROEM)
---------------------------------
  O     -0.721192    0.991482   -0.024018
  C     -0.732503   -0.398481   -0.050359
  C      0.721865   -0.437257   -0.013345
  H     -1.290944   -0.757978    0.967173
  H     -1.245292   -0.645628   -0.967475
  H      1.287046   -0.652599   -0.964556
  H      1.167983   -0.687013    0.976661

----------------------------
CARTESIAN COORDINATES (A.U.)
----------------------------
  NO LB      ZA    FRAG     MASS         X           Y           Z
   0 O     8.0000    0    15.999   -1.362856    1.873629   -0.045387
   1 C     6.0000    0    12.011   -1.384230   -0.753020   -0.095164
   2 C     6.0000    0    12.011    1.364126   -0.826296   -0.025219
   3 H     1.0000    0     1.008   -2.439531   -1.432371    1.827693
   4 H     1.0000    0     1.008   -2.353261   -1.220061   -1.828263
   5 H     1.0000    0     1.008    2.432165   -1.233233   -1.822747
   6 H     1.0000    0     1.008    2.207168   -1.298266    1.845622

--------------------------------
INTERNAL COORDINATES (ANGSTROEM)
--------------------------------
 O      0   0   0     0.000000000000     0.00000000     0.00000000
 C      1   0   0     1.390257926348     0.00000000     0.00000000
 C      2   1   0     1.455355149885    91.03289259     0.00000000
 H      2   1   3     1.215099314369   106.47924803   116.99564916
 H      2   1   3     1.079415031253   104.41115794   239.27688652
 H      3   2   1     1.127211169626   118.99193041   257.17201088
 H      3   2   1     1.114231768171   115.38379432   102.55013004

---------------------------
INTERNAL COORDINATES (A.U.)
---------------------------
 O      0   0   0     0.000000000000     0.00000000     0.00000000
 C      1   0   0     2.627206736310     0.00000000     0.00000000
 C      2   1   0     2.750222660874    91.03289259     0.00000000
 H      2   1   3     2.296204929673   106.47924803   116.99564916
 H      2   1   3     2.039798793906   104.41115794   239.27688652
 H      3   2   1     2.130120405689   118.99193041   257.17201088
 H      3   2   1     2.105592891559   115.38379432   102.55013004

---------------------
BASIS SET INFORMATION
---------------------
There are 3 groups of distinct atoms

 Group   1 Type O   : 11s6p2d1f contracted to 5s3p2d1f pattern {62111/411/11/1}
 Group   2 Type C   : 11s6p2d1f contracted to 5s3p2d1f pattern {62111/411/11/1}
 Group   3 Type H   : 5s1p contracted to 3s1p pattern {311/1}

Atom   0O    basis set group =>   1
Atom   1C    basis set group =>   2
Atom   2C    basis set group =>   2
Atom   3H    basis set group =>   3
Atom   4H    basis set group =>   3
Atom   5H    basis set group =>   3
Atom   6H    basis set group =>   3
---------------------------------
AUXILIARY/J BASIS SET INFORMATION
---------------------------------
There are 3 groups of distinct atoms

 Group   1 Type O   : 12s5p4d2f1g contracted to 6s4p3d1f1g pattern {711111/2111/211/2/1}
 Group   2 Type C   : 12s5p4d2f1g contracted to 6s4p3d1f1g pattern {711111/2111/211/2/1}
 Group   3 Type H   : 5s2p1d contracted to 3s1p1d pattern {311/2/1}

Atom   0O    basis set group =>   1
Atom   1C    basis set group =>   2
Atom   2C    basis set group =>   2
Atom   3H    basis set group =>   3
Atom   4H    basis set group =>   3
Atom   5H    basis set group =>   3
Atom   6H    basis set group =>   3


           ************************************************************
           *        Program running with 8 parallel MPI-processes     *
           *              working on a common directory               *
           ************************************************************
------------------------------------------------------------------------------
                           ORCA GTO INTEGRAL CALCULATION
                           -- RI-GTO INTEGRALS CHOSEN --
------------------------------------------------------------------------------
------------------------------------------------------------------------------
                   ___                                                        
                  /   \      - P O W E R E D   B Y -                         
                 /     \                                                     
                 |  |  |   _    _      __       _____    __    __             
                 |  |  |  | |  | |    /  \     |  _  \  |  |  /  |          
                  \  \/   | |  | |   /    \    | | | |  |  | /  /          
                 / \  \   | |__| |  /  /\  \   | |_| |  |  |/  /          
                |  |  |   |  __  | /  /__\  \  |    /   |      \           
                |  |  |   | |  | | |   __   |  |    \   |  |\   \          
                \     /   | |  | | |  |  |  |  | |\  \  |  | \   \       
                 \___/    |_|  |_| |__|  |__|  |_| \__\ |__|  \__/        
                                                                              
                      - O R C A' S   B I G   F R I E N D -                    
                                      &                                       
                       - I N T E G R A L  F E E D E R -                       
                                                                              
 v1 FN, 2020, v2 2021                                                         
------------------------------------------------------------------------------


Reading SHARK input file ox_gs_D_orca0007.SHARKINP.tmp ... ok
----------------------
SHARK INTEGRAL PACKAGE
----------------------

Number of atoms                             ...      7
Number of basis functions                   ...    117
Number of shells                            ...     49
Maximum angular momentum                    ...      3
Integral batch strategy                     ... SHARK/LIBINT Hybrid
RI-J (if used) integral strategy            ... SPLIT-RIJ (Revised 2003 algorithm where possible)
Printlevel                                  ...      1
Contraction scheme used                     ... SEGMENTED contraction
Coulomb Range Separation                    ... NOT USED
Exchange Range Separation                   ... NOT USED
Finite Nucleus Model                        ... NOT USED
Auxiliary Coulomb fitting basis             ... AVAILABLE
   # of basis functions in Aux-J            ...    191
   # of shells in Aux-J                     ...     65
   Maximum angular momentum in Aux-J        ...      4
Auxiliary J/K fitting basis                 ... NOT available
Auxiliary Correlation fitting basis         ... NOT available
Auxiliary 'external' fitting basis          ... NOT available
Integral threshold                          ...     2.500000e-11
Primitive cut-off                           ...     2.500000e-12
Primitive pair pre-selection threshold      ...     2.500000e-12

Calculating pre-screening integrals         ... done (  0.0 sec) Dimension = 49
Organizing shell pair data                  ... done (  0.0 sec)
Shell pair information
Total number of shell pairs                 ...      1225
Shell pairs after pre-screening             ...      1216
Total number of primitive shell pairs       ...      3648
Primitive shell pairs kept                  ...      3095
          la=0 lb=0:    369 shell pairs
          la=1 lb=0:    351 shell pairs
          la=1 lb=1:     91 shell pairs
          la=2 lb=0:    162 shell pairs
          la=2 lb=1:     78 shell pairs
          la=2 lb=2:     21 shell pairs
          la=3 lb=0:     81 shell pairs
          la=3 lb=1:     39 shell pairs
          la=3 lb=2:     18 shell pairs
          la=3 lb=3:      6 shell pairs

Calculating one electron integrals          ... done (  0.0 sec)
Calculating RI/J V-Matrix + Cholesky decomp.... done (  0.0 sec)
Calculating Nuclear repulsion               ... done (  0.0 sec) ENN=     69.398089648247 Eh

SHARK setup successfully completed in   0.1 seconds

Maximum memory used throughout the entire GTOINT-calculation: 14.9 MB


           ************************************************************
           *        Program running with 8 parallel MPI-processes     *
           *              working on a common directory               *
           ************************************************************
-------------------------------------------------------------------------------
                                 ORCA SCF
-------------------------------------------------------------------------------

------------
SCF SETTINGS
------------
Hamiltonian:
 Density Functional     Method          .... DFT(GTOs)
 Exchange Functional    Exchange        .... PBE
   PBE kappa parameter   XKappa         ....  0.804000
   PBE mue parameter    XMuePBE         ....  0.219520
 Correlation Functional Correlation     .... PBE
   PBE beta parameter  CBetaPBE         ....  0.066725
 LDA part of GGA corr.  LDAOpt          .... PW91-LDA
 Gradients option       PostSCFGGA      .... off
 Hybrid DFT is turned on
   Fraction HF Exchange ScalHFX         ....  0.250000
   Scaling of DF-GGA-X  ScalDFX         ....  0.750000
   Scaling of DF-GGA-C  ScalDFC         ....  1.000000
   Scaling of DF-LDA-C  ScalLDAC        ....  1.000000
   Perturbative correction              ....  0.000000
   Density functional embedding theory  .... OFF
   NL short-range parameter             ....  6.900000
 RI-approximation to the Coulomb term is turned on
   Number of AuxJ basis functions       .... 191
   RIJ-COSX (HFX calculated with COS-X)).... on


General Settings:
 Integral files         IntName         .... ox_gs_D_orca0007
 Hartree-Fock type      HFTyp           .... RHF
 Total Charge           Charge          ....    0
 Multiplicity           Mult            ....    1
 Number of Electrons    NEL             ....   24
 Basis Dimension        Dim             ....  117
 Nuclear Repulsion      ENuc            ....     69.3980896482 Eh

Convergence Acceleration:
 DIIS                   CNVDIIS         .... on
   Start iteration      DIISMaxIt       ....    12
   Startup error        DIISStart       ....  0.200000
   # of expansion vecs  DIISMaxEq       ....     5
   Bias factor          DIISBfac        ....   1.050
   Max. coefficient     DIISMaxC        ....  10.000
 Trust-Rad. Augm. Hess. CNVTRAH         .... auto
   Auto Start mean grad. ratio tolernc. ....  1.125000
   Auto Start start iteration           ....    20
   Auto Start num. interpolation iter.  ....    10
   Max. Number of Micro iterations      ....    16
   Max. Number of Macro iterations      .... Maxiter - #DIIS iter
   Number of Davidson start vectors     ....     2
   Converg. threshold I  (grad. norm)   ....   1.000e-05
   Converg. threshold II (energy diff.) ....   1.000e-08
   Grad. Scal. Fac. for Micro threshold ....   0.100
   Minimum threshold for Micro iter.    ....   0.010
   NR start threshold (gradient norm)   ....   0.001
   Initial trust radius                 ....   0.400
   Minimum AH scaling param. (alpha)    ....   1.000
   Maximum AH scaling param. (alpha)    .... 1000.000
   Orbital update algorithm             .... Taylor
   White noise on init. David. guess    .... on
   Maximum white noise                  ....   0.010
   Quad. conv. algorithm                .... NR
 SOSCF                  CNVSOSCF        .... on
   Start iteration      SOSCFMaxIt      ....   150
   Startup grad/error   SOSCFStart      ....  0.003300
 Level Shifting         CNVShift        .... on
   Level shift para.    LevelShift      ....    0.2500
   Turn off err/grad.   ShiftErr        ....    0.0010
 Zerner damping         CNVZerner       .... off
 Static damping         CNVDamp         .... on
   Fraction old density DampFac         ....    0.7000
   Max. Damping (<1)    DampMax         ....    0.9800
   Min. Damping (>=0)   DampMin         ....    0.0000
   Turn off err/grad.   DampErr         ....    0.1000
 Fernandez-Rico         CNVRico         .... off

SCF Procedure:
 Maximum # iterations   MaxIter         ....   125
 SCF integral mode      SCFMode         .... Direct
   Integral package                     .... SHARK and LIBINT hybrid scheme
 Reset frequency        DirectResetFreq ....    20
 Integral Threshold     Thresh          ....  2.500e-11 Eh
 Primitive CutOff       TCut            ....  2.500e-12 Eh

Convergence Tolerance:
 Convergence Check Mode ConvCheckMode   .... Total+1el-Energy
 Convergence forced     ConvForced      .... 0
 Energy Change          TolE            ....  1.000e-08 Eh
 1-El. energy change                    ....  1.000e-05 Eh
 Orbital Gradient       TolG            ....  1.000e-05
 Orbital Rotation angle TolX            ....  1.000e-05
 DIIS Error             TolErr          ....  5.000e-07


Diagonalization of the overlap matrix:
Smallest eigenvalue                        ... 4.366e-04
Time for diagonalization                   ...    0.001 sec
Threshold for overlap eigenvalues          ... 1.000e-08
Number of eigenvalues below threshold      ... 0
Time for construction of square roots      ...    0.001 sec
Total time needed                          ...    0.003 sec

Time for model grid setup =    0.022 sec

------------------------------
INITIAL GUESS: MODEL POTENTIAL
------------------------------
Loading Hartree-Fock densities                     ... done
Calculating cut-offs                               ... done
Initializing the effective Hamiltonian             ... done
Setting up the integral package (SHARK)            ... done
Starting the Coulomb interaction                   ... done (   0.0 sec)
Reading the grid                                   ... done
Mapping shells                                     ... done
Starting the XC term evaluation                    ... done (   0.0 sec)
  promolecular density results
     # of electrons  =     23.999301860
     EX              =    -19.446836467
     EC              =     -0.765794705
     EX+EC           =    -20.212631171
Transforming the Hamiltonian                       ... done (   0.0 sec)
Diagonalizing the Hamiltonian                      ... done (   0.0 sec)
Back transforming the eigenvectors                 ... done (   0.0 sec)
Now organizing SCF variables                       ... done
                      ------------------
                      INITIAL GUESS DONE (   0.0 sec)
                      ------------------
-------------------
DFT GRID GENERATION
-------------------

General Integration Accuracy     IntAcc      ... 4.388
Radial Grid Type                 RadialGrid  ... OptM3 with GC (2021)
Angular Grid (max. ang.)         AngularGrid ... 4 (Lebedev-302)
Angular grid pruning method      GridPruning ... 4 (adaptive)
Weight generation scheme         WeightScheme... Becke
Basis function cutoff            BFCut       ... 1.0000e-11
Integration weight cutoff        WCut        ... 1.0000e-14
Angular grids for H and He will be reduced by one unit
Partially contracted basis set               ... off
Rotationally invariant grid construction     ... off

Total number of grid points                  ...    31339
Total number of batches                      ...      494
Average number of points per batch           ...       63
Average number of grid points per atom       ...     4477
Time for grid setup =    0.111 sec

--------------------
COSX GRID GENERATION
--------------------

GRIDX 1
-------
General Integration Accuracy     IntAcc      ... 3.816
Radial Grid Type                 RadialGrid  ... OptM3 with GC (2021)
Angular Grid (max. ang.)         AngularGrid ... 1 (Lebedev-50)
Angular grid pruning method      GridPruning ... 4 (adaptive)
Weight generation scheme         WeightScheme... Becke
Basis function cutoff            BFCut       ... 1.0000e-11
Integration weight cutoff        WCut        ... 1.0000e-14
Angular grids for H and He will be reduced by one unit
Partially contracted basis set               ... on
Rotationally invariant grid construction     ... off

Total number of grid points                  ...     4029
Total number of batches                      ...       67
Average number of points per batch           ...       60
Average number of grid points per atom       ...      576
UseSFitting                                  ... on

GRIDX 2
-------
General Integration Accuracy     IntAcc      ... 4.020
Radial Grid Type                 RadialGrid  ... OptM3 with GC (2021)
Angular Grid (max. ang.)         AngularGrid ... 2 (Lebedev-110)
Angular grid pruning method      GridPruning ... 4 (adaptive)
Weight generation scheme         WeightScheme... Becke
Basis function cutoff            BFCut       ... 1.0000e-11
Integration weight cutoff        WCut        ... 1.0000e-14
Angular grids for H and He will be reduced by one unit
Partially contracted basis set               ... on
Rotationally invariant grid construction     ... off

Total number of grid points                  ...     8719
Total number of batches                      ...      139
Average number of points per batch           ...       62
Average number of grid points per atom       ...     1246
UseSFitting                                  ... on

GRIDX 3
-------
General Integration Accuracy     IntAcc      ... 4.338
Radial Grid Type                 RadialGrid  ... OptM3 with GC (2021)
Angular Grid (max. ang.)         AngularGrid ... 3 (Lebedev-194)
Angular grid pruning method      GridPruning ... 4 (adaptive)
Weight generation scheme         WeightScheme... Becke
Basis function cutoff            BFCut       ... 1.0000e-11
Integration weight cutoff        WCut        ... 1.0000e-14
Angular grids for H and He will be reduced by one unit
Partially contracted basis set               ... on
Rotationally invariant grid construction     ... off

Total number of grid points                  ...    19254
Total number of batches                      ...      304
Average number of points per batch           ...       63
Average number of grid points per atom       ...     2751
UseSFitting                                  ... on

Time for X-Grid setup             =    0.072 sec

--------------
SCF ITERATIONS
--------------
ITER       Energy         Delta-E        Max-DP      RMS-DP      [F,P]     Damp
               ***  Starting incremental Fock matrix formation  ***
  0   -153.4422619932   0.000000000000 0.07631864  0.00204030  0.3052754 0.7000
  1   -153.5151377457  -0.072875752506 0.04445291  0.00120249  0.0853301 0.7000
                               ***Turning on DIIS***
  2   -153.5289897783  -0.013852032562 0.03629723  0.00152262  0.0469495 0.0000
  3   -153.5725127682  -0.043522989899 0.02728017  0.00101305  0.0373645 0.0000
  4   -153.5745283591  -0.002015590961 0.01083986  0.00033489  0.0508793 0.0000
  5   -153.5772450809  -0.002716721796 0.00318446  0.00009997  0.0118002 0.0000
  6   -153.5774050848  -0.000160003906 0.00143363  0.00003990  0.0046467 0.0000
                      *** Initiating the SOSCF procedure ***
                           *** Shutting down DIIS ***
                      *** Re-Reading the Fockian *** 
                      *** Removing any level shift *** 
ITER      Energy       Delta-E        Grad      Rot      Max-DP    RMS-DP
  7   -153.57742627  -0.0000211828  0.000390  0.000390  0.000834  0.000033
               *** Restarting incremental Fock matrix formation ***
  8   -153.57742629  -0.0000000239  0.000361  0.002029  0.001144  0.000032
  9   -153.57741785   0.0000084419  0.001372  0.001794  0.001010  0.000024
 10   -153.57742746  -0.0000096077  0.000078  0.000179  0.000109  0.000005
 11   -153.57742745   0.0000000077  0.000087  0.000065  0.000064  0.000003
 12   -153.57742754  -0.0000000917  0.000009  0.000069  0.000022  0.000001
 13   -153.57742754  -0.0000000018  0.000004  0.000058  0.000018  0.000001
                  ***Gradient check signals convergence***
              ***Rediagonalizing the Fockian in SOSCF/NRSCF***

               *****************************************************
               *                     SUCCESS                       *
               *           SCF CONVERGED AFTER  14 CYCLES          *
               *****************************************************

Old exchange energy                            =     -4.948298374 Eh
New exchange energy                            =     -4.948310616 Eh
Exchange energy change after final integration =     -0.000012243 Eh
Total energy after final integration           =   -153.577439787 Eh
Final COS-X integration done in                =     0.338 sec

----------------
TOTAL SCF ENERGY
----------------

Total Energy       :         -153.57743979 Eh           -4179.05460 eV

Components:
Nuclear Repulsion  :           69.39808965 Eh            1888.41802 eV
Electronic Energy  :         -222.97552943 Eh           -6067.47262 eV
One Electron Energy:         -345.63897230 Eh           -9405.31459 eV
Two Electron Energy:          122.66344286 Eh            3337.84197 eV
Max COSX asymmetry :            0.00000107 Eh               0.00003 eV

Virial components:
Potential Energy   :         -306.15717316 Eh           -8330.96022 eV
Kinetic Energy     :          152.57973337 Eh            4151.90562 eV
Virial Ratio       :            2.00653892


DFT components:
N(Alpha)           :       12.000009437352 electrons
N(Beta)            :       12.000009437352 electrons
N(Total)           :       24.000018874704 electrons
E(X)               :      -14.853311158360 Eh       
E(C)               :       -0.772931560368 Eh       
E(XC)              :      -15.626242718728 Eh       
DFET-embed. en.    :        0.000000000000 Eh       

---------------
SCF CONVERGENCE
---------------

  Last Energy change         ...   -9.2976e-10  Tolerance :   1.0000e-08
  Last MAX-Density change    ...    8.8818e-16  Tolerance :   1.0000e-07
  Last RMS-Density change    ...    2.2593e-17  Tolerance :   5.0000e-09
  Last Orbital Gradient      ...    2.1108e-06  Tolerance :   1.0000e-05
  Last Orbital Rotation      ...    7.8673e-06  Tolerance :   1.0000e-05

             **** THE GBW FILE WAS UPDATED (ox_gs_D_orca0007.gbw) ****
             **** DENSITY ox_gs_D_orca0007.scfp WAS UPDATED ****
             **** ENERGY FILE WAS UPDATED (ox_gs_D_orca0007.en.tmp) ****
             **** THE GBW FILE WAS UPDATED (ox_gs_D_orca0007.gbw) ****
             **** DENSITY ox_gs_D_orca0007.scfp WAS UPDATED ****
----------------
ORBITAL ENERGIES
----------------

  NO   OCC          E(Eh)            E(eV) 
   0   2.0000     -19.210008      -522.7309 
   1   2.0000     -10.320121      -280.8248 
   2   2.0000     -10.280708      -279.7523 
   3   2.0000      -1.018489       -27.7145 
   4   2.0000      -0.760009       -20.6809 
   5   2.0000      -0.615358       -16.7447 
   6   2.0000      -0.518217       -14.1014 
   7   2.0000      -0.478479       -13.0201 
   8   2.0000      -0.413945       -11.2640 
   9   2.0000      -0.404935       -11.0188 
  10   2.0000      -0.290584        -7.9072 
  11   2.0000      -0.264888        -7.2080 
  12   0.0000      -0.112555        -3.0628 
  13   0.0000       0.046646         1.2693 
  14   0.0000       0.071128         1.9355 
  15   0.0000       0.086064         2.3419 
  16   0.0000       0.128717         3.5026 
  17   0.0000       0.146500         3.9865 
  18   0.0000       0.179745         4.8911 
  19   0.0000       0.196393         5.3441 
  20   0.0000       0.237841         6.4720 
  21   0.0000       0.257160         6.9977 
  22   0.0000       0.274125         7.4593 
  23   0.0000       0.339285         9.2324 
  24   0.0000       0.375122        10.2076 
  25   0.0000       0.384205        10.4547 
  26   0.0000       0.396968        10.8020 
  27   0.0000       0.415826        11.3152 
  28   0.0000       0.423803        11.5323 
  29   0.0000       0.475687        12.9441 
  30   0.0000       0.494283        13.4501 
  31   0.0000       0.515953        14.0398 
  32   0.0000       0.548462        14.9244 
  33   0.0000       0.618901        16.8411 
  34   0.0000       0.655559        17.8387 
  35   0.0000       0.753937        20.5157 
  36   0.0000       0.808726        22.0066 
  37   0.0000       0.854026        23.2392 
  38   0.0000       0.882616        24.0172 
  39   0.0000       0.918412        24.9913 
  40   0.0000       0.945974        25.7413 
  41   0.0000       1.041579        28.3428 
  42   0.0000       1.043796        28.4031 
  43   0.0000       1.072698        29.1896 
  44   0.0000       1.178698        32.0740 
  45   0.0000       1.329219        36.1699 
  46   0.0000       1.390925        37.8490 
  47   0.0000       1.474611        40.1262 
  48   0.0000       1.507676        41.0260 
  49   0.0000       1.544772        42.0354 
  50   0.0000       1.563928        42.5567 
  51   0.0000       1.605993        43.7013 
  52   0.0000       1.641919        44.6789 
  53   0.0000       1.673920        45.5497 
  54   0.0000       1.704249        46.3750 
  55   0.0000       1.759514        47.8788 
  56   0.0000       1.799586        48.9692 
  57   0.0000       1.845987        50.2319 
  58   0.0000       1.865728        50.7690 
  59   0.0000       1.899644        51.6919 
  60   0.0000       1.985672        54.0329 
  61   0.0000       2.086154        56.7671 
  62   0.0000       2.101002        57.1712 
  63   0.0000       2.210691        60.1560 
  64   0.0000       2.314175        62.9719 
  65   0.0000       2.367348        64.4188 
  66   0.0000       2.375255        64.6340 
  67   0.0000       2.451172        66.6998 
  68   0.0000       2.467719        67.1500 
  69   0.0000       2.489106        67.7320 
  70   0.0000       2.553751        69.4911 
  71   0.0000       2.566837        69.8472 
  72   0.0000       2.587587        70.4118 
  73   0.0000       2.686113        73.0928 
  74   0.0000       2.763499        75.1986 
  75   0.0000       2.802561        76.2616 
  76   0.0000       2.838638        77.2433 
  77   0.0000       2.935729        79.8852 
  78   0.0000       2.970866        80.8414 
  79   0.0000       2.995403        81.5091 
  80   0.0000       3.053223        83.0824 
  81   0.0000       3.093366        84.1748 
  82   0.0000       3.108492        84.5864 
  83   0.0000       3.155598        85.8682 
  84   0.0000       3.161566        86.0306 
  85   0.0000       3.194185        86.9182 
  86   0.0000       3.334470        90.7355 
  87   0.0000       3.400220        92.5247 
  88   0.0000       3.446666        93.7886 
  89   0.0000       3.501558        95.2822 
  90   0.0000       3.566521        97.0500 
  91   0.0000       3.683600       100.2359 
  92   0.0000       3.693814       100.5138 
  93   0.0000       3.835995       104.3827 
  94   0.0000       3.919228       106.6476 
  95   0.0000       3.983476       108.3959 
  96   0.0000       4.099135       111.5431 
  97   0.0000       4.218338       114.7868 
  98   0.0000       4.346488       118.2740 
  99   0.0000       4.486708       122.0895 
 100   0.0000       4.499226       122.4302 
 101   0.0000       4.734284       128.8264 
 102   0.0000       5.208965       141.7431 
 103   0.0000       5.271589       143.4472 
 104   0.0000       5.383187       146.4840 
 105   0.0000       5.399165       146.9188 
 106   0.0000       5.803382       157.9181 
 107   0.0000       5.830458       158.6548 
 108   0.0000       5.973827       162.5561 
 109   0.0000       6.387190       173.8043 
 110   0.0000       6.459314       175.7669 
 111   0.0000       6.797103       184.9586 
 112   0.0000       6.857923       186.6136 
 113   0.0000       6.952138       189.1773 
 114   0.0000      22.020763       599.2154 
 115   0.0000      22.423604       610.1773 
 116   0.0000      43.732964      1190.0344 

                    ********************************
                    * MULLIKEN POPULATION ANALYSIS *
                    ********************************

-----------------------
MULLIKEN ATOMIC CHARGES
-----------------------
   0 O :   -0.361616
   1 C :   -0.008145
   2 C :   -0.144684
   3 H :    0.082313
   4 H :    0.103082
   5 H :    0.164992
   6 H :    0.164057
Sum of atomic charges:    0.0000000

--------------------------------
MULLIKEN REDUCED ORBITAL CHARGES
--------------------------------
  0 O s       :     3.906358  s :     3.906358
      pz      :     1.886715  p :     4.427859
      px      :     1.277545
      py      :     1.263599
      dz2     :     0.003515  d :     0.026033
      dxz     :     0.000332
      dyz     :     0.005602
      dx2y2   :     0.009032
      dxy     :     0.007552
      f0      :     0.000161  f :     0.001365
      f+1     :     0.000069
      f-1     :     0.000331
      f+2     :     0.000168
      f-2     :     0.000022
      f+3     :     0.000297
      f-3     :     0.000317
  1 C s       :     3.188918  s :     3.188918
      pz      :     1.034817  p :     2.647681
      px      :     0.896100
      py      :     0.716764
      dz2     :     0.010108  d :     0.160861
      dxz     :     0.019310
      dyz     :     0.052983
      dx2y2   :     0.023703
      dxy     :     0.054756
      f0      :     0.001878  f :     0.010685
      f+1     :     0.001101
      f-1     :     0.000940
      f+2     :     0.003066
      f-2     :     0.000117
      f+3     :     0.002122
      f-3     :     0.001461
  2 C s       :     3.311806  s :     3.311806
      pz      :     1.039058  p :     2.769876
      px      :     1.006131
      py      :     0.724687
      dz2     :     0.007849  d :     0.057835
      dxz     :     0.022704
      dyz     :     0.006221
      dx2y2   :     0.006859
      dxy     :     0.014203
      f0      :     0.000634  f :     0.005167
      f+1     :     0.001049
      f-1     :     0.000155
      f+2     :     0.000692
      f-2     :     0.000326
      f+3     :     0.000994
      f-3     :     0.001317
  3 H s       :     0.901514  s :     0.901514
      pz      :     0.008699  p :     0.016173
      px      :     0.004529
      py      :     0.002945
  4 H s       :     0.875407  s :     0.875407
      pz      :     0.010862  p :     0.021511
      px      :     0.006270
      py      :     0.004378
  5 H s       :     0.813536  s :     0.813536
      pz      :     0.011078  p :     0.021471
      px      :     0.006569
      py      :     0.003825
  6 H s       :     0.813993  s :     0.813993
      pz      :     0.012151  p :     0.021950
      px      :     0.005647
      py      :     0.004152


                     *******************************
                     * LOEWDIN POPULATION ANALYSIS *
                     *******************************

----------------------
LOEWDIN ATOMIC CHARGES
----------------------
   0 O :   -0.016128
   1 C :   -0.466653
   2 C :   -0.037577
   3 H :    0.124735
   4 H :    0.110645
   5 H :    0.143159
   6 H :    0.141820

-------------------------------
LOEWDIN REDUCED ORBITAL CHARGES
-------------------------------
  0 O s       :     3.536413  s :     3.536413
      pz      :     1.807335  p :     4.416800
      px      :     1.219914
      py      :     1.389551
      dz2     :     0.007377  d :     0.058848
      dxz     :     0.000421
      dyz     :     0.015024
      dx2y2   :     0.019125
      dxy     :     0.016901
      f0      :     0.000411  f :     0.004067
      f+1     :     0.000111
      f-1     :     0.000648
      f+2     :     0.000776
      f-2     :     0.000025
      f+3     :     0.001247
      f-3     :     0.000849
  1 C s       :     2.836307  s :     2.836307
      pz      :     1.033983  p :     2.925610
      px      :     1.043480
      py      :     0.848148
      dz2     :     0.067306  d :     0.627483
      dxz     :     0.102311
      dyz     :     0.145850
      dx2y2   :     0.139219
      dxy     :     0.172797
      f0      :     0.011852  f :     0.077253
      f+1     :     0.005406
      f-1     :     0.007975
      f+2     :     0.018135
      f-2     :     0.001634
      f+3     :     0.015249
      f-3     :     0.017003
  2 C s       :     2.921067  s :     2.921067
      pz      :     1.064551  p :     2.852445
      px      :     1.120309
      py      :     0.667586
      dz2     :     0.034879  d :     0.238176
      dxz     :     0.104029
      dyz     :     0.014377
      dx2y2   :     0.040926
      dxy     :     0.043964
      f0      :     0.004196  f :     0.025889
      f+1     :     0.003278
      f-1     :     0.001273
      f+2     :     0.004155
      f-2     :     0.001341
      f+3     :     0.004867
      f-3     :     0.006778
  3 H s       :     0.833004  s :     0.833004
      pz      :     0.023829  p :     0.042261
      px      :     0.010964
      py      :     0.007469
  4 H s       :     0.827763  s :     0.827763
      pz      :     0.032362  p :     0.061592
      px      :     0.017082
      py      :     0.012147
  5 H s       :     0.796665  s :     0.796665
      pz      :     0.032301  p :     0.060177
      px      :     0.017606
      py      :     0.010270
  6 H s       :     0.796412  s :     0.796412
      pz      :     0.035130  p :     0.061768
      px      :     0.015408
      py      :     0.011230


                      *****************************
                      * MAYER POPULATION ANALYSIS *
                      *****************************

  NA   - Mulliken gross atomic population
  ZA   - Total nuclear charge
  QA   - Mulliken gross atomic charge
  VA   - Mayer's total valence
  BVA  - Mayer's bonded valence
  FA   - Mayer's free valence

  ATOM       NA         ZA         QA         VA         BVA        FA
  0 O      8.3616     8.0000    -0.3616     1.9005     1.9005    -0.0000
  1 C      6.0081     6.0000    -0.0081     4.0347     4.0347     0.0000
  2 C      6.1447     6.0000    -0.1447     3.8099     3.8099     0.0000
  3 H      0.9177     1.0000     0.0823     0.9598     0.9598     0.0000
  4 H      0.8969     1.0000     0.1031     0.9595     0.9595    -0.0000
  5 H      0.8350     1.0000     0.1650     0.9573     0.9573     0.0000
  6 H      0.8359     1.0000     0.1641     0.9575     0.9575     0.0000

  Mayer bond orders larger than 0.100000
B(  0-O ,  1-C ) :   1.0434 B(  0-O ,  2-C ) :   0.8426 B(  1-C ,  2-C ) :   1.0773 
B(  1-C ,  3-H ) :   0.9401 B(  1-C ,  4-H ) :   0.9654 B(  2-C ,  5-H ) :   0.9379 
B(  2-C ,  6-H ) :   0.9399 

-------
TIMINGS
-------

Total SCF time: 0 days 0 hours 0 min 3 sec 

Total time                  ....       3.501 sec
Sum of individual times     ....       3.176 sec  ( 90.7%)

Fock matrix formation       ....       2.896 sec  ( 82.7%)
  Split-RI-J                ....       0.303 sec  ( 10.5% of F)
  Chain of spheres X        ....       1.994 sec  ( 68.9% of F)
  XC integration            ....       0.528 sec  ( 18.2% of F)
    Basis function eval.    ....       0.148 sec  ( 28.0% of XC)
    Density eval.           ....       0.108 sec  ( 20.5% of XC)
    XC-Functional eval.     ....       0.032 sec  (  6.1% of XC)
    XC-Potential eval.      ....       0.176 sec  ( 33.4% of XC)
Diagonalization             ....       0.018 sec  (  0.5%)
Density matrix formation    ....       0.002 sec  (  0.1%)
Population analysis         ....       0.003 sec  (  0.1%)
Initial guess               ....       0.017 sec  (  0.5%)
Orbital Transformation      ....       0.000 sec  (  0.0%)
Orbital Orthonormalization  ....       0.000 sec  (  0.0%)
DIIS solution               ....       0.015 sec  (  0.4%)
SOSCF solution              ....       0.019 sec  (  0.5%)
Grid generation             ....       0.206 sec  (  5.9%)

Maximum memory used throughout the entire SCF-calculation: 61.0 MB


-------------------------------------------------------------------------------
                          DFT DISPERSION CORRECTION                            
                                                                               
                              DFTD3 V3.1  Rev 1                                
                          USING Becke-Johnson damping                          
-------------------------------------------------------------------------------
The PBE0 functional is recognized
Active option DFTDOPT                   ...         4   

molecular C6(AA) [au] = 393.054026 


            DFT-D V3
 parameters
 s6 scaling factor         :     1.0000 
 a1 scaling factor         :     0.4145 
 s8 scaling factor         :     1.2177 
 a2 scaling factor         :     4.8593 
 ad hoc parameters k1-k3   :    16.0000     1.3333    -4.0000 

 Edisp/kcal,au: -1.651474613823  -0.002631792038 
 E6   /kcal   :  -1.077890201 
 E8   /kcal   :  -0.573584413 
 % E8         :  34.731651811 

-------------------------   ----------------
Dispersion correction           -0.002631792
-------------------------   ----------------


-------------------------   --------------------
FINAL SINGLE POINT ENERGY      -153.580071578775
-------------------------   --------------------



           ************************************************************
           *        Program running with 8 parallel MPI-processes     *
           *              working on a common directory               *
           ************************************************************
------------------------------------------------------------------------------
                         ORCA SCF GRADIENT CALCULATION
------------------------------------------------------------------------------

 ... reading COSX grid (gridx3)
Gradient of the Kohn-Sham DFT energy:
Kohn-Sham wavefunction type      ... RKS
Hartree-Fock exchange scaling    ...    0.250
Number of operators              ...    1
Number of atoms                  ...    7
Basis set dimensions             ...  117
Integral neglect threshold       ... 2.5e-11
Integral primitive cutoff        ... 2.5e-12
SHARK Integral package           ... ON

Nuc. rep. gradient       (SHARK) ... done (  0.0 sec)
HCore & Overlap gradient (SHARK) ... done (  0.0 sec)
RI-J gradient            (SHARK) ... done (  0.1 sec)
COSX-gradient                    ... done (  0.4 sec)
Exchange-correlation gradient    ... done
Dispersion correction            ... done

------------------
CARTESIAN GRADIENT
------------------

   1   O   :   -0.073706140    0.016791657   -0.004528262
   2   C   :    0.055632400    0.004996813   -0.046298171
   3   C   :    0.026823257   -0.002275503    0.003649337
   4   H   :   -0.023938515   -0.000628118    0.048207731
   5   H   :    0.002283185    0.023829515    0.003712633
   6   H   :    0.010901796   -0.021572212   -0.022513364
   7   H   :    0.002066798   -0.021169891    0.017794581

Difference to translation invariance:
           :    0.0000627803   -0.0000277384    0.0000244859

Difference to rotation invariance:
           :    0.0000906807   -0.0000237872    0.0001358287

Norm of the cartesian gradient     ...    0.1306939718
RMS gradient                       ...    0.0285197628
MAX gradient                       ...    0.0737061401

-------
TIMINGS
-------

Total SCF gradient time            ...        0.825 sec

One electron gradient       ....       0.010 sec  (  1.3%)
RI-J Coulomb gradient       ....       0.090 sec  ( 10.9%)
COSX gradient               ....       0.385 sec  ( 46.6%)
XC gradient                 ....       0.193 sec  ( 23.4%)

Maximum memory used throughout the entire SCFGRAD-calculation: 35.9 MB

                            ***************************************
                            *     ORCA property calculations      *
                            ***************************************

                                    ---------------------
                                    Active property flags
                                    ---------------------
   (+) Dipole Moment


------------------------------------------------------------------------------
                       ORCA ELECTRIC PROPERTIES CALCULATION
------------------------------------------------------------------------------

Dipole Moment Calculation                       ... on
Quadrupole Moment Calculation                   ... off
Polarizability Calculation                      ... off
GBWName                                         ... ox_gs_D_orca0007.gbw
Electron density                                ... ox_gs_D_orca0007.scfp
The origin for moment calculation is the CENTER OF MASS  = (-0.503950,  0.131242 -0.048796)

-------------
DIPOLE MOMENT
-------------
                                X             Y             Z
Electronic contribution:     -0.33040       1.67515      -0.15832
Nuclear contribution   :      0.91786      -2.82061       0.10800
                        -----------------------------------------
Total Dipole Moment    :      0.58745      -1.14546      -0.05032
                        -----------------------------------------
Magnitude (a.u.)       :      1.28830
Magnitude (Debye)      :      3.27459



--------------------
Rotational spectrum 
--------------------
 
Rotational constants in cm-1:     1.063285     0.449018     0.368036 
Rotational constants in MHz : 31876.481048 13461.223161 11033.454403 

 Dipole components along the rotational axes: 
x,y,z [a.u.] :    -1.199536    -0.466212    -0.058922 
x,y,z [Debye]:    -3.048979    -1.185017    -0.149769 

 

Timings for individual modules:

Sum of individual times         ...        5.020 sec (=   0.084 min)
GTO integral calculation        ...        0.314 sec (=   0.005 min)   6.3 %
SCF iterations                  ...        3.669 sec (=   0.061 min)  73.1 %
SCF Gradient evaluation         ...        1.037 sec (=   0.017 min)  20.6 %
                             ****ORCA TERMINATED NORMALLY****
TOTAL RUN TIME: 0 days 0 hours 0 minutes 5 seconds 373 msec
