
                                 *****************
                                 * O   R   C   A *
                                 *****************

                                            #,                                       
                                            ###                                      
                                            ####                                     
                                            #####                                    
                                            ######                                   
                                           ########,                                 
                                     ,,################,,,,,                         
                               ,,#################################,,                 
                          ,,##########################################,,             
                       ,#########################################, ''#####,          
                    ,#############################################,,   '####,        
                  ,##################################################,,,,####,       
                ,###########''''           ''''###############################       
              ,#####''   ,,,,##########,,,,          '''####'''          '####       
            ,##' ,,,,###########################,,,                        '##       
           ' ,,###''''                  '''############,,,                           
         ,,##''                                '''############,,,,        ,,,,,,###''
      ,#''                                            '''#######################'''  
     '                                                          ''''####''''         
             ,#######,   #######,   ,#######,      ##                                
            ,#'     '#,  ##    ##  ,#'     '#,    #''#        ######   ,####,        
            ##       ##  ##   ,#'  ##            #'  '#       #        #'  '#        
            ##       ##  #######   ##           ,######,      #####,   #    #        
            '#,     ,#'  ##    ##  '#,     ,#' ,#      #,         ##   #,  ,#        
             '#######'   ##     ##  '#######'  #'      '#     #####' # '####'        



                  #######################################################
                  #                        -***-                        #
                  #          Department of theory and spectroscopy      #
                  #    Directorship and core code : Frank Neese         #
                  #        Max Planck Institute fuer Kohlenforschung    #
                  #                Kaiser Wilhelm Platz 1               #
                  #                 D-45470 Muelheim/Ruhr               #
                  #                      Germany                        #
                  #                                                     #
                  #                  All rights reserved                #
                  #                        -***-                        #
                  #######################################################


                         Program Version 5.0.2 -  RELEASE  -


 With contributions from (in alphabetic order):
   Daniel Aravena         : Magnetic Suceptibility
   Michael Atanasov       : Ab Initio Ligand Field Theory (pilot matlab implementation)
   Alexander A. Auer      : GIAO ZORA, VPT2 properties, NMR spectrum
   Ute Becker             : Parallelization
   Giovanni Bistoni       : ED, misc. LED, open-shell LED, HFLD
   Martin Brehm           : Molecular dynamics
   Dmytro Bykov           : SCF Hessian
   Vijay G. Chilkuri      : MRCI spin determinant printing, contributions to CSF-ICE
   Dipayan Datta          : RHF DLPNO-CCSD density
   Achintya Kumar Dutta   : EOM-CC, STEOM-CC
   Dmitry Ganyushin       : Spin-Orbit,Spin-Spin,Magnetic field MRCI
   Miquel Garcia          : C-PCM and meta-GGA Hessian, CC/C-PCM, Gaussian charge scheme
   Yang Guo               : DLPNO-NEVPT2, F12-NEVPT2, CIM, IAO-localization
   Andreas Hansen         : Spin unrestricted coupled pair/coupled cluster methods
   Benjamin Helmich-Paris : MC-RPA, TRAH-SCF, COSX integrals
   Lee Huntington         : MR-EOM, pCC
   Robert Izsak           : Overlap fitted RIJCOSX, COSX-SCS-MP3, EOM
   Marcus Kettner         : VPT2
   Christian Kollmar      : KDIIS, OOCD, Brueckner-CCSD(T), CCSD density, CASPT2, CASPT2-K
   Simone Kossmann        : Meta GGA functionals, TD-DFT gradient, OOMP2, MP2 Hessian
   Martin Krupicka        : Initial AUTO-CI
   Lucas Lang             : DCDCAS
   Marvin Lechner         : AUTO-CI (C++ implementation), FIC-MRCC
   Dagmar Lenk            : GEPOL surface, SMD
   Dimitrios Liakos       : Extrapolation schemes; Compound Job, initial MDCI parallelization
   Dimitrios Manganas     : Further ROCIS development; embedding schemes
   Dimitrios Pantazis     : SARC Basis sets
   Anastasios Papadopoulos: AUTO-CI, single reference methods and gradients
   Taras Petrenko         : DFT Hessian,TD-DFT gradient, ASA, ECA, R-Raman, ABS, FL, XAS/XES, NRVS
   Peter Pinski           : DLPNO-MP2, DLPNO-MP2 Gradient
   Christoph Reimann      : Effective Core Potentials
   Marius Retegan         : Local ZFS, SOC
   Christoph Riplinger    : Optimizer, TS searches, QM/MM, DLPNO-CCSD(T), (RO)-DLPNO pert. Triples
   Tobias Risthaus        : Range-separated hybrids, TD-DFT gradient, RPA, STAB
   Michael Roemelt        : Original ROCIS implementation
   Masaaki Saitow         : Open-shell DLPNO-CCSD energy and density
   Barbara Sandhoefer     : DKH picture change effects
   Avijit Sen             : IP-ROCIS
   Kantharuban Sivalingam : CASSCF convergence, NEVPT2, FIC-MRCI
   Bernardo de Souza      : ESD, SOC TD-DFT
   Georgi Stoychev        : AutoAux, RI-MP2 NMR, DLPNO-MP2 response
   Willem Van den Heuvel  : Paramagnetic NMR
   Boris Wezisla          : Elementary symmetry handling
   Frank Wennmohs         : Technical directorship


 We gratefully acknowledge several colleagues who have allowed us to
 interface, adapt or use parts of their codes:
   Stefan Grimme, W. Hujo, H. Kruse, P. Pracht,  : VdW corrections, initial TS optimization,
                  C. Bannwarth, S. Ehlert          DFT functionals, gCP, sTDA/sTD-DF
   Ed Valeev, F. Pavosevic, A. Kumar             : LibInt (2-el integral package), F12 methods
   Garnet Chan, S. Sharma, J. Yang, R. Olivares  : DMRG
   Ulf Ekstrom                                   : XCFun DFT Library
   Mihaly Kallay                                 : mrcc  (arbitrary order and MRCC methods)
   Jiri Pittner, Ondrej Demel                    : Mk-CCSD
   Frank Weinhold                                : gennbo (NPA and NBO analysis)
   Christopher J. Cramer and Donald G. Truhlar   : smd solvation model
   Lars Goerigk                                  : TD-DFT with DH, B97 family of functionals
   V. Asgeirsson, H. Jonsson                     : NEB implementation
   FAccTs GmbH                                   : IRC, NEB, NEB-TS, DLPNO-Multilevel, CI-OPT
                                                   MM, QMMM, 2- and 3-layer-ONIOM, Crystal-QMMM,
                                                   LR-CPCM, SF, NACMEs, symmetry and pop. for TD-DFT,
                                                   nearIR, NL-DFT gradient (VV10), updates on ESD,
                                                   ML-optimized integration grids
   S Lehtola, MJT Oliveira, MAL Marques          : LibXC Library
   Liviu Ungur et al                             : ANISO software


 Your calculation uses the libint2 library for the computation of 2-el integrals
 For citations please refer to: http://libint.valeyev.net

 Your ORCA version has been built with support for libXC version: 5.1.0
 For citations please refer to: https://tddft.org/programs/libxc/

 This ORCA versions uses:
   CBLAS   interface :  Fast vector & matrix operations
   LAPACKE interface :  Fast linear algebra routines
   SCALAPACK package :  Parallel linear algebra routines
   Shared memory     :  Shared parallel matrices
   BLAS/LAPACK       :  OpenBLAS 0.3.15  USE64BITINT DYNAMIC_ARCH NO_AFFINITY SkylakeX SINGLE_THREADED
        Core in use  :  SkylakeX
   Copyright (c) 2011-2014, The OpenBLAS Project


Your calculation utilizes the atom-pairwise dispersion correction
with the Becke-Johnson damping scheme (D3BJ)
Cite in your paper:
S.Grimme, S.Ehrlich, L.Goerigk, J Comput Chem, (2011), 32, 1456–1465 
S.Grimme, J.Antony, S.Ehrlich and H.Krieg, J.Chem.Phys., 132, (2010), 154104 
   

================================================================================

----- Orbital basis set information -----
Your calculation utilizes the basis: def2-TZVP
   F. Weigend and R. Ahlrichs, Phys. Chem. Chem. Phys. 7, 3297 (2005).

----- AuxJ basis set information -----
Your calculation utilizes the auxiliary basis: def2/J
   F. Weigend, Phys. Chem. Chem. Phys. 8, 1057 (2006).

================================================================================
                                        WARNINGS
                       Please study these warnings very carefully!
================================================================================


INFO   : the flag for use of the SHARK integral package has been found!

================================================================================
                                       INPUT FILE
================================================================================
NAME = ox_gs_A_orca0019.inp
|  1> ! engrad PBE0 D3BJ def2-TZVP  
|  2> %pal nprocs 8 end
|  3> %maxcore 3000
|  4>  
|  5> *xyz 0 1 
|  6> O   0.061890865598673094 0.6872029270602817 -0.029968641147688643
|  7> C   -0.7286274050140908 -0.4446714603117629 -0.022503273573962184
|  8> C   0.7600320366173748 -0.5004015114691297 -0.007118974251064675
|  9> H   -1.257808148414405 -0.6425488682970626 0.9555569639044446
| 10> H   -1.3200548745918934 -0.7449766185367812 -0.8560923789050745
| 11> H   1.2804385205989794 -0.7056951868278277 -0.8424186212238739
| 12> H   1.269606601714643 -0.6093059507968087 0.9233520940705054
| 13> *
| 14> 
| 15>                          ****END OF INPUT****
================================================================================

                     *******************************
                     * Energy+Gradient Calculation *
                     *******************************

---------------------------------
CARTESIAN COORDINATES (ANGSTROEM)
---------------------------------
  O      0.061891    0.687203   -0.029969
  C     -0.728627   -0.444671   -0.022503
  C      0.760032   -0.500402   -0.007119
  H     -1.257808   -0.642549    0.955557
  H     -1.320055   -0.744977   -0.856092
  H      1.280439   -0.705695   -0.842419
  H      1.269607   -0.609306    0.923352

----------------------------
CARTESIAN COORDINATES (A.U.)
----------------------------
  NO LB      ZA    FRAG     MASS         X           Y           Z
   0 O     8.0000    0    15.999    0.116957    1.298625   -0.056633
   1 C     6.0000    0    12.011   -1.376906   -0.840307   -0.042525
   2 C     6.0000    0    12.011    1.436252   -0.945622   -0.013453
   3 H     1.0000    0     1.008   -2.376913   -1.214241    1.805741
   4 H     1.0000    0     1.008   -2.494542   -1.407802   -1.617780
   5 H     1.0000    0     1.008    2.419678   -1.333571   -1.591940
   6 H     1.0000    0     1.008    2.399209   -1.151421    1.744883

--------------------------------
INTERNAL COORDINATES (ANGSTROEM)
--------------------------------
 O      0   0   0     0.000000000000     0.00000000     0.00000000
 C      1   0   0     1.380621054698     0.00000000     0.00000000
 C      1   2   0     1.377798063710    65.37880105     0.00000000
 H      2   1   3     1.129508546189   114.61790411   107.28629941
 H      2   1   3     1.065288898072   123.00861361   248.59181597
 H      3   1   2     1.005332731958   115.12104266   112.15059756
 H      3   1   2     1.066444008508   110.15801249   247.34397306

---------------------------
INTERNAL COORDINATES (A.U.)
---------------------------
 O      0   0   0     0.000000000000     0.00000000     0.00000000
 C      1   0   0     2.608995688104     0.00000000     0.00000000
 C      1   2   0     2.603661008259    65.37880105     0.00000000
 H      2   1   3     2.134461818220   114.61790411   107.28629941
 H      2   1   3     2.013104270862   123.00861361   248.59181597
 H      3   1   2     1.899803536867   115.12104266   112.15059756
 H      3   1   2     2.015287113241   110.15801249   247.34397306

---------------------
BASIS SET INFORMATION
---------------------
There are 3 groups of distinct atoms

 Group   1 Type O   : 11s6p2d1f contracted to 5s3p2d1f pattern {62111/411/11/1}
 Group   2 Type C   : 11s6p2d1f contracted to 5s3p2d1f pattern {62111/411/11/1}
 Group   3 Type H   : 5s1p contracted to 3s1p pattern {311/1}

Atom   0O    basis set group =>   1
Atom   1C    basis set group =>   2
Atom   2C    basis set group =>   2
Atom   3H    basis set group =>   3
Atom   4H    basis set group =>   3
Atom   5H    basis set group =>   3
Atom   6H    basis set group =>   3
---------------------------------
AUXILIARY/J BASIS SET INFORMATION
---------------------------------
There are 3 groups of distinct atoms

 Group   1 Type O   : 12s5p4d2f1g contracted to 6s4p3d1f1g pattern {711111/2111/211/2/1}
 Group   2 Type C   : 12s5p4d2f1g contracted to 6s4p3d1f1g pattern {711111/2111/211/2/1}
 Group   3 Type H   : 5s2p1d contracted to 3s1p1d pattern {311/2/1}

Atom   0O    basis set group =>   1
Atom   1C    basis set group =>   2
Atom   2C    basis set group =>   2
Atom   3H    basis set group =>   3
Atom   4H    basis set group =>   3
Atom   5H    basis set group =>   3
Atom   6H    basis set group =>   3


           ************************************************************
           *        Program running with 8 parallel MPI-processes     *
           *              working on a common directory               *
           ************************************************************
------------------------------------------------------------------------------
                           ORCA GTO INTEGRAL CALCULATION
                           -- RI-GTO INTEGRALS CHOSEN --
------------------------------------------------------------------------------
------------------------------------------------------------------------------
                   ___                                                        
                  /   \      - P O W E R E D   B Y -                         
                 /     \                                                     
                 |  |  |   _    _      __       _____    __    __             
                 |  |  |  | |  | |    /  \     |  _  \  |  |  /  |          
                  \  \/   | |  | |   /    \    | | | |  |  | /  /          
                 / \  \   | |__| |  /  /\  \   | |_| |  |  |/  /          
                |  |  |   |  __  | /  /__\  \  |    /   |      \           
                |  |  |   | |  | | |   __   |  |    \   |  |\   \          
                \     /   | |  | | |  |  |  |  | |\  \  |  | \   \       
                 \___/    |_|  |_| |__|  |__|  |_| \__\ |__|  \__/        
                                                                              
                      - O R C A' S   B I G   F R I E N D -                    
                                      &                                       
                       - I N T E G R A L  F E E D E R -                       
                                                                              
 v1 FN, 2020, v2 2021                                                         
------------------------------------------------------------------------------


Reading SHARK input file ox_gs_A_orca0019.SHARKINP.tmp ... ok
----------------------
SHARK INTEGRAL PACKAGE
----------------------

Number of atoms                             ...      7
Number of basis functions                   ...    117
Number of shells                            ...     49
Maximum angular momentum                    ...      3
Integral batch strategy                     ... SHARK/LIBINT Hybrid
RI-J (if used) integral strategy            ... SPLIT-RIJ (Revised 2003 algorithm where possible)
Printlevel                                  ...      1
Contraction scheme used                     ... SEGMENTED contraction
Coulomb Range Separation                    ... NOT USED
Exchange Range Separation                   ... NOT USED
Finite Nucleus Model                        ... NOT USED
Auxiliary Coulomb fitting basis             ... AVAILABLE
   # of basis functions in Aux-J            ...    191
   # of shells in Aux-J                     ...     65
   Maximum angular momentum in Aux-J        ...      4
Auxiliary J/K fitting basis                 ... NOT available
Auxiliary Correlation fitting basis         ... NOT available
Auxiliary 'external' fitting basis          ... NOT available
Integral threshold                          ...     2.500000e-11
Primitive cut-off                           ...     2.500000e-12
Primitive pair pre-selection threshold      ...     2.500000e-12

Calculating pre-screening integrals         ... done (  0.0 sec) Dimension = 49
Organizing shell pair data                  ... done (  0.0 sec)
Shell pair information
Total number of shell pairs                 ...      1225
Shell pairs after pre-screening             ...      1222
Total number of primitive shell pairs       ...      3648
Primitive shell pairs kept                  ...      3160
          la=0 lb=0:    375 shell pairs
          la=1 lb=0:    351 shell pairs
          la=1 lb=1:     91 shell pairs
          la=2 lb=0:    162 shell pairs
          la=2 lb=1:     78 shell pairs
          la=2 lb=2:     21 shell pairs
          la=3 lb=0:     81 shell pairs
          la=3 lb=1:     39 shell pairs
          la=3 lb=2:     18 shell pairs
          la=3 lb=3:      6 shell pairs

Calculating one electron integrals          ... done (  0.0 sec)
Calculating RI/J V-Matrix + Cholesky decomp.... done (  0.0 sec)
Calculating Nuclear repulsion               ... done (  0.0 sec) ENN=     76.759819848305 Eh

SHARK setup successfully completed in   0.1 seconds

Maximum memory used throughout the entire GTOINT-calculation: 14.9 MB


           ************************************************************
           *        Program running with 8 parallel MPI-processes     *
           *              working on a common directory               *
           ************************************************************
-------------------------------------------------------------------------------
                                 ORCA SCF
-------------------------------------------------------------------------------

------------
SCF SETTINGS
------------
Hamiltonian:
 Density Functional     Method          .... DFT(GTOs)
 Exchange Functional    Exchange        .... PBE
   PBE kappa parameter   XKappa         ....  0.804000
   PBE mue parameter    XMuePBE         ....  0.219520
 Correlation Functional Correlation     .... PBE
   PBE beta parameter  CBetaPBE         ....  0.066725
 LDA part of GGA corr.  LDAOpt          .... PW91-LDA
 Gradients option       PostSCFGGA      .... off
 Hybrid DFT is turned on
   Fraction HF Exchange ScalHFX         ....  0.250000
   Scaling of DF-GGA-X  ScalDFX         ....  0.750000
   Scaling of DF-GGA-C  ScalDFC         ....  1.000000
   Scaling of DF-LDA-C  ScalLDAC        ....  1.000000
   Perturbative correction              ....  0.000000
   Density functional embedding theory  .... OFF
   NL short-range parameter             ....  6.900000
 RI-approximation to the Coulomb term is turned on
   Number of AuxJ basis functions       .... 191
   RIJ-COSX (HFX calculated with COS-X)).... on


General Settings:
 Integral files         IntName         .... ox_gs_A_orca0019
 Hartree-Fock type      HFTyp           .... RHF
 Total Charge           Charge          ....    0
 Multiplicity           Mult            ....    1
 Number of Electrons    NEL             ....   24
 Basis Dimension        Dim             ....  117
 Nuclear Repulsion      ENuc            ....     76.7598198483 Eh

Convergence Acceleration:
 DIIS                   CNVDIIS         .... on
   Start iteration      DIISMaxIt       ....    12
   Startup error        DIISStart       ....  0.200000
   # of expansion vecs  DIISMaxEq       ....     5
   Bias factor          DIISBfac        ....   1.050
   Max. coefficient     DIISMaxC        ....  10.000
 Trust-Rad. Augm. Hess. CNVTRAH         .... auto
   Auto Start mean grad. ratio tolernc. ....  1.125000
   Auto Start start iteration           ....    20
   Auto Start num. interpolation iter.  ....    10
   Max. Number of Micro iterations      ....    16
   Max. Number of Macro iterations      .... Maxiter - #DIIS iter
   Number of Davidson start vectors     ....     2
   Converg. threshold I  (grad. norm)   ....   1.000e-05
   Converg. threshold II (energy diff.) ....   1.000e-08
   Grad. Scal. Fac. for Micro threshold ....   0.100
   Minimum threshold for Micro iter.    ....   0.010
   NR start threshold (gradient norm)   ....   0.001
   Initial trust radius                 ....   0.400
   Minimum AH scaling param. (alpha)    ....   1.000
   Maximum AH scaling param. (alpha)    .... 1000.000
   Orbital update algorithm             .... Taylor
   White noise on init. David. guess    .... on
   Maximum white noise                  ....   0.010
   Quad. conv. algorithm                .... NR
 SOSCF                  CNVSOSCF        .... on
   Start iteration      SOSCFMaxIt      ....   150
   Startup grad/error   SOSCFStart      ....  0.003300
 Level Shifting         CNVShift        .... on
   Level shift para.    LevelShift      ....    0.2500
   Turn off err/grad.   ShiftErr        ....    0.0010
 Zerner damping         CNVZerner       .... off
 Static damping         CNVDamp         .... on
   Fraction old density DampFac         ....    0.7000
   Max. Damping (<1)    DampMax         ....    0.9800
   Min. Damping (>=0)   DampMin         ....    0.0000
   Turn off err/grad.   DampErr         ....    0.1000
 Fernandez-Rico         CNVRico         .... off

SCF Procedure:
 Maximum # iterations   MaxIter         ....   125
 SCF integral mode      SCFMode         .... Direct
   Integral package                     .... SHARK and LIBINT hybrid scheme
 Reset frequency        DirectResetFreq ....    20
 Integral Threshold     Thresh          ....  2.500e-11 Eh
 Primitive CutOff       TCut            ....  2.500e-12 Eh

Convergence Tolerance:
 Convergence Check Mode ConvCheckMode   .... Total+1el-Energy
 Convergence forced     ConvForced      .... 0
 Energy Change          TolE            ....  1.000e-08 Eh
 1-El. energy change                    ....  1.000e-05 Eh
 Orbital Gradient       TolG            ....  1.000e-05
 Orbital Rotation angle TolX            ....  1.000e-05
 DIIS Error             TolErr          ....  5.000e-07


Diagonalization of the overlap matrix:
Smallest eigenvalue                        ... 4.305e-04
Time for diagonalization                   ...    0.001 sec
Threshold for overlap eigenvalues          ... 1.000e-08
Number of eigenvalues below threshold      ... 0
Time for construction of square roots      ...    0.001 sec
Total time needed                          ...    0.003 sec

Time for model grid setup =    0.022 sec

------------------------------
INITIAL GUESS: MODEL POTENTIAL
------------------------------
Loading Hartree-Fock densities                     ... done
Calculating cut-offs                               ... done
Initializing the effective Hamiltonian             ... done
Setting up the integral package (SHARK)            ... done
Starting the Coulomb interaction                   ... done (   0.0 sec)
Reading the grid                                   ... done
Mapping shells                                     ... done
Starting the XC term evaluation                    ... done (   0.0 sec)
  promolecular density results
     # of electrons  =     23.997129549
     EX              =    -19.578847283
     EC              =     -0.786525529
     EX+EC           =    -20.365372812
Transforming the Hamiltonian                       ... done (   0.0 sec)
Diagonalizing the Hamiltonian                      ... done (   0.0 sec)
Back transforming the eigenvectors                 ... done (   0.0 sec)
Now organizing SCF variables                       ... done
                      ------------------
                      INITIAL GUESS DONE (   0.0 sec)
                      ------------------
-------------------
DFT GRID GENERATION
-------------------

General Integration Accuracy     IntAcc      ... 4.388
Radial Grid Type                 RadialGrid  ... OptM3 with GC (2021)
Angular Grid (max. ang.)         AngularGrid ... 4 (Lebedev-302)
Angular grid pruning method      GridPruning ... 4 (adaptive)
Weight generation scheme         WeightScheme... Becke
Basis function cutoff            BFCut       ... 1.0000e-11
Integration weight cutoff        WCut        ... 1.0000e-14
Angular grids for H and He will be reduced by one unit
Partially contracted basis set               ... off
Rotationally invariant grid construction     ... off

Total number of grid points                  ...    31283
Total number of batches                      ...      493
Average number of points per batch           ...       63
Average number of grid points per atom       ...     4469
Time for grid setup =    0.111 sec

--------------------
COSX GRID GENERATION
--------------------

GRIDX 1
-------
General Integration Accuracy     IntAcc      ... 3.816
Radial Grid Type                 RadialGrid  ... OptM3 with GC (2021)
Angular Grid (max. ang.)         AngularGrid ... 1 (Lebedev-50)
Angular grid pruning method      GridPruning ... 4 (adaptive)
Weight generation scheme         WeightScheme... Becke
Basis function cutoff            BFCut       ... 1.0000e-11
Integration weight cutoff        WCut        ... 1.0000e-14
Angular grids for H and He will be reduced by one unit
Partially contracted basis set               ... on
Rotationally invariant grid construction     ... off

Total number of grid points                  ...     4032
Total number of batches                      ...       68
Average number of points per batch           ...       59
Average number of grid points per atom       ...      576
UseSFitting                                  ... on

GRIDX 2
-------
General Integration Accuracy     IntAcc      ... 4.020
Radial Grid Type                 RadialGrid  ... OptM3 with GC (2021)
Angular Grid (max. ang.)         AngularGrid ... 2 (Lebedev-110)
Angular grid pruning method      GridPruning ... 4 (adaptive)
Weight generation scheme         WeightScheme... Becke
Basis function cutoff            BFCut       ... 1.0000e-11
Integration weight cutoff        WCut        ... 1.0000e-14
Angular grids for H and He will be reduced by one unit
Partially contracted basis set               ... on
Rotationally invariant grid construction     ... off

Total number of grid points                  ...     8706
Total number of batches                      ...      141
Average number of points per batch           ...       61
Average number of grid points per atom       ...     1244
UseSFitting                                  ... on

GRIDX 3
-------
General Integration Accuracy     IntAcc      ... 4.338
Radial Grid Type                 RadialGrid  ... OptM3 with GC (2021)
Angular Grid (max. ang.)         AngularGrid ... 3 (Lebedev-194)
Angular grid pruning method      GridPruning ... 4 (adaptive)
Weight generation scheme         WeightScheme... Becke
Basis function cutoff            BFCut       ... 1.0000e-11
Integration weight cutoff        WCut        ... 1.0000e-14
Angular grids for H and He will be reduced by one unit
Partially contracted basis set               ... on
Rotationally invariant grid construction     ... off

Total number of grid points                  ...    19239
Total number of batches                      ...      303
Average number of points per batch           ...       63
Average number of grid points per atom       ...     2748
UseSFitting                                  ... on

Time for X-Grid setup             =    0.073 sec

--------------
SCF ITERATIONS
--------------
ITER       Energy         Delta-E        Max-DP      RMS-DP      [F,P]     Damp
               ***  Starting incremental Fock matrix formation  ***
  0   -153.5959802234   0.000000000000 0.03374637  0.00116093  0.1738379 0.7000
  1   -153.6259866380  -0.030006414592 0.01877006  0.00086039  0.0756950 0.7000
                               ***Turning on DIIS***
  2   -153.6385999233  -0.012613285281 0.02741621  0.00147741  0.0342212 0.0000
  3   -153.6587823005  -0.020182377239 0.01396019  0.00063821  0.0401860 0.0000
  4   -153.6627174275  -0.003935126954 0.00326338  0.00017591  0.0071342 0.0000
  5   -153.6628763335  -0.000158906031 0.00136627  0.00006242  0.0036668 0.0000
                      *** Initiating the SOSCF procedure ***
                           *** Shutting down DIIS ***
                      *** Re-Reading the Fockian *** 
                      *** Removing any level shift *** 
ITER      Energy       Delta-E        Grad      Rot      Max-DP    RMS-DP
  6   -153.66289725  -0.0000209130  0.000130  0.000130  0.000846  0.000030
               *** Restarting incremental Fock matrix formation ***
  7   -153.66288114   0.0000161101  0.000036  0.000056  0.000093  0.000004
  8   -153.66288113   0.0000000114  0.000055  0.000036  0.000054  0.000002
  9   -153.66288117  -0.0000000414  0.000007  0.000010  0.000014  0.000001
 10   -153.66288117  -0.0000000000  0.000008  0.000006  0.000008  0.000000
                  ***Gradient check signals convergence***
              ***Rediagonalizing the Fockian in SOSCF/NRSCF***

               *****************************************************
               *                     SUCCESS                       *
               *           SCF CONVERGED AFTER  11 CYCLES          *
               *****************************************************

Old exchange energy                            =     -5.014209100 Eh
New exchange energy                            =     -5.014196251 Eh
Exchange energy change after final integration =      0.000012849 Eh
Total energy after final integration           =   -153.662868318 Eh
Final COS-X integration done in                =     0.262 sec

----------------
TOTAL SCF ENERGY
----------------

Total Energy       :         -153.66286832 Eh           -4181.37922 eV

Components:
Nuclear Repulsion  :           76.75981985 Eh            2088.74089 eV
Electronic Energy  :         -230.42268817 Eh           -6270.12011 eV
One Electron Energy:         -360.05134190 Eh           -9797.49511 eV
Two Electron Energy:          129.62865373 Eh            3527.37500 eV
Max COSX asymmetry :            0.00000319 Eh               0.00009 eV

Virial components:
Potential Energy   :         -306.87118896 Eh           -8350.38958 eV
Kinetic Energy     :          153.20832064 Eh            4169.01035 eV
Virial Ratio       :            2.00296686


DFT components:
N(Alpha)           :       12.000001515993 electrons
N(Beta)            :       12.000001515993 electrons
N(Total)           :       24.000003031986 electrons
E(X)               :      -15.005078959790 Eh       
E(C)               :       -0.794206100901 Eh       
E(XC)              :      -15.799285060691 Eh       
DFET-embed. en.    :        0.000000000000 Eh       

---------------
SCF CONVERGENCE
---------------

  Last Energy change         ...   -1.2146e-09  Tolerance :   1.0000e-08
  Last MAX-Density change    ...    1.2212e-15  Tolerance :   1.0000e-07
  Last RMS-Density change    ...    2.1094e-17  Tolerance :   5.0000e-09
  Last Orbital Gradient      ...    3.9425e-07  Tolerance :   1.0000e-05
  Last Orbital Rotation      ...    9.4010e-07  Tolerance :   1.0000e-05

             **** THE GBW FILE WAS UPDATED (ox_gs_A_orca0019.gbw) ****
             **** DENSITY ox_gs_A_orca0019.scfp WAS UPDATED ****
             **** ENERGY FILE WAS UPDATED (ox_gs_A_orca0019.en.tmp) ****
             **** THE GBW FILE WAS UPDATED (ox_gs_A_orca0019.gbw) ****
             **** DENSITY ox_gs_A_orca0019.scfp WAS UPDATED ****
----------------
ORBITAL ENERGIES
----------------

  NO   OCC          E(Eh)            E(eV) 
   0   2.0000     -19.222567      -523.0726 
   1   2.0000     -10.277632      -279.6686 
   2   2.0000     -10.262542      -279.2580 
   3   2.0000      -1.135106       -30.8878 
   4   2.0000      -0.691571       -18.8186 
   5   2.0000      -0.670496       -18.2451 
   6   2.0000      -0.541125       -14.7248 
   7   2.0000      -0.510028       -13.8786 
   8   2.0000      -0.436638       -11.8815 
   9   2.0000      -0.398706       -10.8493 
  10   2.0000      -0.321946        -8.7606 
  11   2.0000      -0.289780        -7.8853 
  12   0.0000       0.068197         1.8557 
  13   0.0000       0.078249         2.1293 
  14   0.0000       0.089853         2.4450 
  15   0.0000       0.108651         2.9565 
  16   0.0000       0.115606         3.1458 
  17   0.0000       0.154913         4.2154 
  18   0.0000       0.194239         5.2855 
  19   0.0000       0.217655         5.9227 
  20   0.0000       0.270332         7.3561 
  21   0.0000       0.271767         7.3952 
  22   0.0000       0.290153         7.8955 
  23   0.0000       0.360865         9.8196 
  24   0.0000       0.388119        10.5613 
  25   0.0000       0.396169        10.7803 
  26   0.0000       0.411177        11.1887 
  27   0.0000       0.435350        11.8465 
  28   0.0000       0.453722        12.3464 
  29   0.0000       0.472688        12.8625 
  30   0.0000       0.506042        13.7701 
  31   0.0000       0.523739        14.2517 
  32   0.0000       0.544424        14.8145 
  33   0.0000       0.714011        19.4292 
  34   0.0000       0.716468        19.4961 
  35   0.0000       0.723175        19.6786 
  36   0.0000       0.832648        22.6575 
  37   0.0000       0.851347        23.1663 
  38   0.0000       0.896716        24.4009 
  39   0.0000       0.937516        25.5111 
  40   0.0000       1.024795        27.8861 
  41   0.0000       1.033389        28.1200 
  42   0.0000       1.073322        29.2066 
  43   0.0000       1.082496        29.4562 
  44   0.0000       1.168738        31.8030 
  45   0.0000       1.352626        36.8068 
  46   0.0000       1.448769        39.4230 
  47   0.0000       1.493741        40.6468 
  48   0.0000       1.516316        41.2611 
  49   0.0000       1.527840        41.5746 
  50   0.0000       1.583646        43.0932 
  51   0.0000       1.642153        44.6853 
  52   0.0000       1.669289        45.4237 
  53   0.0000       1.707557        46.4650 
  54   0.0000       1.784173        48.5498 
  55   0.0000       1.807675        49.1893 
  56   0.0000       1.823075        49.6084 
  57   0.0000       1.923900        52.3520 
  58   0.0000       1.956778        53.2466 
  59   0.0000       1.989136        54.1272 
  60   0.0000       2.136264        58.1307 
  61   0.0000       2.165374        58.9228 
  62   0.0000       2.178013        59.2667 
  63   0.0000       2.282082        62.0986 
  64   0.0000       2.286877        62.2291 
  65   0.0000       2.428963        66.0954 
  66   0.0000       2.468565        67.1731 
  67   0.0000       2.522529        68.6415 
  68   0.0000       2.578882        70.1749 
  69   0.0000       2.602035        70.8050 
  70   0.0000       2.630663        71.5840 
  71   0.0000       2.684124        73.0387 
  72   0.0000       2.702048        73.5265 
  73   0.0000       2.735635        74.4404 
  74   0.0000       2.763247        75.1918 
  75   0.0000       2.852956        77.6329 
  76   0.0000       2.875096        78.2353 
  77   0.0000       2.970093        80.8203 
  78   0.0000       2.996070        81.5272 
  79   0.0000       3.025659        82.3324 
  80   0.0000       3.063779        83.3697 
  81   0.0000       3.101062        84.3842 
  82   0.0000       3.149448        85.7008 
  83   0.0000       3.259278        88.6895 
  84   0.0000       3.319213        90.3204 
  85   0.0000       3.333427        90.7072 
  86   0.0000       3.396928        92.4351 
  87   0.0000       3.444645        93.7335 
  88   0.0000       3.587936        97.6327 
  89   0.0000       3.633165        98.8634 
  90   0.0000       3.679032       100.1116 
  91   0.0000       3.734731       101.6272 
  92   0.0000       3.876354       105.4810 
  93   0.0000       4.049918       110.2039 
  94   0.0000       4.113069       111.9223 
  95   0.0000       4.168875       113.4409 
  96   0.0000       4.264347       116.0388 
  97   0.0000       4.312838       117.3583 
  98   0.0000       4.360586       118.6576 
  99   0.0000       4.612867       125.5225 
 100   0.0000       4.791639       130.3871 
 101   0.0000       4.841351       131.7399 
 102   0.0000       5.354167       145.6943 
 103   0.0000       5.519846       150.2027 
 104   0.0000       5.794121       157.6661 
 105   0.0000       5.837307       158.8412 
 106   0.0000       5.872747       159.8056 
 107   0.0000       5.979365       162.7068 
 108   0.0000       6.127954       166.7501 
 109   0.0000       6.647361       180.8839 
 110   0.0000       6.690832       182.0668 
 111   0.0000       6.816949       185.4986 
 112   0.0000       6.986856       190.1220 
 113   0.0000       7.189824       195.6451 
 114   0.0000      22.388090       609.2109 
 115   0.0000      22.614331       615.3672 
 116   0.0000      43.901549      1194.6219 

                    ********************************
                    * MULLIKEN POPULATION ANALYSIS *
                    ********************************

-----------------------
MULLIKEN ATOMIC CHARGES
-----------------------
   0 O :   -0.304822
   1 C :   -0.066578
   2 C :   -0.073246
   3 H :    0.100049
   4 H :    0.116802
   5 H :    0.115648
   6 H :    0.112147
Sum of atomic charges:   -0.0000000

--------------------------------
MULLIKEN REDUCED ORBITAL CHARGES
--------------------------------
  0 O s       :     3.837937  s :     3.837937
      pz      :     1.824701  p :     4.416016
      px      :     1.294054
      py      :     1.297261
      dz2     :     0.006062  d :     0.048380
      dxz     :     0.003477
      dyz     :     0.007574
      dx2y2   :     0.013938
      dxy     :     0.017329
      f0      :     0.000308  f :     0.002489
      f+1     :     0.000240
      f-1     :     0.000495
      f+2     :     0.000083
      f-2     :     0.000269
      f+3     :     0.000370
      f-3     :     0.000723
  1 C s       :     3.217718  s :     3.217718
      pz      :     1.036651  p :     2.724117
      px      :     0.886284
      py      :     0.801182
      dz2     :     0.004964  d :     0.112262
      dxz     :     0.027760
      dyz     :     0.030122
      dx2y2   :     0.029669
      dxy     :     0.019747
      f0      :     0.001616  f :     0.012481
      f+1     :     0.001439
      f-1     :     0.000639
      f+2     :     0.001124
      f-2     :     0.002125
      f+3     :     0.002475
      f-3     :     0.003063
  2 C s       :     3.211399  s :     3.211399
      pz      :     1.057657  p :     2.735446
      px      :     0.893957
      py      :     0.783832
      dz2     :     0.005893  d :     0.113898
      dxz     :     0.025880
      dyz     :     0.031834
      dx2y2   :     0.031371
      dxy     :     0.018920
      f0      :     0.001801  f :     0.012503
      f+1     :     0.001467
      f-1     :     0.000606
      f+2     :     0.001343
      f-2     :     0.001860
      f+3     :     0.002284
      f-3     :     0.003142
  3 H s       :     0.880017  s :     0.880017
      pz      :     0.010676  p :     0.019934
      px      :     0.005727
      py      :     0.003531
  4 H s       :     0.861238  s :     0.861238
      pz      :     0.009777  p :     0.021960
      px      :     0.007592
      py      :     0.004591
  5 H s       :     0.860781  s :     0.860781
      pz      :     0.010834  p :     0.023571
      px      :     0.007495
      py      :     0.005242
  6 H s       :     0.865892  s :     0.865892
      pz      :     0.011435  p :     0.021961
      px      :     0.006302
      py      :     0.004225


                     *******************************
                     * LOEWDIN POPULATION ANALYSIS *
                     *******************************

----------------------
LOEWDIN ATOMIC CHARGES
----------------------
   0 O :    0.179030
   1 C :   -0.315191
   2 C :   -0.300727
   3 H :    0.122089
   4 H :    0.107888
   5 H :    0.093699
   6 H :    0.113211

-------------------------------
LOEWDIN REDUCED ORBITAL CHARGES
-------------------------------
  0 O s       :     3.328800  s :     3.328800
      pz      :     1.688401  p :     4.372469
      px      :     1.278872
      py      :     1.405196
      dz2     :     0.012136  d :     0.111263
      dxz     :     0.010852
      dyz     :     0.018309
      dx2y2   :     0.040184
      dxy     :     0.029783
      f0      :     0.000853  f :     0.008438
      f+1     :     0.000335
      f-1     :     0.000951
      f+2     :     0.000167
      f-2     :     0.001317
      f+3     :     0.001427
      f-3     :     0.003388
  1 C s       :     2.817542  s :     2.817542
      pz      :     1.051798  p :     2.929102
      px      :     1.009215
      py      :     0.868088
      dz2     :     0.051956  d :     0.490304
      dxz     :     0.137611
      dyz     :     0.091616
      dx2y2   :     0.106715
      dxy     :     0.102407
      f0      :     0.010507  f :     0.078242
      f+1     :     0.006250
      f-1     :     0.005581
      f+2     :     0.007047
      f-2     :     0.009980
      f+3     :     0.016871
      f-3     :     0.022006
  2 C s       :     2.802982  s :     2.802982
      pz      :     1.060115  p :     2.926587
      px      :     1.010055
      py      :     0.856417
      dz2     :     0.057127  d :     0.489564
      dxz     :     0.133355
      dyz     :     0.089391
      dx2y2   :     0.112212
      dxy     :     0.097479
      f0      :     0.011702  f :     0.081594
      f+1     :     0.006650
      f-1     :     0.006325
      f+2     :     0.009209
      f-2     :     0.008560
      f+3     :     0.015774
      f-3     :     0.023374
  3 H s       :     0.822785  s :     0.822785
      pz      :     0.030692  p :     0.055126
      px      :     0.014347
      py      :     0.010087
  4 H s       :     0.826167  s :     0.826167
      pz      :     0.031146  p :     0.065945
      px      :     0.020665
      py      :     0.014134
  5 H s       :     0.831026  s :     0.831026
      pz      :     0.036032  p :     0.075274
      px      :     0.022418
      py      :     0.016824
  6 H s       :     0.822566  s :     0.822566
      pz      :     0.034109  p :     0.064223
      px      :     0.017410
      py      :     0.012705


                      *****************************
                      * MAYER POPULATION ANALYSIS *
                      *****************************

  NA   - Mulliken gross atomic population
  ZA   - Total nuclear charge
  QA   - Mulliken gross atomic charge
  VA   - Mayer's total valence
  BVA  - Mayer's bonded valence
  FA   - Mayer's free valence

  ATOM       NA         ZA         QA         VA         BVA        FA
  0 O      8.3048     8.0000    -0.3048     1.9944     1.9944     0.0000
  1 C      6.0666     6.0000    -0.0666     3.9724     3.9724    -0.0000
  2 C      6.0732     6.0000    -0.0732     3.9802     3.9802    -0.0000
  3 H      0.9000     1.0000     0.1000     0.9625     0.9625    -0.0000
  4 H      0.8832     1.0000     0.1168     0.9555     0.9555     0.0000
  5 H      0.8844     1.0000     0.1156     0.9628     0.9628    -0.0000
  6 H      0.8879     1.0000     0.1121     0.9668     0.9668    -0.0000

  Mayer bond orders larger than 0.100000
B(  0-O ,  1-C ) :   1.0053 B(  0-O ,  2-C ) :   0.9717 B(  1-C ,  2-C ) :   1.0586 
B(  1-C ,  3-H ) :   0.9510 B(  1-C ,  4-H ) :   0.9485 B(  2-C ,  5-H ) :   0.9654 
B(  2-C ,  6-H ) :   0.9662 

-------
TIMINGS
-------

Total SCF time: 0 days 0 hours 0 min 2 sec 

Total time                  ....       2.554 sec
Sum of individual times     ....       2.367 sec  ( 92.7%)

Fock matrix formation       ....       2.098 sec  ( 82.2%)
  Split-RI-J                ....       0.236 sec  ( 11.3% of F)
  Chain of spheres X        ....       1.433 sec  ( 68.3% of F)
  XC integration            ....       0.408 sec  ( 19.4% of F)
    Basis function eval.    ....       0.107 sec  ( 26.2% of XC)
    Density eval.           ....       0.080 sec  ( 19.7% of XC)
    XC-Functional eval.     ....       0.022 sec  (  5.5% of XC)
    XC-Potential eval.      ....       0.147 sec  ( 36.1% of XC)
Diagonalization             ....       0.016 sec  (  0.6%)
Density matrix formation    ....       0.001 sec  (  0.1%)
Population analysis         ....       0.004 sec  (  0.2%)
Initial guess               ....       0.017 sec  (  0.7%)
Orbital Transformation      ....       0.000 sec  (  0.0%)
Orbital Orthonormalization  ....       0.000 sec  (  0.0%)
DIIS solution               ....       0.013 sec  (  0.5%)
SOSCF solution              ....       0.011 sec  (  0.4%)
Grid generation             ....       0.206 sec  (  8.1%)

Maximum memory used throughout the entire SCF-calculation: 61.1 MB


-------------------------------------------------------------------------------
                          DFT DISPERSION CORRECTION                            
                                                                               
                              DFTD3 V3.1  Rev 1                                
                          USING Becke-Johnson damping                          
-------------------------------------------------------------------------------
The PBE0 functional is recognized
Active option DFTDOPT                   ...         4   

molecular C6(AA) [au] = 350.713845 


            DFT-D V3
 parameters
 s6 scaling factor         :     1.0000 
 a1 scaling factor         :     0.4145 
 s8 scaling factor         :     1.2177 
 a2 scaling factor         :     4.8593 
 ad hoc parameters k1-k3   :    16.0000     1.3333    -4.0000 

 Edisp/kcal,au: -1.509872638402  -0.002406134951 
 E6   /kcal   :  -0.990165241 
 E8   /kcal   :  -0.519707397 
 % E8         :  34.420611656 

-------------------------   ----------------
Dispersion correction           -0.002406135
-------------------------   ----------------


-------------------------   --------------------
FINAL SINGLE POINT ENERGY      -153.665274453280
-------------------------   --------------------



           ************************************************************
           *        Program running with 8 parallel MPI-processes     *
           *              working on a common directory               *
           ************************************************************
------------------------------------------------------------------------------
                         ORCA SCF GRADIENT CALCULATION
------------------------------------------------------------------------------

 ... reading COSX grid (gridx3)
Gradient of the Kohn-Sham DFT energy:
Kohn-Sham wavefunction type      ... RKS
Hartree-Fock exchange scaling    ...    0.250
Number of operators              ...    1
Number of atoms                  ...    7
Basis set dimensions             ...  117
Integral neglect threshold       ... 2.5e-11
Integral primitive cutoff        ... 2.5e-12
SHARK Integral package           ... ON

Nuc. rep. gradient       (SHARK) ... done (  0.0 sec)
HCore & Overlap gradient (SHARK) ... done (  0.0 sec)
RI-J gradient            (SHARK) ... done (  0.1 sec)
COSX-gradient                    ... done (  0.3 sec)
Exchange-correlation gradient    ... done
Dispersion correction            ... done

------------------
CARTESIAN GRADIENT
------------------

   1   O   :    0.015089650   -0.043283128    0.014466587
   2   C   :   -0.006381165    0.023199748   -0.049571750
   3   C   :    0.041956097   -0.002884141   -0.049134642
   4   H   :   -0.011520303   -0.004286247    0.019055814
   5   H   :    0.002130666   -0.003228076    0.019494539
   6   H   :   -0.034055188    0.017523135    0.057720698
   7   H   :   -0.007268414    0.012807725   -0.012093715

Difference to translation invariance:
           :   -0.0000486565   -0.0001509847   -0.0000624680

Difference to rotation invariance:
           :   -0.0001656215    0.0000299610    0.0001646545

Norm of the cartesian gradient     ...    0.1249015275
RMS gradient                       ...    0.0272557478
MAX gradient                       ...    0.0577206983

-------
TIMINGS
-------

Total SCF gradient time            ...        0.701 sec

One electron gradient       ....       0.010 sec  (  1.4%)
RI-J Coulomb gradient       ....       0.079 sec  ( 11.2%)
COSX gradient               ....       0.313 sec  ( 44.6%)
XC gradient                 ....       0.163 sec  ( 23.2%)

Maximum memory used throughout the entire SCFGRAD-calculation: 35.9 MB

                            ***************************************
                            *     ORCA property calculations      *
                            ***************************************

                                    ---------------------
                                    Active property flags
                                    ---------------------
   (+) Dipole Moment


------------------------------------------------------------------------------
                       ORCA ELECTRIC PROPERTIES CALCULATION
------------------------------------------------------------------------------

Dipole Moment Calculation                       ... on
Quadrupole Moment Calculation                   ... off
Polarizability Calculation                      ... off
GBWName                                         ... ox_gs_A_orca0019.gbw
Electron density                                ... ox_gs_A_orca0019.scfp
The origin for moment calculation is the CENTER OF MASS  = ( 0.057454, -0.132159 -0.028030)

-------------
DIPOLE MOMENT
-------------
                                X             Y             Z
Electronic contribution:      0.14209       1.63425      -0.24282
Nuclear contribution   :     -0.13973      -2.26180       0.22468
                        -----------------------------------------
Total Dipole Moment    :      0.00237      -0.62755      -0.01814
                        -----------------------------------------
Magnitude (a.u.)       :      0.62782
Magnitude (Debye)      :      1.59578



--------------------
Rotational spectrum 
--------------------
 
Rotational constants in cm-1:     0.946521     0.726143     0.488036 
Rotational constants in MHz : 28375.981771 21769.206255 14630.949934 

 Dipole components along the rotational axes: 
x,y,z [a.u.] :    -0.022372    -0.626842    -0.026901 
x,y,z [Debye]:    -0.056866    -1.593305    -0.068377 

 

Timings for individual modules:

Sum of individual times         ...        4.016 sec (=   0.067 min)
GTO integral calculation        ...        0.303 sec (=   0.005 min)   7.5 %
SCF iterations                  ...        2.758 sec (=   0.046 min)  68.7 %
SCF Gradient evaluation         ...        0.955 sec (=   0.016 min)  23.8 %
                             ****ORCA TERMINATED NORMALLY****
TOTAL RUN TIME: 0 days 0 hours 0 minutes 4 seconds 296 msec
