
                                 *****************
                                 * O   R   C   A *
                                 *****************

                                            #,                                       
                                            ###                                      
                                            ####                                     
                                            #####                                    
                                            ######                                   
                                           ########,                                 
                                     ,,################,,,,,                         
                               ,,#################################,,                 
                          ,,##########################################,,             
                       ,#########################################, ''#####,          
                    ,#############################################,,   '####,        
                  ,##################################################,,,,####,       
                ,###########''''           ''''###############################       
              ,#####''   ,,,,##########,,,,          '''####'''          '####       
            ,##' ,,,,###########################,,,                        '##       
           ' ,,###''''                  '''############,,,                           
         ,,##''                                '''############,,,,        ,,,,,,###''
      ,#''                                            '''#######################'''  
     '                                                          ''''####''''         
             ,#######,   #######,   ,#######,      ##                                
            ,#'     '#,  ##    ##  ,#'     '#,    #''#        ######   ,####,        
            ##       ##  ##   ,#'  ##            #'  '#       #        #'  '#        
            ##       ##  #######   ##           ,######,      #####,   #    #        
            '#,     ,#'  ##    ##  '#,     ,#' ,#      #,         ##   #,  ,#        
             '#######'   ##     ##  '#######'  #'      '#     #####' # '####'        



                  #######################################################
                  #                        -***-                        #
                  #          Department of theory and spectroscopy      #
                  #    Directorship and core code : Frank Neese         #
                  #        Max Planck Institute fuer Kohlenforschung    #
                  #                Kaiser Wilhelm Platz 1               #
                  #                 D-45470 Muelheim/Ruhr               #
                  #                      Germany                        #
                  #                                                     #
                  #                  All rights reserved                #
                  #                        -***-                        #
                  #######################################################


                         Program Version 5.0.2 -  RELEASE  -


 With contributions from (in alphabetic order):
   Daniel Aravena         : Magnetic Suceptibility
   Michael Atanasov       : Ab Initio Ligand Field Theory (pilot matlab implementation)
   Alexander A. Auer      : GIAO ZORA, VPT2 properties, NMR spectrum
   Ute Becker             : Parallelization
   Giovanni Bistoni       : ED, misc. LED, open-shell LED, HFLD
   Martin Brehm           : Molecular dynamics
   Dmytro Bykov           : SCF Hessian
   Vijay G. Chilkuri      : MRCI spin determinant printing, contributions to CSF-ICE
   Dipayan Datta          : RHF DLPNO-CCSD density
   Achintya Kumar Dutta   : EOM-CC, STEOM-CC
   Dmitry Ganyushin       : Spin-Orbit,Spin-Spin,Magnetic field MRCI
   Miquel Garcia          : C-PCM and meta-GGA Hessian, CC/C-PCM, Gaussian charge scheme
   Yang Guo               : DLPNO-NEVPT2, F12-NEVPT2, CIM, IAO-localization
   Andreas Hansen         : Spin unrestricted coupled pair/coupled cluster methods
   Benjamin Helmich-Paris : MC-RPA, TRAH-SCF, COSX integrals
   Lee Huntington         : MR-EOM, pCC
   Robert Izsak           : Overlap fitted RIJCOSX, COSX-SCS-MP3, EOM
   Marcus Kettner         : VPT2
   Christian Kollmar      : KDIIS, OOCD, Brueckner-CCSD(T), CCSD density, CASPT2, CASPT2-K
   Simone Kossmann        : Meta GGA functionals, TD-DFT gradient, OOMP2, MP2 Hessian
   Martin Krupicka        : Initial AUTO-CI
   Lucas Lang             : DCDCAS
   Marvin Lechner         : AUTO-CI (C++ implementation), FIC-MRCC
   Dagmar Lenk            : GEPOL surface, SMD
   Dimitrios Liakos       : Extrapolation schemes; Compound Job, initial MDCI parallelization
   Dimitrios Manganas     : Further ROCIS development; embedding schemes
   Dimitrios Pantazis     : SARC Basis sets
   Anastasios Papadopoulos: AUTO-CI, single reference methods and gradients
   Taras Petrenko         : DFT Hessian,TD-DFT gradient, ASA, ECA, R-Raman, ABS, FL, XAS/XES, NRVS
   Peter Pinski           : DLPNO-MP2, DLPNO-MP2 Gradient
   Christoph Reimann      : Effective Core Potentials
   Marius Retegan         : Local ZFS, SOC
   Christoph Riplinger    : Optimizer, TS searches, QM/MM, DLPNO-CCSD(T), (RO)-DLPNO pert. Triples
   Tobias Risthaus        : Range-separated hybrids, TD-DFT gradient, RPA, STAB
   Michael Roemelt        : Original ROCIS implementation
   Masaaki Saitow         : Open-shell DLPNO-CCSD energy and density
   Barbara Sandhoefer     : DKH picture change effects
   Avijit Sen             : IP-ROCIS
   Kantharuban Sivalingam : CASSCF convergence, NEVPT2, FIC-MRCI
   Bernardo de Souza      : ESD, SOC TD-DFT
   Georgi Stoychev        : AutoAux, RI-MP2 NMR, DLPNO-MP2 response
   Willem Van den Heuvel  : Paramagnetic NMR
   Boris Wezisla          : Elementary symmetry handling
   Frank Wennmohs         : Technical directorship


 We gratefully acknowledge several colleagues who have allowed us to
 interface, adapt or use parts of their codes:
   Stefan Grimme, W. Hujo, H. Kruse, P. Pracht,  : VdW corrections, initial TS optimization,
                  C. Bannwarth, S. Ehlert          DFT functionals, gCP, sTDA/sTD-DF
   Ed Valeev, F. Pavosevic, A. Kumar             : LibInt (2-el integral package), F12 methods
   Garnet Chan, S. Sharma, J. Yang, R. Olivares  : DMRG
   Ulf Ekstrom                                   : XCFun DFT Library
   Mihaly Kallay                                 : mrcc  (arbitrary order and MRCC methods)
   Jiri Pittner, Ondrej Demel                    : Mk-CCSD
   Frank Weinhold                                : gennbo (NPA and NBO analysis)
   Christopher J. Cramer and Donald G. Truhlar   : smd solvation model
   Lars Goerigk                                  : TD-DFT with DH, B97 family of functionals
   V. Asgeirsson, H. Jonsson                     : NEB implementation
   FAccTs GmbH                                   : IRC, NEB, NEB-TS, DLPNO-Multilevel, CI-OPT
                                                   MM, QMMM, 2- and 3-layer-ONIOM, Crystal-QMMM,
                                                   LR-CPCM, SF, NACMEs, symmetry and pop. for TD-DFT,
                                                   nearIR, NL-DFT gradient (VV10), updates on ESD,
                                                   ML-optimized integration grids
   S Lehtola, MJT Oliveira, MAL Marques          : LibXC Library
   Liviu Ungur et al                             : ANISO software


 Your calculation uses the libint2 library for the computation of 2-el integrals
 For citations please refer to: http://libint.valeyev.net

 Your ORCA version has been built with support for libXC version: 5.1.0
 For citations please refer to: https://tddft.org/programs/libxc/

 This ORCA versions uses:
   CBLAS   interface :  Fast vector & matrix operations
   LAPACKE interface :  Fast linear algebra routines
   SCALAPACK package :  Parallel linear algebra routines
   Shared memory     :  Shared parallel matrices
   BLAS/LAPACK       :  OpenBLAS 0.3.15  USE64BITINT DYNAMIC_ARCH NO_AFFINITY SkylakeX SINGLE_THREADED
        Core in use  :  SkylakeX
   Copyright (c) 2011-2014, The OpenBLAS Project


Your calculation utilizes the atom-pairwise dispersion correction
with the Becke-Johnson damping scheme (D3BJ)
Cite in your paper:
S.Grimme, S.Ehrlich, L.Goerigk, J Comput Chem, (2011), 32, 1456–1465 
S.Grimme, J.Antony, S.Ehrlich and H.Krieg, J.Chem.Phys., 132, (2010), 154104 
   

================================================================================

----- Orbital basis set information -----
Your calculation utilizes the basis: def2-TZVP
   F. Weigend and R. Ahlrichs, Phys. Chem. Chem. Phys. 7, 3297 (2005).

----- AuxJ basis set information -----
Your calculation utilizes the auxiliary basis: def2/J
   F. Weigend, Phys. Chem. Chem. Phys. 8, 1057 (2006).

================================================================================
                                        WARNINGS
                       Please study these warnings very carefully!
================================================================================


INFO   : the flag for use of the SHARK integral package has been found!

================================================================================
                                       INPUT FILE
================================================================================
NAME = ox_gs_A_orca0012.inp
|  1> ! engrad PBE0 D3BJ def2-TZVP  
|  2> %pal nprocs 8 end
|  3> %maxcore 3000
|  4>  
|  5> *xyz 0 1 
|  6> O   0.10610785985063168 0.8185475730275574 -0.07596838829770068
|  7> C   -0.7531012936433126 -0.38367493254066887 -0.03538347328093904
|  8> C   0.7510805114073114 -0.40828878732853313 -0.04634652357890415
|  9> H   -1.26679919780309 -0.8303341770034536 0.8687568379332855
| 10> H   -1.276451177569658 -0.7306600690982425 -0.8383556548034182
| 11> H   1.1923157511019682 -0.6902730843348492 -0.9134391911356955
| 12> H   1.3358865344533057 -0.7400639175589719 0.9781343576077479
| 13> *
| 14> 
| 15>                          ****END OF INPUT****
================================================================================

                     *******************************
                     * Energy+Gradient Calculation *
                     *******************************

---------------------------------
CARTESIAN COORDINATES (ANGSTROEM)
---------------------------------
  O      0.106108    0.818548   -0.075968
  C     -0.753101   -0.383675   -0.035383
  C      0.751081   -0.408289   -0.046347
  H     -1.266799   -0.830334    0.868757
  H     -1.276451   -0.730660   -0.838356
  H      1.192316   -0.690273   -0.913439
  H      1.335887   -0.740064    0.978134

----------------------------
CARTESIAN COORDINATES (A.U.)
----------------------------
  NO LB      ZA    FRAG     MASS         X           Y           Z
   0 O     8.0000    0    15.999    0.200515    1.546831   -0.143559
   1 C     6.0000    0    12.011   -1.423155   -0.725041   -0.066865
   2 C     6.0000    0    12.011    1.419336   -0.771554   -0.087582
   3 H     1.0000    0     1.008   -2.393904   -1.569104    1.641713
   4 H     1.0000    0     1.008   -2.412143   -1.380747   -1.584263
   5 H     1.0000    0     1.008    2.253150   -1.304427   -1.726150
   6 H     1.0000    0     1.008    2.524460   -1.398518    1.848406

--------------------------------
INTERNAL COORDINATES (ANGSTROEM)
--------------------------------
 O      0   0   0     0.000000000000     0.00000000     0.00000000
 C      1   0   0     1.478251148374     0.00000000     0.00000000
 C      1   2   0     1.386360209764    63.26441721     0.00000000
 H      2   1   3     1.131750732169   127.35281976    99.55084877
 H      2   1   3     1.019341998692   123.61631472   254.11876506
 H      3   1   2     1.012942927631   115.51265738   107.62523775
 H      3   1   2     1.225411725726   118.65122796   251.40279713

---------------------------
INTERNAL COORDINATES (A.U.)
---------------------------
 O      0   0   0     0.000000000000     0.00000000     0.00000000
 C      1   0   0     2.793489827582     0.00000000     0.00000000
 C      1   2   0     2.619841119420    63.26441721     0.00000000
 H      2   1   3     2.138698935664   127.35281976    99.55084877
 H      2   1   3     1.926277214331   123.61631472   254.11876506
 H      3   1   2     1.914184722515   115.51265738   107.62523775
 H      3   1   2     2.315692562918   118.65122796   251.40279713

---------------------
BASIS SET INFORMATION
---------------------
There are 3 groups of distinct atoms

 Group   1 Type O   : 11s6p2d1f contracted to 5s3p2d1f pattern {62111/411/11/1}
 Group   2 Type C   : 11s6p2d1f contracted to 5s3p2d1f pattern {62111/411/11/1}
 Group   3 Type H   : 5s1p contracted to 3s1p pattern {311/1}

Atom   0O    basis set group =>   1
Atom   1C    basis set group =>   2
Atom   2C    basis set group =>   2
Atom   3H    basis set group =>   3
Atom   4H    basis set group =>   3
Atom   5H    basis set group =>   3
Atom   6H    basis set group =>   3
---------------------------------
AUXILIARY/J BASIS SET INFORMATION
---------------------------------
There are 3 groups of distinct atoms

 Group   1 Type O   : 12s5p4d2f1g contracted to 6s4p3d1f1g pattern {711111/2111/211/2/1}
 Group   2 Type C   : 12s5p4d2f1g contracted to 6s4p3d1f1g pattern {711111/2111/211/2/1}
 Group   3 Type H   : 5s2p1d contracted to 3s1p1d pattern {311/2/1}

Atom   0O    basis set group =>   1
Atom   1C    basis set group =>   2
Atom   2C    basis set group =>   2
Atom   3H    basis set group =>   3
Atom   4H    basis set group =>   3
Atom   5H    basis set group =>   3
Atom   6H    basis set group =>   3


           ************************************************************
           *        Program running with 8 parallel MPI-processes     *
           *              working on a common directory               *
           ************************************************************
------------------------------------------------------------------------------
                           ORCA GTO INTEGRAL CALCULATION
                           -- RI-GTO INTEGRALS CHOSEN --
------------------------------------------------------------------------------
------------------------------------------------------------------------------
                   ___                                                        
                  /   \      - P O W E R E D   B Y -                         
                 /     \                                                     
                 |  |  |   _    _      __       _____    __    __             
                 |  |  |  | |  | |    /  \     |  _  \  |  |  /  |          
                  \  \/   | |  | |   /    \    | | | |  |  | /  /          
                 / \  \   | |__| |  /  /\  \   | |_| |  |  |/  /          
                |  |  |   |  __  | /  /__\  \  |    /   |      \           
                |  |  |   | |  | | |   __   |  |    \   |  |\   \          
                \     /   | |  | | |  |  |  |  | |\  \  |  | \   \       
                 \___/    |_|  |_| |__|  |__|  |_| \__\ |__|  \__/        
                                                                              
                      - O R C A' S   B I G   F R I E N D -                    
                                      &                                       
                       - I N T E G R A L  F E E D E R -                       
                                                                              
 v1 FN, 2020, v2 2021                                                         
------------------------------------------------------------------------------


Reading SHARK input file ox_gs_A_orca0012.SHARKINP.tmp ... ok
----------------------
SHARK INTEGRAL PACKAGE
----------------------

Number of atoms                             ...      7
Number of basis functions                   ...    117
Number of shells                            ...     49
Maximum angular momentum                    ...      3
Integral batch strategy                     ... SHARK/LIBINT Hybrid
RI-J (if used) integral strategy            ... SPLIT-RIJ (Revised 2003 algorithm where possible)
Printlevel                                  ...      1
Contraction scheme used                     ... SEGMENTED contraction
Coulomb Range Separation                    ... NOT USED
Exchange Range Separation                   ... NOT USED
Finite Nucleus Model                        ... NOT USED
Auxiliary Coulomb fitting basis             ... AVAILABLE
   # of basis functions in Aux-J            ...    191
   # of shells in Aux-J                     ...     65
   Maximum angular momentum in Aux-J        ...      4
Auxiliary J/K fitting basis                 ... NOT available
Auxiliary Correlation fitting basis         ... NOT available
Auxiliary 'external' fitting basis          ... NOT available
Integral threshold                          ...     2.500000e-11
Primitive cut-off                           ...     2.500000e-12
Primitive pair pre-selection threshold      ...     2.500000e-12

Calculating pre-screening integrals         ... done (  0.0 sec) Dimension = 49
Organizing shell pair data                  ... done (  0.0 sec)
Shell pair information
Total number of shell pairs                 ...      1225
Shell pairs after pre-screening             ...      1220
Total number of primitive shell pairs       ...      3648
Primitive shell pairs kept                  ...      3146
          la=0 lb=0:    373 shell pairs
          la=1 lb=0:    351 shell pairs
          la=1 lb=1:     91 shell pairs
          la=2 lb=0:    162 shell pairs
          la=2 lb=1:     78 shell pairs
          la=2 lb=2:     21 shell pairs
          la=3 lb=0:     81 shell pairs
          la=3 lb=1:     39 shell pairs
          la=3 lb=2:     18 shell pairs
          la=3 lb=3:      6 shell pairs

Calculating one electron integrals          ... done (  0.0 sec)
Calculating RI/J V-Matrix + Cholesky decomp.... done (  0.0 sec)
Calculating Nuclear repulsion               ... done (  0.0 sec) ENN=     74.512944439275 Eh

SHARK setup successfully completed in   0.1 seconds

Maximum memory used throughout the entire GTOINT-calculation: 14.9 MB


           ************************************************************
           *        Program running with 8 parallel MPI-processes     *
           *              working on a common directory               *
           ************************************************************
-------------------------------------------------------------------------------
                                 ORCA SCF
-------------------------------------------------------------------------------

------------
SCF SETTINGS
------------
Hamiltonian:
 Density Functional     Method          .... DFT(GTOs)
 Exchange Functional    Exchange        .... PBE
   PBE kappa parameter   XKappa         ....  0.804000
   PBE mue parameter    XMuePBE         ....  0.219520
 Correlation Functional Correlation     .... PBE
   PBE beta parameter  CBetaPBE         ....  0.066725
 LDA part of GGA corr.  LDAOpt          .... PW91-LDA
 Gradients option       PostSCFGGA      .... off
 Hybrid DFT is turned on
   Fraction HF Exchange ScalHFX         ....  0.250000
   Scaling of DF-GGA-X  ScalDFX         ....  0.750000
   Scaling of DF-GGA-C  ScalDFC         ....  1.000000
   Scaling of DF-LDA-C  ScalLDAC        ....  1.000000
   Perturbative correction              ....  0.000000
   Density functional embedding theory  .... OFF
   NL short-range parameter             ....  6.900000
 RI-approximation to the Coulomb term is turned on
   Number of AuxJ basis functions       .... 191
   RIJ-COSX (HFX calculated with COS-X)).... on


General Settings:
 Integral files         IntName         .... ox_gs_A_orca0012
 Hartree-Fock type      HFTyp           .... RHF
 Total Charge           Charge          ....    0
 Multiplicity           Mult            ....    1
 Number of Electrons    NEL             ....   24
 Basis Dimension        Dim             ....  117
 Nuclear Repulsion      ENuc            ....     74.5129444393 Eh

Convergence Acceleration:
 DIIS                   CNVDIIS         .... on
   Start iteration      DIISMaxIt       ....    12
   Startup error        DIISStart       ....  0.200000
   # of expansion vecs  DIISMaxEq       ....     5
   Bias factor          DIISBfac        ....   1.050
   Max. coefficient     DIISMaxC        ....  10.000
 Trust-Rad. Augm. Hess. CNVTRAH         .... auto
   Auto Start mean grad. ratio tolernc. ....  1.125000
   Auto Start start iteration           ....    20
   Auto Start num. interpolation iter.  ....    10
   Max. Number of Micro iterations      ....    16
   Max. Number of Macro iterations      .... Maxiter - #DIIS iter
   Number of Davidson start vectors     ....     2
   Converg. threshold I  (grad. norm)   ....   1.000e-05
   Converg. threshold II (energy diff.) ....   1.000e-08
   Grad. Scal. Fac. for Micro threshold ....   0.100
   Minimum threshold for Micro iter.    ....   0.010
   NR start threshold (gradient norm)   ....   0.001
   Initial trust radius                 ....   0.400
   Minimum AH scaling param. (alpha)    ....   1.000
   Maximum AH scaling param. (alpha)    .... 1000.000
   Orbital update algorithm             .... Taylor
   White noise on init. David. guess    .... on
   Maximum white noise                  ....   0.010
   Quad. conv. algorithm                .... NR
 SOSCF                  CNVSOSCF        .... on
   Start iteration      SOSCFMaxIt      ....   150
   Startup grad/error   SOSCFStart      ....  0.003300
 Level Shifting         CNVShift        .... on
   Level shift para.    LevelShift      ....    0.2500
   Turn off err/grad.   ShiftErr        ....    0.0010
 Zerner damping         CNVZerner       .... off
 Static damping         CNVDamp         .... on
   Fraction old density DampFac         ....    0.7000
   Max. Damping (<1)    DampMax         ....    0.9800
   Min. Damping (>=0)   DampMin         ....    0.0000
   Turn off err/grad.   DampErr         ....    0.1000
 Fernandez-Rico         CNVRico         .... off

SCF Procedure:
 Maximum # iterations   MaxIter         ....   125
 SCF integral mode      SCFMode         .... Direct
   Integral package                     .... SHARK and LIBINT hybrid scheme
 Reset frequency        DirectResetFreq ....    20
 Integral Threshold     Thresh          ....  2.500e-11 Eh
 Primitive CutOff       TCut            ....  2.500e-12 Eh

Convergence Tolerance:
 Convergence Check Mode ConvCheckMode   .... Total+1el-Energy
 Convergence forced     ConvForced      .... 0
 Energy Change          TolE            ....  1.000e-08 Eh
 1-El. energy change                    ....  1.000e-05 Eh
 Orbital Gradient       TolG            ....  1.000e-05
 Orbital Rotation angle TolX            ....  1.000e-05
 DIIS Error             TolErr          ....  5.000e-07


Diagonalization of the overlap matrix:
Smallest eigenvalue                        ... 4.903e-04
Time for diagonalization                   ...    0.001 sec
Threshold for overlap eigenvalues          ... 1.000e-08
Number of eigenvalues below threshold      ... 0
Time for construction of square roots      ...    0.001 sec
Total time needed                          ...    0.003 sec

Time for model grid setup =    0.025 sec

------------------------------
INITIAL GUESS: MODEL POTENTIAL
------------------------------
Loading Hartree-Fock densities                     ... done
Calculating cut-offs                               ... done
Initializing the effective Hamiltonian             ... done
Setting up the integral package (SHARK)            ... done
Starting the Coulomb interaction                   ... done (   0.0 sec)
Reading the grid                                   ... done
Mapping shells                                     ... done
Starting the XC term evaluation                    ... done (   0.0 sec)
  promolecular density results
     # of electrons  =     23.997314939
     EX              =    -19.528064805
     EC              =     -0.779709802
     EX+EC           =    -20.307774606
Transforming the Hamiltonian                       ... done (   0.0 sec)
Diagonalizing the Hamiltonian                      ... done (   0.0 sec)
Back transforming the eigenvectors                 ... done (   0.0 sec)
Now organizing SCF variables                       ... done
                      ------------------
                      INITIAL GUESS DONE (   0.0 sec)
                      ------------------
-------------------
DFT GRID GENERATION
-------------------

General Integration Accuracy     IntAcc      ... 4.388
Radial Grid Type                 RadialGrid  ... OptM3 with GC (2021)
Angular Grid (max. ang.)         AngularGrid ... 4 (Lebedev-302)
Angular grid pruning method      GridPruning ... 4 (adaptive)
Weight generation scheme         WeightScheme... Becke
Basis function cutoff            BFCut       ... 1.0000e-11
Integration weight cutoff        WCut        ... 1.0000e-14
Angular grids for H and He will be reduced by one unit
Partially contracted basis set               ... off
Rotationally invariant grid construction     ... off

Total number of grid points                  ...    31329
Total number of batches                      ...      494
Average number of points per batch           ...       63
Average number of grid points per atom       ...     4476
Time for grid setup =    0.110 sec

--------------------
COSX GRID GENERATION
--------------------

GRIDX 1
-------
General Integration Accuracy     IntAcc      ... 3.816
Radial Grid Type                 RadialGrid  ... OptM3 with GC (2021)
Angular Grid (max. ang.)         AngularGrid ... 1 (Lebedev-50)
Angular grid pruning method      GridPruning ... 4 (adaptive)
Weight generation scheme         WeightScheme... Becke
Basis function cutoff            BFCut       ... 1.0000e-11
Integration weight cutoff        WCut        ... 1.0000e-14
Angular grids for H and He will be reduced by one unit
Partially contracted basis set               ... on
Rotationally invariant grid construction     ... off

Total number of grid points                  ...     4037
Total number of batches                      ...       68
Average number of points per batch           ...       59
Average number of grid points per atom       ...      577
UseSFitting                                  ... on

GRIDX 2
-------
General Integration Accuracy     IntAcc      ... 4.020
Radial Grid Type                 RadialGrid  ... OptM3 with GC (2021)
Angular Grid (max. ang.)         AngularGrid ... 2 (Lebedev-110)
Angular grid pruning method      GridPruning ... 4 (adaptive)
Weight generation scheme         WeightScheme... Becke
Basis function cutoff            BFCut       ... 1.0000e-11
Integration weight cutoff        WCut        ... 1.0000e-14
Angular grids for H and He will be reduced by one unit
Partially contracted basis set               ... on
Rotationally invariant grid construction     ... off

Total number of grid points                  ...     8708
Total number of batches                      ...      140
Average number of points per batch           ...       62
Average number of grid points per atom       ...     1244
UseSFitting                                  ... on

GRIDX 3
-------
General Integration Accuracy     IntAcc      ... 4.338
Radial Grid Type                 RadialGrid  ... OptM3 with GC (2021)
Angular Grid (max. ang.)         AngularGrid ... 3 (Lebedev-194)
Angular grid pruning method      GridPruning ... 4 (adaptive)
Weight generation scheme         WeightScheme... Becke
Basis function cutoff            BFCut       ... 1.0000e-11
Integration weight cutoff        WCut        ... 1.0000e-14
Angular grids for H and He will be reduced by one unit
Partially contracted basis set               ... on
Rotationally invariant grid construction     ... off

Total number of grid points                  ...    19236
Total number of batches                      ...      306
Average number of points per batch           ...       62
Average number of grid points per atom       ...     2748
UseSFitting                                  ... on

Time for X-Grid setup             =    0.072 sec

--------------
SCF ITERATIONS
--------------
ITER       Energy         Delta-E        Max-DP      RMS-DP      [F,P]     Damp
               ***  Starting incremental Fock matrix formation  ***
  0   -153.5838523075   0.000000000000 0.03056219  0.00105963  0.1595903 0.7000
  1   -153.6100428254  -0.026190517897 0.01688457  0.00078646  0.0678527 0.7000
                               ***Turning on DIIS***
  2   -153.6211097163  -0.011066890942 0.02513943  0.00136690  0.0311828 0.0000
  3   -153.6387474356  -0.017637719238 0.01311505  0.00059092  0.0363730 0.0000
  4   -153.6422396630  -0.003492227384 0.00353788  0.00015720  0.0073758 0.0000
  5   -153.6423968734  -0.000157210408 0.00141705  0.00005643  0.0038136 0.0000
                      *** Initiating the SOSCF procedure ***
                           *** Shutting down DIIS ***
                      *** Re-Reading the Fockian *** 
                      *** Removing any level shift *** 
ITER      Energy       Delta-E        Grad      Rot      Max-DP    RMS-DP
  6   -153.64241911  -0.0000222363  0.000082  0.000082  0.000816  0.000026
               *** Restarting incremental Fock matrix formation ***
  7   -153.64241479   0.0000043189  0.000036  0.000069  0.000093  0.000004
  8   -153.64241477   0.0000000229  0.000048  0.000052  0.000058  0.000002
  9   -153.64241483  -0.0000000621  0.000008  0.000012  0.000018  0.000001
 10   -153.64241483   0.0000000019  0.000010  0.000007  0.000011  0.000000
                  ***Gradient check signals convergence***
              ***Rediagonalizing the Fockian in SOSCF/NRSCF***

               *****************************************************
               *                     SUCCESS                       *
               *           SCF CONVERGED AFTER  11 CYCLES          *
               *****************************************************

Old exchange energy                            =     -4.987100899 Eh
New exchange energy                            =     -4.987102229 Eh
Exchange energy change after final integration =     -0.000001330 Eh
Total energy after final integration           =   -153.642416161 Eh
Final COS-X integration done in                =     0.247 sec

----------------
TOTAL SCF ENERGY
----------------

Total Energy       :         -153.64241616 Eh           -4180.82269 eV

Components:
Nuclear Repulsion  :           74.51294444 Eh            2027.60030 eV
Electronic Energy  :         -228.15536060 Eh           -6208.42299 eV
One Electron Energy:         -355.61297564 Eh           -9676.72102 eV
Two Electron Energy:          127.45761504 Eh            3468.29803 eV
Max COSX asymmetry :            0.00000172 Eh               0.00005 eV

Virial components:
Potential Energy   :         -306.50589810 Eh           -8340.44951 eV
Kinetic Energy     :          152.86348194 Eh            4159.62681 eV
Virial Ratio       :            2.00509562


DFT components:
N(Alpha)           :       12.000005157600 electrons
N(Beta)            :       12.000005157600 electrons
N(Total)           :       24.000010315200 electrons
E(X)               :      -14.937721354027 Eh       
E(C)               :       -0.788298193165 Eh       
E(XC)              :      -15.726019547192 Eh       
DFET-embed. en.    :        0.000000000000 Eh       

---------------
SCF CONVERGENCE
---------------

  Last Energy change         ...   -3.4032e-09  Tolerance :   1.0000e-08
  Last MAX-Density change    ...    4.4409e-16  Tolerance :   1.0000e-07
  Last RMS-Density change    ...    1.5947e-17  Tolerance :   5.0000e-09
  Last Orbital Gradient      ...    5.7299e-07  Tolerance :   1.0000e-05
  Last Orbital Rotation      ...    1.2311e-06  Tolerance :   1.0000e-05

             **** THE GBW FILE WAS UPDATED (ox_gs_A_orca0012.gbw) ****
             **** DENSITY ox_gs_A_orca0012.scfp WAS UPDATED ****
             **** ENERGY FILE WAS UPDATED (ox_gs_A_orca0012.en.tmp) ****
             **** THE GBW FILE WAS UPDATED (ox_gs_A_orca0012.gbw) ****
             **** DENSITY ox_gs_A_orca0012.scfp WAS UPDATED ****
----------------
ORBITAL ENERGIES
----------------

  NO   OCC          E(Eh)            E(eV) 
   0   2.0000     -19.239195      -523.5251 
   1   2.0000     -10.280621      -279.7499 
   2   2.0000     -10.278139      -279.6824 
   3   2.0000      -1.108615       -30.1669 
   4   2.0000      -0.708884       -19.2897 
   5   2.0000      -0.654133       -17.7999 
   6   2.0000      -0.526044       -14.3144 
   7   2.0000      -0.499527       -13.5928 
   8   2.0000      -0.434834       -11.8324 
   9   2.0000      -0.387562       -10.5461 
  10   2.0000      -0.318969        -8.6796 
  11   2.0000      -0.298439        -8.1209 
  12   0.0000       0.043845         1.1931 
  13   0.0000       0.071683         1.9506 
  14   0.0000       0.078588         2.1385 
  15   0.0000       0.100010         2.7214 
  16   0.0000       0.106376         2.8946 
  17   0.0000       0.155418         4.2291 
  18   0.0000       0.191057         5.1989 
  19   0.0000       0.216992         5.9046 
  20   0.0000       0.261564         7.1175 
  21   0.0000       0.278167         7.5693 
  22   0.0000       0.287791         7.8312 
  23   0.0000       0.324796         8.8381 
  24   0.0000       0.351609         9.5678 
  25   0.0000       0.376615        10.2482 
  26   0.0000       0.399333        10.8664 
  27   0.0000       0.421856        11.4793 
  28   0.0000       0.451044        12.2735 
  29   0.0000       0.453732        12.3467 
  30   0.0000       0.481113        13.0917 
  31   0.0000       0.537732        14.6324 
  32   0.0000       0.545874        14.8540 
  33   0.0000       0.686601        18.6834 
  34   0.0000       0.697063        18.9680 
  35   0.0000       0.731279        19.8991 
  36   0.0000       0.816413        22.2157 
  37   0.0000       0.894366        24.3369 
  38   0.0000       0.915384        24.9089 
  39   0.0000       0.938316        25.5329 
  40   0.0000       0.994471        27.0609 
  41   0.0000       1.028692        27.9921 
  42   0.0000       1.066071        29.0093 
  43   0.0000       1.083974        29.4964 
  44   0.0000       1.124373        30.5957 
  45   0.0000       1.365697        37.1625 
  46   0.0000       1.450976        39.4831 
  47   0.0000       1.490535        40.5595 
  48   0.0000       1.512213        41.1494 
  49   0.0000       1.520301        41.3695 
  50   0.0000       1.573946        42.8292 
  51   0.0000       1.600789        43.5597 
  52   0.0000       1.655385        45.0453 
  53   0.0000       1.733887        47.1815 
  54   0.0000       1.786943        48.6252 
  55   0.0000       1.801365        49.0176 
  56   0.0000       1.871380        50.9228 
  57   0.0000       1.901895        51.7532 
  58   0.0000       1.909976        51.9731 
  59   0.0000       1.995195        54.2920 
  60   0.0000       2.036922        55.4275 
  61   0.0000       2.120496        57.7016 
  62   0.0000       2.178261        59.2735 
  63   0.0000       2.220401        60.4202 
  64   0.0000       2.266285        61.6688 
  65   0.0000       2.408608        65.5416 
  66   0.0000       2.453604        66.7660 
  67   0.0000       2.464360        67.0586 
  68   0.0000       2.527144        68.7671 
  69   0.0000       2.549045        69.3630 
  70   0.0000       2.612517        71.0902 
  71   0.0000       2.660667        72.4004 
  72   0.0000       2.675223        72.7965 
  73   0.0000       2.698098        73.4190 
  74   0.0000       2.761995        75.1577 
  75   0.0000       2.820943        76.7618 
  76   0.0000       2.905180        79.0540 
  77   0.0000       2.910732        79.2051 
  78   0.0000       2.971174        80.8497 
  79   0.0000       2.980911        81.1147 
  80   0.0000       3.036386        82.6243 
  81   0.0000       3.105915        84.5162 
  82   0.0000       3.180169        86.5368 
  83   0.0000       3.188661        86.7679 
  84   0.0000       3.280176        89.2581 
  85   0.0000       3.315240        90.2123 
  86   0.0000       3.356361        91.3312 
  87   0.0000       3.442061        93.6633 
  88   0.0000       3.549441        96.5852 
  89   0.0000       3.594530        97.8121 
  90   0.0000       3.680895       100.1622 
  91   0.0000       3.703399       100.7746 
  92   0.0000       3.837372       104.4202 
  93   0.0000       3.987500       108.5054 
  94   0.0000       4.033866       109.7671 
  95   0.0000       4.108721       111.8040 
  96   0.0000       4.245850       115.5355 
  97   0.0000       4.285398       116.6116 
  98   0.0000       4.329207       117.8037 
  99   0.0000       4.560781       124.1052 
 100   0.0000       4.676771       127.2614 
 101   0.0000       4.850863       131.9987 
 102   0.0000       5.289722       143.9406 
 103   0.0000       5.439598       148.0190 
 104   0.0000       5.682959       154.6412 
 105   0.0000       5.768516       156.9693 
 106   0.0000       5.814337       158.2162 
 107   0.0000       5.863186       159.5454 
 108   0.0000       6.051518       164.6702 
 109   0.0000       6.591402       179.3612 
 110   0.0000       6.613014       179.9493 
 111   0.0000       6.779484       184.4791 
 112   0.0000       6.948793       189.0863 
 113   0.0000       7.173692       195.2061 
 114   0.0000      22.293600       606.6397 
 115   0.0000      22.373346       608.8097 
 116   0.0000      43.843637      1193.0460 

                    ********************************
                    * MULLIKEN POPULATION ANALYSIS *
                    ********************************

-----------------------
MULLIKEN ATOMIC CHARGES
-----------------------
   0 O :   -0.292341
   1 C :   -0.115024
   2 C :   -0.049793
   3 H :    0.115537
   4 H :    0.123839
   5 H :    0.113079
   6 H :    0.104702
Sum of atomic charges:   -0.0000000

--------------------------------
MULLIKEN REDUCED ORBITAL CHARGES
--------------------------------
  0 O s       :     3.856752  s :     3.856752
      pz      :     1.826049  p :     4.389970
      px      :     1.287699
      py      :     1.276223
      dz2     :     0.005752  d :     0.043468
      dxz     :     0.002358
      dyz     :     0.006795
      dx2y2   :     0.012462
      dxy     :     0.016102
      f0      :     0.000259  f :     0.002150
      f+1     :     0.000206
      f-1     :     0.000456
      f+2     :     0.000087
      f-2     :     0.000186
      f+3     :     0.000374
      f-3     :     0.000583
  1 C s       :     3.218185  s :     3.218185
      pz      :     1.052744  p :     2.785177
      px      :     0.924765
      py      :     0.807669
      dz2     :     0.005345  d :     0.101002
      dxz     :     0.023932
      dyz     :     0.027727
      dx2y2   :     0.022912
      dxy     :     0.021085
      f0      :     0.001195  f :     0.010660
      f+1     :     0.001212
      f-1     :     0.000743
      f+2     :     0.000802
      f-2     :     0.001885
      f+3     :     0.002375
      f-3     :     0.002450
  2 C s       :     3.221049  s :     3.221049
      pz      :     1.035301  p :     2.697369
      px      :     0.906800
      py      :     0.755268
      dz2     :     0.006076  d :     0.119377
      dxz     :     0.026021
      dyz     :     0.036530
      dx2y2   :     0.029090
      dxy     :     0.021661
      f0      :     0.001661  f :     0.011997
      f+1     :     0.001292
      f-1     :     0.000843
      f+2     :     0.001298
      f-2     :     0.001714
      f+3     :     0.002104
      f-3     :     0.003086
  3 H s       :     0.864075  s :     0.864075
      pz      :     0.009289  p :     0.020388
      px      :     0.006203
      py      :     0.004896
  4 H s       :     0.852270  s :     0.852270
      pz      :     0.010076  p :     0.023891
      px      :     0.008125
      py      :     0.005690
  5 H s       :     0.863195  s :     0.863195
      pz      :     0.011299  p :     0.023726
      px      :     0.007110
      py      :     0.005317
  6 H s       :     0.879215  s :     0.879215
      pz      :     0.008629  p :     0.016083
      px      :     0.004786
      py      :     0.002668


                     *******************************
                     * LOEWDIN POPULATION ANALYSIS *
                     *******************************

----------------------
LOEWDIN ATOMIC CHARGES
----------------------
   0 O :    0.140839
   1 C :   -0.261530
   2 C :   -0.327404
   3 H :    0.127262
   4 H :    0.095622
   5 H :    0.091785
   6 H :    0.133425

-------------------------------
LOEWDIN REDUCED ORBITAL CHARGES
-------------------------------
  0 O s       :     3.386771  s :     3.386771
      pz      :     1.710792  p :     4.370837
      px      :     1.274776
      py      :     1.385268
      dz2     :     0.011555  d :     0.094863
      dxz     :     0.007613
      dyz     :     0.014664
      dx2y2   :     0.033727
      dxy     :     0.027303
      f0      :     0.000601  f :     0.006691
      f+1     :     0.000280
      f-1     :     0.000884
      f+2     :     0.000199
      f-2     :     0.000872
      f+3     :     0.001293
      f-3     :     0.002561
  1 C s       :     2.819449  s :     2.819449
      pz      :     1.077243  p :     2.957124
      px      :     1.037278
      py      :     0.842603
      dz2     :     0.043371  d :     0.425570
      dxz     :     0.116733
      dyz     :     0.085777
      dx2y2   :     0.089421
      dxy     :     0.090268
      f0      :     0.006609  f :     0.059387
      f+1     :     0.005099
      f-1     :     0.005014
      f+2     :     0.004904
      f-2     :     0.007800
      f+3     :     0.014127
      f-3     :     0.015833
  2 C s       :     2.831100  s :     2.831100
      pz      :     1.046860  p :     2.914432
      px      :     1.024266
      py      :     0.843306
      dz2     :     0.055383  d :     0.504655
      dxz     :     0.122108
      dyz     :     0.108885
      dx2y2   :     0.115870
      dxy     :     0.102409
      f0      :     0.011168  f :     0.077217
      f+1     :     0.005379
      f-1     :     0.006577
      f+2     :     0.008846
      f-2     :     0.007513
      f+3     :     0.015509
      f-3     :     0.022225
  3 H s       :     0.815900  s :     0.815900
      pz      :     0.027583  p :     0.056837
      px      :     0.015548
      py      :     0.013706
  4 H s       :     0.828177  s :     0.828177
      pz      :     0.034338  p :     0.076201
      px      :     0.023444
      py      :     0.018419
  5 H s       :     0.833107  s :     0.833107
      pz      :     0.037490  p :     0.075108
      px      :     0.020949
      py      :     0.016669
  6 H s       :     0.823869  s :     0.823869
      pz      :     0.024043  p :     0.042706
      px      :     0.011589
      py      :     0.007074


                      *****************************
                      * MAYER POPULATION ANALYSIS *
                      *****************************

  NA   - Mulliken gross atomic population
  ZA   - Total nuclear charge
  QA   - Mulliken gross atomic charge
  VA   - Mayer's total valence
  BVA  - Mayer's bonded valence
  FA   - Mayer's free valence

  ATOM       NA         ZA         QA         VA         BVA        FA
  0 O      8.2923     8.0000    -0.2923     2.0379     2.0379     0.0000
  1 C      6.1150     6.0000    -0.1150     3.9527     3.9527    -0.0000
  2 C      6.0498     6.0000    -0.0498     3.9554     3.9554    -0.0000
  3 H      0.8845     1.0000     0.1155     0.9614     0.9614    -0.0000
  4 H      0.8762     1.0000     0.1238     0.9573     0.9573     0.0000
  5 H      0.8869     1.0000     0.1131     0.9558     0.9558    -0.0000
  6 H      0.8953     1.0000     0.1047     0.9631     0.9631    -0.0000

  Mayer bond orders larger than 0.100000
B(  0-O ,  1-C ) :   0.9924 B(  0-O ,  2-C ) :   1.0012 B(  1-C ,  2-C ) :   1.0450 
B(  1-C ,  3-H ) :   0.9480 B(  1-C ,  4-H ) :   0.9601 B(  2-C ,  5-H ) :   0.9616 
B(  2-C ,  6-H ) :   0.9393 

-------
TIMINGS
-------

Total SCF time: 0 days 0 hours 0 min 2 sec 

Total time                  ....       2.528 sec
Sum of individual times     ....       2.335 sec  ( 92.3%)

Fock matrix formation       ....       2.068 sec  ( 81.8%)
  Split-RI-J                ....       0.226 sec  ( 10.9% of F)
  Chain of spheres X        ....       1.390 sec  ( 67.2% of F)
  XC integration            ....       0.389 sec  ( 18.8% of F)
    Basis function eval.    ....       0.104 sec  ( 26.9% of XC)
    Density eval.           ....       0.079 sec  ( 20.4% of XC)
    XC-Functional eval.     ....       0.022 sec  (  5.7% of XC)
    XC-Potential eval.      ....       0.136 sec  ( 35.1% of XC)
Diagonalization             ....       0.016 sec  (  0.6%)
Density matrix formation    ....       0.001 sec  (  0.1%)
Population analysis         ....       0.002 sec  (  0.1%)
Initial guess               ....       0.017 sec  (  0.7%)
Orbital Transformation      ....       0.000 sec  (  0.0%)
Orbital Orthonormalization  ....       0.000 sec  (  0.0%)
DIIS solution               ....       0.013 sec  (  0.5%)
SOSCF solution              ....       0.010 sec  (  0.4%)
Grid generation             ....       0.207 sec  (  8.2%)

Maximum memory used throughout the entire SCF-calculation: 61.1 MB


-------------------------------------------------------------------------------
                          DFT DISPERSION CORRECTION                            
                                                                               
                              DFTD3 V3.1  Rev 1                                
                          USING Becke-Johnson damping                          
-------------------------------------------------------------------------------
The PBE0 functional is recognized
Active option DFTDOPT                   ...         4   

molecular C6(AA) [au] = 351.567841 


            DFT-D V3
 parameters
 s6 scaling factor         :     1.0000 
 a1 scaling factor         :     0.4145 
 s8 scaling factor         :     1.2177 
 a2 scaling factor         :     4.8593 
 ad hoc parameters k1-k3   :    16.0000     1.3333    -4.0000 

 Edisp/kcal,au: -1.508850732902  -0.002404506441 
 E6   /kcal   :  -0.988775989 
 E8   /kcal   :  -0.520074744 
 % E8         :  34.468269975 

-------------------------   ----------------
Dispersion correction           -0.002404506
-------------------------   ----------------


-------------------------   --------------------
FINAL SINGLE POINT ENERGY      -153.644820667566
-------------------------   --------------------



           ************************************************************
           *        Program running with 8 parallel MPI-processes     *
           *              working on a common directory               *
           ************************************************************
------------------------------------------------------------------------------
                         ORCA SCF GRADIENT CALCULATION
------------------------------------------------------------------------------

 ... reading COSX grid (gridx3)
Gradient of the Kohn-Sham DFT energy:
Kohn-Sham wavefunction type      ... RKS
Hartree-Fock exchange scaling    ...    0.250
Number of operators              ...    1
Number of atoms                  ...    7
Basis set dimensions             ...  117
Integral neglect threshold       ... 2.5e-11
Integral primitive cutoff        ... 2.5e-12
SHARK Integral package           ... ON

Nuc. rep. gradient       (SHARK) ... done (  0.0 sec)
HCore & Overlap gradient (SHARK) ... done (  0.0 sec)
RI-J gradient            (SHARK) ... done (  0.1 sec)
COSX-gradient                    ... done (  0.3 sec)
Exchange-correlation gradient    ... done
Dispersion correction            ... done

------------------
CARTESIAN GRADIENT
------------------

   1   O   :    0.035615915    0.014987890   -0.008947537
   2   C   :   -0.058440804    0.005694484   -0.062430147
   3   C   :    0.021610129    0.016004525   -0.091113752
   4   H   :   -0.015562429   -0.032174471    0.005792057
   5   H   :    0.020576680   -0.000220439    0.056179955
   6   H   :   -0.032652834    0.015573377    0.050307556
   7   H   :    0.028760606   -0.020100165    0.050126389

Difference to translation invariance:
           :   -0.0000927370   -0.0002347994   -0.0000854788

Difference to rotation invariance:
           :   -0.0002192520    0.0000336398    0.0003491285

Norm of the cartesian gradient     ...    0.1744056364
RMS gradient                       ...    0.0380584300
MAX gradient                       ...    0.0911137515

-------
TIMINGS
-------

Total SCF gradient time            ...        0.672 sec

One electron gradient       ....       0.010 sec  (  1.4%)
RI-J Coulomb gradient       ....       0.078 sec  ( 11.6%)
COSX gradient               ....       0.297 sec  ( 44.2%)
XC gradient                 ....       0.153 sec  ( 22.7%)

Maximum memory used throughout the entire SCFGRAD-calculation: 35.9 MB

                            ***************************************
                            *     ORCA property calculations      *
                            ***************************************

                                    ---------------------
                                    Active property flags
                                    ---------------------
   (+) Dipole Moment


------------------------------------------------------------------------------
                       ORCA ELECTRIC PROPERTIES CALCULATION
------------------------------------------------------------------------------

Dipole Moment Calculation                       ... on
Quadrupole Moment Calculation                   ... off
Polarizability Calculation                      ... off
GBWName                                         ... ox_gs_A_orca0012.gbw
Electron density                                ... ox_gs_A_orca0012.scfp
The origin for moment calculation is the CENTER OF MASS  = ( 0.071130,  0.024383 -0.090135)

-------------
DIPOLE MOMENT
-------------
                                X             Y             Z
Electronic contribution:      0.09681       2.06565      -0.30954
Nuclear contribution   :     -0.15436      -2.84290       0.26779
                        -----------------------------------------
Total Dipole Moment    :     -0.05755      -0.77725      -0.04174
                        -----------------------------------------
Magnitude (a.u.)       :      0.78050
Magnitude (Debye)      :      1.98387



--------------------
Rotational spectrum 
--------------------
 
Rotational constants in cm-1:     0.860083     0.704908     0.455716 
Rotational constants in MHz : 25784.632409 21132.602749 13662.008573 

 Dipole components along the rotational axes: 
x,y,z [a.u.] :    -0.306152    -0.712687    -0.086749 
x,y,z [Debye]:    -0.778176    -1.811507    -0.220499 

 

Timings for individual modules:

Sum of individual times         ...        3.949 sec (=   0.066 min)
GTO integral calculation        ...        0.322 sec (=   0.005 min)   8.2 %
SCF iterations                  ...        2.721 sec (=   0.045 min)  68.9 %
SCF Gradient evaluation         ...        0.907 sec (=   0.015 min)  23.0 %
                             ****ORCA TERMINATED NORMALLY****
TOTAL RUN TIME: 0 days 0 hours 0 minutes 4 seconds 231 msec
