
                                 *****************
                                 * O   R   C   A *
                                 *****************

                                            #,                                       
                                            ###                                      
                                            ####                                     
                                            #####                                    
                                            ######                                   
                                           ########,                                 
                                     ,,################,,,,,                         
                               ,,#################################,,                 
                          ,,##########################################,,             
                       ,#########################################, ''#####,          
                    ,#############################################,,   '####,        
                  ,##################################################,,,,####,       
                ,###########''''           ''''###############################       
              ,#####''   ,,,,##########,,,,          '''####'''          '####       
            ,##' ,,,,###########################,,,                        '##       
           ' ,,###''''                  '''############,,,                           
         ,,##''                                '''############,,,,        ,,,,,,###''
      ,#''                                            '''#######################'''  
     '                                                          ''''####''''         
             ,#######,   #######,   ,#######,      ##                                
            ,#'     '#,  ##    ##  ,#'     '#,    #''#        ######   ,####,        
            ##       ##  ##   ,#'  ##            #'  '#       #        #'  '#        
            ##       ##  #######   ##           ,######,      #####,   #    #        
            '#,     ,#'  ##    ##  '#,     ,#' ,#      #,         ##   #,  ,#        
             '#######'   ##     ##  '#######'  #'      '#     #####' # '####'        



                  #######################################################
                  #                        -***-                        #
                  #          Department of theory and spectroscopy      #
                  #    Directorship and core code : Frank Neese         #
                  #        Max Planck Institute fuer Kohlenforschung    #
                  #                Kaiser Wilhelm Platz 1               #
                  #                 D-45470 Muelheim/Ruhr               #
                  #                      Germany                        #
                  #                                                     #
                  #                  All rights reserved                #
                  #                        -***-                        #
                  #######################################################


                         Program Version 5.0.2 -  RELEASE  -


 With contributions from (in alphabetic order):
   Daniel Aravena         : Magnetic Suceptibility
   Michael Atanasov       : Ab Initio Ligand Field Theory (pilot matlab implementation)
   Alexander A. Auer      : GIAO ZORA, VPT2 properties, NMR spectrum
   Ute Becker             : Parallelization
   Giovanni Bistoni       : ED, misc. LED, open-shell LED, HFLD
   Martin Brehm           : Molecular dynamics
   Dmytro Bykov           : SCF Hessian
   Vijay G. Chilkuri      : MRCI spin determinant printing, contributions to CSF-ICE
   Dipayan Datta          : RHF DLPNO-CCSD density
   Achintya Kumar Dutta   : EOM-CC, STEOM-CC
   Dmitry Ganyushin       : Spin-Orbit,Spin-Spin,Magnetic field MRCI
   Miquel Garcia          : C-PCM and meta-GGA Hessian, CC/C-PCM, Gaussian charge scheme
   Yang Guo               : DLPNO-NEVPT2, F12-NEVPT2, CIM, IAO-localization
   Andreas Hansen         : Spin unrestricted coupled pair/coupled cluster methods
   Benjamin Helmich-Paris : MC-RPA, TRAH-SCF, COSX integrals
   Lee Huntington         : MR-EOM, pCC
   Robert Izsak           : Overlap fitted RIJCOSX, COSX-SCS-MP3, EOM
   Marcus Kettner         : VPT2
   Christian Kollmar      : KDIIS, OOCD, Brueckner-CCSD(T), CCSD density, CASPT2, CASPT2-K
   Simone Kossmann        : Meta GGA functionals, TD-DFT gradient, OOMP2, MP2 Hessian
   Martin Krupicka        : Initial AUTO-CI
   Lucas Lang             : DCDCAS
   Marvin Lechner         : AUTO-CI (C++ implementation), FIC-MRCC
   Dagmar Lenk            : GEPOL surface, SMD
   Dimitrios Liakos       : Extrapolation schemes; Compound Job, initial MDCI parallelization
   Dimitrios Manganas     : Further ROCIS development; embedding schemes
   Dimitrios Pantazis     : SARC Basis sets
   Anastasios Papadopoulos: AUTO-CI, single reference methods and gradients
   Taras Petrenko         : DFT Hessian,TD-DFT gradient, ASA, ECA, R-Raman, ABS, FL, XAS/XES, NRVS
   Peter Pinski           : DLPNO-MP2, DLPNO-MP2 Gradient
   Christoph Reimann      : Effective Core Potentials
   Marius Retegan         : Local ZFS, SOC
   Christoph Riplinger    : Optimizer, TS searches, QM/MM, DLPNO-CCSD(T), (RO)-DLPNO pert. Triples
   Tobias Risthaus        : Range-separated hybrids, TD-DFT gradient, RPA, STAB
   Michael Roemelt        : Original ROCIS implementation
   Masaaki Saitow         : Open-shell DLPNO-CCSD energy and density
   Barbara Sandhoefer     : DKH picture change effects
   Avijit Sen             : IP-ROCIS
   Kantharuban Sivalingam : CASSCF convergence, NEVPT2, FIC-MRCI
   Bernardo de Souza      : ESD, SOC TD-DFT
   Georgi Stoychev        : AutoAux, RI-MP2 NMR, DLPNO-MP2 response
   Willem Van den Heuvel  : Paramagnetic NMR
   Boris Wezisla          : Elementary symmetry handling
   Frank Wennmohs         : Technical directorship


 We gratefully acknowledge several colleagues who have allowed us to
 interface, adapt or use parts of their codes:
   Stefan Grimme, W. Hujo, H. Kruse, P. Pracht,  : VdW corrections, initial TS optimization,
                  C. Bannwarth, S. Ehlert          DFT functionals, gCP, sTDA/sTD-DF
   Ed Valeev, F. Pavosevic, A. Kumar             : LibInt (2-el integral package), F12 methods
   Garnet Chan, S. Sharma, J. Yang, R. Olivares  : DMRG
   Ulf Ekstrom                                   : XCFun DFT Library
   Mihaly Kallay                                 : mrcc  (arbitrary order and MRCC methods)
   Jiri Pittner, Ondrej Demel                    : Mk-CCSD
   Frank Weinhold                                : gennbo (NPA and NBO analysis)
   Christopher J. Cramer and Donald G. Truhlar   : smd solvation model
   Lars Goerigk                                  : TD-DFT with DH, B97 family of functionals
   V. Asgeirsson, H. Jonsson                     : NEB implementation
   FAccTs GmbH                                   : IRC, NEB, NEB-TS, DLPNO-Multilevel, CI-OPT
                                                   MM, QMMM, 2- and 3-layer-ONIOM, Crystal-QMMM,
                                                   LR-CPCM, SF, NACMEs, symmetry and pop. for TD-DFT,
                                                   nearIR, NL-DFT gradient (VV10), updates on ESD,
                                                   ML-optimized integration grids
   S Lehtola, MJT Oliveira, MAL Marques          : LibXC Library
   Liviu Ungur et al                             : ANISO software


 Your calculation uses the libint2 library for the computation of 2-el integrals
 For citations please refer to: http://libint.valeyev.net

 Your ORCA version has been built with support for libXC version: 5.1.0
 For citations please refer to: https://tddft.org/programs/libxc/

 This ORCA versions uses:
   CBLAS   interface :  Fast vector & matrix operations
   LAPACKE interface :  Fast linear algebra routines
   SCALAPACK package :  Parallel linear algebra routines
   Shared memory     :  Shared parallel matrices
   BLAS/LAPACK       :  OpenBLAS 0.3.15  USE64BITINT DYNAMIC_ARCH NO_AFFINITY SkylakeX SINGLE_THREADED
        Core in use  :  SkylakeX
   Copyright (c) 2011-2014, The OpenBLAS Project


Your calculation utilizes the atom-pairwise dispersion correction
with the Becke-Johnson damping scheme (D3BJ)
Cite in your paper:
S.Grimme, S.Ehrlich, L.Goerigk, J Comput Chem, (2011), 32, 1456–1465 
S.Grimme, J.Antony, S.Ehrlich and H.Krieg, J.Chem.Phys., 132, (2010), 154104 
   

================================================================================

----- Orbital basis set information -----
Your calculation utilizes the basis: def2-TZVP
   F. Weigend and R. Ahlrichs, Phys. Chem. Chem. Phys. 7, 3297 (2005).

----- AuxJ basis set information -----
Your calculation utilizes the auxiliary basis: def2/J
   F. Weigend, Phys. Chem. Chem. Phys. 8, 1057 (2006).

================================================================================
                                        WARNINGS
                       Please study these warnings very carefully!
================================================================================


INFO   : the flag for use of the SHARK integral package has been found!

================================================================================
                                       INPUT FILE
================================================================================
NAME = ox_gs_A_orca0001.inp
|  1> ! engrad PBE0 D3BJ def2-TZVP  
|  2> %pal nprocs 8 end
|  3> %maxcore 3000
|  4>  
|  5> *xyz 0 1 
|  6> O   -0.011288765024326785 0.7703007202343962 -0.07123729931067284
|  7> C   -0.7561087262262591 -0.44147436051450667 -0.057549678871115145
|  8> C   0.7476744409172835 -0.47705242449594026 -0.01458468748966384
|  9> H   -1.2939082606114698 -0.5756569007745531 0.9193013587631033
| 10> H   -1.316708316447795 -0.6271436643948406 -0.9810184024985511
| 11> H   1.2742659997502377 -0.7662543661939888 -0.9863855224449215
| 12> H   1.2736659317934562 -0.6313474810002295 0.9285445840594985
| 13> *
| 14> 
| 15>                          ****END OF INPUT****
================================================================================

                     *******************************
                     * Energy+Gradient Calculation *
                     *******************************

---------------------------------
CARTESIAN COORDINATES (ANGSTROEM)
---------------------------------
  O     -0.011289    0.770301   -0.071237
  C     -0.756109   -0.441474   -0.057550
  C      0.747674   -0.477052   -0.014585
  H     -1.293908   -0.575657    0.919301
  H     -1.316708   -0.627144   -0.981018
  H      1.274266   -0.766254   -0.986386
  H      1.273666   -0.631347    0.928545

----------------------------
CARTESIAN COORDINATES (A.U.)
----------------------------
  NO LB      ZA    FRAG     MASS         X           Y           Z
   0 O     8.0000    0    15.999   -0.021333    1.455657   -0.134619
   1 C     6.0000    0    12.011   -1.428838   -0.834266   -0.108753
   2 C     6.0000    0    12.011    1.412900   -0.901498   -0.027561
   3 H     1.0000    0     1.008   -2.445132   -1.087834    1.737228
   4 H     1.0000    0     1.008   -2.488218   -1.185130   -1.853856
   5 H     1.0000    0     1.008    2.408014   -1.448011   -1.863998
   6 H     1.0000    0     1.008    2.406880   -1.193074    1.754695

--------------------------------
INTERNAL COORDINATES (ANGSTROEM)
--------------------------------
 O      0   0   0     0.000000000000     0.00000000     0.00000000
 C      1   0   0     1.422442607588     0.00000000     0.00000000
 C      1   2   0     1.461206533680    62.89523535     0.00000000
 H      2   1   3     1.123152368569   111.15365845   109.52188535
 H      2   1   3     1.096147560540   113.82749240   245.49327459
 H      3   1   2     1.142511836147   114.99270107   106.29545006
 H      3   1   2     1.090856010566   113.87316768   247.76256684

---------------------------
INTERNAL COORDINATES (A.U.)
---------------------------
 O      0   0   0     0.000000000000     0.00000000     0.00000000
 C      1   0   0     2.688026969562     0.00000000     0.00000000
 C      1   2   0     2.761280173751    62.89523535     0.00000000
 H      2   1   3     2.122450383261   111.15365845   109.52188535
 H      2   1   3     2.071418691787   113.82749240   245.49327459
 H      3   1   2     2.159034475081   114.99270107   106.29545006
 H      3   1   2     2.061419111512   113.87316768   247.76256684

---------------------
BASIS SET INFORMATION
---------------------
There are 3 groups of distinct atoms

 Group   1 Type O   : 11s6p2d1f contracted to 5s3p2d1f pattern {62111/411/11/1}
 Group   2 Type C   : 11s6p2d1f contracted to 5s3p2d1f pattern {62111/411/11/1}
 Group   3 Type H   : 5s1p contracted to 3s1p pattern {311/1}

Atom   0O    basis set group =>   1
Atom   1C    basis set group =>   2
Atom   2C    basis set group =>   2
Atom   3H    basis set group =>   3
Atom   4H    basis set group =>   3
Atom   5H    basis set group =>   3
Atom   6H    basis set group =>   3
---------------------------------
AUXILIARY/J BASIS SET INFORMATION
---------------------------------
There are 3 groups of distinct atoms

 Group   1 Type O   : 12s5p4d2f1g contracted to 6s4p3d1f1g pattern {711111/2111/211/2/1}
 Group   2 Type C   : 12s5p4d2f1g contracted to 6s4p3d1f1g pattern {711111/2111/211/2/1}
 Group   3 Type H   : 5s2p1d contracted to 3s1p1d pattern {311/2/1}

Atom   0O    basis set group =>   1
Atom   1C    basis set group =>   2
Atom   2C    basis set group =>   2
Atom   3H    basis set group =>   3
Atom   4H    basis set group =>   3
Atom   5H    basis set group =>   3
Atom   6H    basis set group =>   3


           ************************************************************
           *        Program running with 8 parallel MPI-processes     *
           *              working on a common directory               *
           ************************************************************
------------------------------------------------------------------------------
                           ORCA GTO INTEGRAL CALCULATION
                           -- RI-GTO INTEGRALS CHOSEN --
------------------------------------------------------------------------------
------------------------------------------------------------------------------
                   ___                                                        
                  /   \      - P O W E R E D   B Y -                         
                 /     \                                                     
                 |  |  |   _    _      __       _____    __    __             
                 |  |  |  | |  | |    /  \     |  _  \  |  |  /  |          
                  \  \/   | |  | |   /    \    | | | |  |  | /  /          
                 / \  \   | |__| |  /  /\  \   | |_| |  |  |/  /          
                |  |  |   |  __  | /  /__\  \  |    /   |      \           
                |  |  |   | |  | | |   __   |  |    \   |  |\   \          
                \     /   | |  | | |  |  |  |  | |\  \  |  | \   \       
                 \___/    |_|  |_| |__|  |__|  |_| \__\ |__|  \__/        
                                                                              
                      - O R C A' S   B I G   F R I E N D -                    
                                      &                                       
                       - I N T E G R A L  F E E D E R -                       
                                                                              
 v1 FN, 2020, v2 2021                                                         
------------------------------------------------------------------------------


Reading SHARK input file ox_gs_A_orca0001.SHARKINP.tmp ... ok
----------------------
SHARK INTEGRAL PACKAGE
----------------------

Number of atoms                             ...      7
Number of basis functions                   ...    117
Number of shells                            ...     49
Maximum angular momentum                    ...      3
Integral batch strategy                     ... SHARK/LIBINT Hybrid
RI-J (if used) integral strategy            ... SPLIT-RIJ (Revised 2003 algorithm where possible)
Printlevel                                  ...      1
Contraction scheme used                     ... SEGMENTED contraction
Coulomb Range Separation                    ... NOT USED
Exchange Range Separation                   ... NOT USED
Finite Nucleus Model                        ... NOT USED
Auxiliary Coulomb fitting basis             ... AVAILABLE
   # of basis functions in Aux-J            ...    191
   # of shells in Aux-J                     ...     65
   Maximum angular momentum in Aux-J        ...      4
Auxiliary J/K fitting basis                 ... NOT available
Auxiliary Correlation fitting basis         ... NOT available
Auxiliary 'external' fitting basis          ... NOT available
Integral threshold                          ...     2.500000e-11
Primitive cut-off                           ...     2.500000e-12
Primitive pair pre-selection threshold      ...     2.500000e-12

Calculating pre-screening integrals         ... done (  0.0 sec) Dimension = 49
Organizing shell pair data                  ... done (  0.0 sec)
Shell pair information
Total number of shell pairs                 ...      1225
Shell pairs after pre-screening             ...      1220
Total number of primitive shell pairs       ...      3648
Primitive shell pairs kept                  ...      3142
          la=0 lb=0:    373 shell pairs
          la=1 lb=0:    351 shell pairs
          la=1 lb=1:     91 shell pairs
          la=2 lb=0:    162 shell pairs
          la=2 lb=1:     78 shell pairs
          la=2 lb=2:     21 shell pairs
          la=3 lb=0:     81 shell pairs
          la=3 lb=1:     39 shell pairs
          la=3 lb=2:     18 shell pairs
          la=3 lb=3:      6 shell pairs

Calculating one electron integrals          ... done (  0.0 sec)
Calculating RI/J V-Matrix + Cholesky decomp.... done (  0.0 sec)
Calculating Nuclear repulsion               ... done (  0.0 sec) ENN=     74.119900617807 Eh

SHARK setup successfully completed in   0.2 seconds

Maximum memory used throughout the entire GTOINT-calculation: 14.9 MB


           ************************************************************
           *        Program running with 8 parallel MPI-processes     *
           *              working on a common directory               *
           ************************************************************
-------------------------------------------------------------------------------
                                 ORCA SCF
-------------------------------------------------------------------------------

------------
SCF SETTINGS
------------
Hamiltonian:
 Density Functional     Method          .... DFT(GTOs)
 Exchange Functional    Exchange        .... PBE
   PBE kappa parameter   XKappa         ....  0.804000
   PBE mue parameter    XMuePBE         ....  0.219520
 Correlation Functional Correlation     .... PBE
   PBE beta parameter  CBetaPBE         ....  0.066725
 LDA part of GGA corr.  LDAOpt          .... PW91-LDA
 Gradients option       PostSCFGGA      .... off
 Hybrid DFT is turned on
   Fraction HF Exchange ScalHFX         ....  0.250000
   Scaling of DF-GGA-X  ScalDFX         ....  0.750000
   Scaling of DF-GGA-C  ScalDFC         ....  1.000000
   Scaling of DF-LDA-C  ScalLDAC        ....  1.000000
   Perturbative correction              ....  0.000000
   Density functional embedding theory  .... OFF
   NL short-range parameter             ....  6.900000
 RI-approximation to the Coulomb term is turned on
   Number of AuxJ basis functions       .... 191
   RIJ-COSX (HFX calculated with COS-X)).... on


General Settings:
 Integral files         IntName         .... ox_gs_A_orca0001
 Hartree-Fock type      HFTyp           .... RHF
 Total Charge           Charge          ....    0
 Multiplicity           Mult            ....    1
 Number of Electrons    NEL             ....   24
 Basis Dimension        Dim             ....  117
 Nuclear Repulsion      ENuc            ....     74.1199006178 Eh

Convergence Acceleration:
 DIIS                   CNVDIIS         .... on
   Start iteration      DIISMaxIt       ....    12
   Startup error        DIISStart       ....  0.200000
   # of expansion vecs  DIISMaxEq       ....     5
   Bias factor          DIISBfac        ....   1.050
   Max. coefficient     DIISMaxC        ....  10.000
 Trust-Rad. Augm. Hess. CNVTRAH         .... auto
   Auto Start mean grad. ratio tolernc. ....  1.125000
   Auto Start start iteration           ....    20
   Auto Start num. interpolation iter.  ....    10
   Max. Number of Micro iterations      ....    16
   Max. Number of Macro iterations      .... Maxiter - #DIIS iter
   Number of Davidson start vectors     ....     2
   Converg. threshold I  (grad. norm)   ....   1.000e-05
   Converg. threshold II (energy diff.) ....   1.000e-08
   Grad. Scal. Fac. for Micro threshold ....   0.100
   Minimum threshold for Micro iter.    ....   0.010
   NR start threshold (gradient norm)   ....   0.001
   Initial trust radius                 ....   0.400
   Minimum AH scaling param. (alpha)    ....   1.000
   Maximum AH scaling param. (alpha)    .... 1000.000
   Orbital update algorithm             .... Taylor
   White noise on init. David. guess    .... on
   Maximum white noise                  ....   0.010
   Quad. conv. algorithm                .... NR
 SOSCF                  CNVSOSCF        .... on
   Start iteration      SOSCFMaxIt      ....   150
   Startup grad/error   SOSCFStart      ....  0.003300
 Level Shifting         CNVShift        .... on
   Level shift para.    LevelShift      ....    0.2500
   Turn off err/grad.   ShiftErr        ....    0.0010
 Zerner damping         CNVZerner       .... off
 Static damping         CNVDamp         .... on
   Fraction old density DampFac         ....    0.7000
   Max. Damping (<1)    DampMax         ....    0.9800
   Min. Damping (>=0)   DampMin         ....    0.0000
   Turn off err/grad.   DampErr         ....    0.1000
 Fernandez-Rico         CNVRico         .... off

SCF Procedure:
 Maximum # iterations   MaxIter         ....   125
 SCF integral mode      SCFMode         .... Direct
   Integral package                     .... SHARK and LIBINT hybrid scheme
 Reset frequency        DirectResetFreq ....    20
 Integral Threshold     Thresh          ....  2.500e-11 Eh
 Primitive CutOff       TCut            ....  2.500e-12 Eh

Convergence Tolerance:
 Convergence Check Mode ConvCheckMode   .... Total+1el-Energy
 Convergence forced     ConvForced      .... 0
 Energy Change          TolE            ....  1.000e-08 Eh
 1-El. energy change                    ....  1.000e-05 Eh
 Orbital Gradient       TolG            ....  1.000e-05
 Orbital Rotation angle TolX            ....  1.000e-05
 DIIS Error             TolErr          ....  5.000e-07


Diagonalization of the overlap matrix:
Smallest eigenvalue                        ... 4.951e-04
Time for diagonalization                   ...    0.021 sec
Threshold for overlap eigenvalues          ... 1.000e-08
Number of eigenvalues below threshold      ... 0
Time for construction of square roots      ...    0.003 sec
Total time needed                          ...    0.025 sec

Time for model grid setup =    0.038 sec

------------------------------
INITIAL GUESS: MODEL POTENTIAL
------------------------------
Loading Hartree-Fock densities                     ... done
Calculating cut-offs                               ... done
Initializing the effective Hamiltonian             ... done
Setting up the integral package (SHARK)            ... done
Starting the Coulomb interaction                   ... done (   0.0 sec)
Reading the grid                                   ... done
Mapping shells                                     ... done
Starting the XC term evaluation                    ... done (   0.0 sec)
  promolecular density results
     # of electrons  =     23.997579775
     EX              =    -19.509449538
     EC              =     -0.778179264
     EX+EC           =    -20.287628801
Transforming the Hamiltonian                       ... done (   0.0 sec)
Diagonalizing the Hamiltonian                      ... done (   0.0 sec)
Back transforming the eigenvectors                 ... done (   0.0 sec)
Now organizing SCF variables                       ... done
                      ------------------
                      INITIAL GUESS DONE (   0.1 sec)
                      ------------------
-------------------
DFT GRID GENERATION
-------------------

General Integration Accuracy     IntAcc      ... 4.388
Radial Grid Type                 RadialGrid  ... OptM3 with GC (2021)
Angular Grid (max. ang.)         AngularGrid ... 4 (Lebedev-302)
Angular grid pruning method      GridPruning ... 4 (adaptive)
Weight generation scheme         WeightScheme... Becke
Basis function cutoff            BFCut       ... 1.0000e-11
Integration weight cutoff        WCut        ... 1.0000e-14
Angular grids for H and He will be reduced by one unit
Partially contracted basis set               ... off
Rotationally invariant grid construction     ... off

Total number of grid points                  ...    31327
Total number of batches                      ...      493
Average number of points per batch           ...       63
Average number of grid points per atom       ...     4475
Time for grid setup =    0.115 sec

--------------------
COSX GRID GENERATION
--------------------

GRIDX 1
-------
General Integration Accuracy     IntAcc      ... 3.816
Radial Grid Type                 RadialGrid  ... OptM3 with GC (2021)
Angular Grid (max. ang.)         AngularGrid ... 1 (Lebedev-50)
Angular grid pruning method      GridPruning ... 4 (adaptive)
Weight generation scheme         WeightScheme... Becke
Basis function cutoff            BFCut       ... 1.0000e-11
Integration weight cutoff        WCut        ... 1.0000e-14
Angular grids for H and He will be reduced by one unit
Partially contracted basis set               ... on
Rotationally invariant grid construction     ... off

Total number of grid points                  ...     4038
Total number of batches                      ...       67
Average number of points per batch           ...       60
Average number of grid points per atom       ...      577
UseSFitting                                  ... on

GRIDX 2
-------
General Integration Accuracy     IntAcc      ... 4.020
Radial Grid Type                 RadialGrid  ... OptM3 with GC (2021)
Angular Grid (max. ang.)         AngularGrid ... 2 (Lebedev-110)
Angular grid pruning method      GridPruning ... 4 (adaptive)
Weight generation scheme         WeightScheme... Becke
Basis function cutoff            BFCut       ... 1.0000e-11
Integration weight cutoff        WCut        ... 1.0000e-14
Angular grids for H and He will be reduced by one unit
Partially contracted basis set               ... on
Rotationally invariant grid construction     ... off

Total number of grid points                  ...     8715
Total number of batches                      ...      140
Average number of points per batch           ...       62
Average number of grid points per atom       ...     1245
UseSFitting                                  ... on

GRIDX 3
-------
General Integration Accuracy     IntAcc      ... 4.338
Radial Grid Type                 RadialGrid  ... OptM3 with GC (2021)
Angular Grid (max. ang.)         AngularGrid ... 3 (Lebedev-194)
Angular grid pruning method      GridPruning ... 4 (adaptive)
Weight generation scheme         WeightScheme... Becke
Basis function cutoff            BFCut       ... 1.0000e-11
Integration weight cutoff        WCut        ... 1.0000e-14
Angular grids for H and He will be reduced by one unit
Partially contracted basis set               ... on
Rotationally invariant grid construction     ... off

Total number of grid points                  ...    19263
Total number of batches                      ...      305
Average number of points per batch           ...       63
Average number of grid points per atom       ...     2752
UseSFitting                                  ... on

Time for X-Grid setup             =    0.072 sec

--------------
SCF ITERATIONS
--------------
ITER       Energy         Delta-E        Max-DP      RMS-DP      [F,P]     Damp
               ***  Starting incremental Fock matrix formation  ***
  0   -153.6079092909   0.000000000000 0.03415470  0.00113128  0.1799499 0.7000
  1   -153.6356633476  -0.027754056762 0.01811192  0.00081804  0.0731478 0.7000
                               ***Turning on DIIS***
  2   -153.6465664718  -0.010903124178 0.02369835  0.00135076  0.0296247 0.0000
  3   -153.6646524086  -0.018085936733 0.01396952  0.00061680  0.0405736 0.0000
  4   -153.6680548363  -0.003402427730 0.00381628  0.00017373  0.0085058 0.0000
  5   -153.6682530227  -0.000198186442 0.00122873  0.00005686  0.0033519 0.0000
                      *** Initiating the SOSCF procedure ***
                           *** Shutting down DIIS ***
                      *** Re-Reading the Fockian *** 
                      *** Removing any level shift *** 
ITER      Energy       Delta-E        Grad      Rot      Max-DP    RMS-DP
  6   -153.66827360  -0.0000205755  0.000144  0.000144  0.000790  0.000027
               *** Restarting incremental Fock matrix formation ***
  7   -153.66826261   0.0000109922  0.000042  0.000074  0.000100  0.000004
  8   -153.66826257   0.0000000347  0.000073  0.000048  0.000063  0.000002
  9   -153.66826264  -0.0000000687  0.000007  0.000012  0.000017  0.000001
 10   -153.66826264   0.0000000006  0.000009  0.000007  0.000010  0.000000
                  ***Gradient check signals convergence***
              ***Rediagonalizing the Fockian in SOSCF/NRSCF***

               *****************************************************
               *                     SUCCESS                       *
               *           SCF CONVERGED AFTER  11 CYCLES          *
               *****************************************************

Old exchange energy                            =     -4.980047824 Eh
New exchange energy                            =     -4.980043747 Eh
Exchange energy change after final integration =      0.000004078 Eh
Total energy after final integration           =   -153.668258564 Eh
Final COS-X integration done in                =     0.251 sec

----------------
TOTAL SCF ENERGY
----------------

Total Energy       :         -153.66825856 Eh           -4181.52590 eV

Components:
Nuclear Repulsion  :           74.11990062 Eh            2016.90503 eV
Electronic Energy  :         -227.78815918 Eh           -6198.43093 eV
One Electron Energy:         -355.02825908 Eh           -9660.81008 eV
Two Electron Energy:          127.24009990 Eh            3462.37914 eV
Max COSX asymmetry :            0.00000347 Eh               0.00009 eV

Virial components:
Potential Energy   :         -306.39347786 Eh           -8337.39040 eV
Kinetic Energy     :          152.72521930 Eh            4155.86450 eV
Virial Ratio       :            2.00617474


DFT components:
N(Alpha)           :       12.000004531555 electrons
N(Beta)            :       12.000004531555 electrons
N(Total)           :       24.000009063110 electrons
E(X)               :      -14.915664946420 Eh       
E(C)               :       -0.787438783943 Eh       
E(XC)              :      -15.703103730362 Eh       
DFET-embed. en.    :        0.000000000000 Eh       

---------------
SCF CONVERGENCE
---------------

  Last Energy change         ...   -2.1450e-09  Tolerance :   1.0000e-08
  Last MAX-Density change    ...    4.4409e-16  Tolerance :   1.0000e-07
  Last RMS-Density change    ...    1.7833e-17  Tolerance :   5.0000e-09
  Last Orbital Gradient      ...    5.3156e-07  Tolerance :   1.0000e-05
  Last Orbital Rotation      ...    1.2035e-06  Tolerance :   1.0000e-05

             **** THE GBW FILE WAS UPDATED (ox_gs_A_orca0001.gbw) ****
             **** DENSITY ox_gs_A_orca0001.scfp WAS UPDATED ****
             **** ENERGY FILE WAS UPDATED (ox_gs_A_orca0001.en.tmp) ****
             **** THE GBW FILE WAS UPDATED (ox_gs_A_orca0001.gbw) ****
             **** DENSITY ox_gs_A_orca0001.scfp WAS UPDATED ****
----------------
ORBITAL ENERGIES
----------------

  NO   OCC          E(Eh)            E(eV) 
   0   2.0000     -19.221708      -523.0493 
   1   2.0000     -10.287188      -279.9286 
   2   2.0000     -10.282464      -279.8001 
   3   2.0000      -1.094698       -29.7883 
   4   2.0000      -0.691581       -18.8189 
   5   2.0000      -0.650521       -17.7016 
   6   2.0000      -0.524190       -14.2639 
   7   2.0000      -0.492478       -13.4010 
   8   2.0000      -0.408765       -11.1231 
   9   2.0000      -0.399854       -10.8806 
  10   2.0000      -0.326085        -8.8732 
  11   2.0000      -0.288524        -7.8511 
  12   0.0000       0.059224         1.6116 
  13   0.0000       0.071584         1.9479 
  14   0.0000       0.076458         2.0805 
  15   0.0000       0.095127         2.5885 
  16   0.0000       0.104541         2.8447 
  17   0.0000       0.147730         4.0199 
  18   0.0000       0.191818         5.2196 
  19   0.0000       0.201292         5.4774 
  20   0.0000       0.266493         7.2516 
  21   0.0000       0.273205         7.4343 
  22   0.0000       0.289976         7.8907 
  23   0.0000       0.327571         8.9137 
  24   0.0000       0.390107        10.6154 
  25   0.0000       0.399128        10.8608 
  26   0.0000       0.415742        11.3129 
  27   0.0000       0.419462        11.4141 
  28   0.0000       0.433615        11.7993 
  29   0.0000       0.464696        12.6450 
  30   0.0000       0.478226        13.0132 
  31   0.0000       0.508955        13.8494 
  32   0.0000       0.518073        14.0975 
  33   0.0000       0.704560        19.1721 
  34   0.0000       0.709553        19.3079 
  35   0.0000       0.719164        19.5695 
  36   0.0000       0.821217        22.3464 
  37   0.0000       0.840807        22.8795 
  38   0.0000       0.896564        24.3967 
  39   0.0000       0.928885        25.2762 
  40   0.0000       1.012216        27.5438 
  41   0.0000       1.029826        28.0230 
  42   0.0000       1.045672        28.4542 
  43   0.0000       1.080497        29.4018 
  44   0.0000       1.162807        31.6416 
  45   0.0000       1.361576        37.0504 
  46   0.0000       1.473501        40.0960 
  47   0.0000       1.498407        40.7737 
  48   0.0000       1.506069        40.9822 
  49   0.0000       1.516031        41.2533 
  50   0.0000       1.581647        43.0388 
  51   0.0000       1.636440        44.5298 
  52   0.0000       1.640599        44.6430 
  53   0.0000       1.673485        45.5378 
  54   0.0000       1.750141        47.6237 
  55   0.0000       1.826795        49.7096 
  56   0.0000       1.832573        49.8668 
  57   0.0000       1.890377        51.4398 
  58   0.0000       1.906954        51.8909 
  59   0.0000       1.960658        53.3522 
  60   0.0000       2.145656        58.3863 
  61   0.0000       2.156599        58.6840 
  62   0.0000       2.189901        59.5902 
  63   0.0000       2.197377        59.7937 
  64   0.0000       2.260336        61.5069 
  65   0.0000       2.389045        65.0092 
  66   0.0000       2.415516        65.7295 
  67   0.0000       2.437790        66.3356 
  68   0.0000       2.523571        68.6699 
  69   0.0000       2.562169        69.7202 
  70   0.0000       2.572485        70.0009 
  71   0.0000       2.683278        73.0157 
  72   0.0000       2.687383        73.1274 
  73   0.0000       2.698317        73.4249 
  74   0.0000       2.716741        73.9263 
  75   0.0000       2.790150        75.9238 
  76   0.0000       2.835492        77.1577 
  77   0.0000       2.955593        80.4258 
  78   0.0000       3.014777        82.0363 
  79   0.0000       3.021122        82.2089 
  80   0.0000       3.054633        83.1208 
  81   0.0000       3.080721        83.8307 
  82   0.0000       3.126245        85.0695 
  83   0.0000       3.231475        87.9329 
  84   0.0000       3.281223        89.2866 
  85   0.0000       3.303618        89.8960 
  86   0.0000       3.318863        90.3109 
  87   0.0000       3.391747        92.2941 
  88   0.0000       3.512836        95.5891 
  89   0.0000       3.577282        97.3428 
  90   0.0000       3.601800        98.0100 
  91   0.0000       3.693897       100.5160 
  92   0.0000       3.855865       104.9234 
  93   0.0000       3.969486       108.0152 
  94   0.0000       4.036695       109.8441 
  95   0.0000       4.054390       110.3256 
  96   0.0000       4.235237       115.2467 
  97   0.0000       4.254443       115.7693 
  98   0.0000       4.296730       116.9200 
  99   0.0000       4.586089       124.7938 
 100   0.0000       4.666578       126.9841 
 101   0.0000       4.814486       131.0088 
 102   0.0000       5.294348       144.0665 
 103   0.0000       5.445321       148.1747 
 104   0.0000       5.665178       154.1573 
 105   0.0000       5.740972       156.2198 
 106   0.0000       5.762082       156.7942 
 107   0.0000       5.873046       159.8137 
 108   0.0000       6.029602       164.0738 
 109   0.0000       6.607098       179.7883 
 110   0.0000       6.631496       180.4522 
 111   0.0000       6.786239       184.6630 
 112   0.0000       6.962240       189.4522 
 113   0.0000       7.181509       195.4188 
 114   0.0000      22.187351       603.7485 
 115   0.0000      22.283475       606.3642 
 116   0.0000      43.854220      1193.3340 

                    ********************************
                    * MULLIKEN POPULATION ANALYSIS *
                    ********************************

-----------------------
MULLIKEN ATOMIC CHARGES
-----------------------
   0 O :   -0.312773
   1 C :   -0.075004
   2 C :   -0.093694
   3 H :    0.113465
   4 H :    0.123161
   5 H :    0.118582
   6 H :    0.126263
Sum of atomic charges:    0.0000000

--------------------------------
MULLIKEN REDUCED ORBITAL CHARGES
--------------------------------
  0 O s       :     3.856909  s :     3.856909
      pz      :     1.844294  p :     4.411886
      px      :     1.308444
      py      :     1.259148
      dz2     :     0.005710  d :     0.041880
      dxz     :     0.002629
      dyz     :     0.006342
      dx2y2   :     0.011898
      dxy     :     0.015301
      f0      :     0.000243  f :     0.002098
      f+1     :     0.000200
      f-1     :     0.000458
      f+2     :     0.000075
      f-2     :     0.000197
      f+3     :     0.000361
      f-3     :     0.000564
  1 C s       :     3.238932  s :     3.238932
      pz      :     1.039950  p :     2.711788
      px      :     0.889286
      py      :     0.782553
      dz2     :     0.006738  d :     0.112766
      dxz     :     0.026801
      dyz     :     0.029822
      dx2y2   :     0.030095
      dxy     :     0.019310
      f0      :     0.001600  f :     0.011517
      f+1     :     0.001481
      f-1     :     0.000524
      f+2     :     0.001210
      f-2     :     0.001672
      f+3     :     0.002116
      f-3     :     0.002914
  2 C s       :     3.250714  s :     3.250714
      pz      :     1.032480  p :     2.727013
      px      :     0.909026
      py      :     0.785507
      dz2     :     0.007231  d :     0.105080
      dxz     :     0.023885
      dyz     :     0.027937
      dx2y2   :     0.026799
      dxy     :     0.019228
      f0      :     0.001422  f :     0.010887
      f+1     :     0.001386
      f-1     :     0.000595
      f+2     :     0.001124
      f-2     :     0.001524
      f+3     :     0.002142
      f-3     :     0.002694
  3 H s       :     0.866299  s :     0.866299
      pz      :     0.011004  p :     0.020236
      px      :     0.005735
      py      :     0.003497
  4 H s       :     0.855796  s :     0.855796
      pz      :     0.010809  p :     0.021043
      px      :     0.006428
      py      :     0.003806
  5 H s       :     0.861712  s :     0.861712
      pz      :     0.010440  p :     0.019706
      px      :     0.005537
      py      :     0.003729
  6 H s       :     0.852247  s :     0.852247
      pz      :     0.011391  p :     0.021490
      px      :     0.006312
      py      :     0.003788


                     *******************************
                     * LOEWDIN POPULATION ANALYSIS *
                     *******************************

----------------------
LOEWDIN ATOMIC CHARGES
----------------------
   0 O :    0.100525
   1 C :   -0.308632
   2 C :   -0.277184
   3 H :    0.122474
   4 H :    0.116790
   5 H :    0.128553
   6 H :    0.117474

-------------------------------
LOEWDIN REDUCED ORBITAL CHARGES
-------------------------------
  0 O s       :     3.398430  s :     3.398430
      pz      :     1.732992  p :     4.403500
      px      :     1.300616
      py      :     1.369892
      dz2     :     0.011556  d :     0.091203
      dxz     :     0.007868
      dyz     :     0.014154
      dx2y2   :     0.031546
      dxy     :     0.026079
      f0      :     0.000597  f :     0.006343
      f+1     :     0.000262
      f-1     :     0.000864
      f+2     :     0.000150
      f-2     :     0.000923
      f+3     :     0.001180
      f-3     :     0.002367
  1 C s       :     2.847652  s :     2.847652
      pz      :     1.052352  p :     2.916883
      px      :     1.015359
      py      :     0.849173
      dz2     :     0.055781  d :     0.472051
      dxz     :     0.130119
      dyz     :     0.080286
      dx2y2   :     0.108773
      dxy     :     0.097093
      f0      :     0.010198  f :     0.072046
      f+1     :     0.005802
      f-1     :     0.005535
      f+2     :     0.007710
      f-2     :     0.007443
      f+3     :     0.015592
      f-3     :     0.019766
  2 C s       :     2.855570  s :     2.855570
      pz      :     1.053727  p :     2.920785
      px      :     1.028907
      py      :     0.838151
      dz2     :     0.053422  d :     0.436480
      dxz     :     0.117327
      dyz     :     0.077772
      dx2y2   :     0.097924
      dxy     :     0.090035
      f0      :     0.008888  f :     0.064348
      f+1     :     0.005234
      f-1     :     0.005281
      f+2     :     0.006865
      f-2     :     0.006075
      f+3     :     0.014301
      f-3     :     0.017705
  3 H s       :     0.820906  s :     0.820906
      pz      :     0.031638  p :     0.056620
      px      :     0.014996
      py      :     0.009986
  4 H s       :     0.822196  s :     0.822196
      pz      :     0.032342  p :     0.061014
      px      :     0.017378
      py      :     0.011293
  5 H s       :     0.816936  s :     0.816936
      pz      :     0.029844  p :     0.054511
      px      :     0.014270
      py      :     0.010397
  6 H s       :     0.819980  s :     0.819980
      pz      :     0.034065  p :     0.062546
      px      :     0.017136
      py      :     0.011344


                      *****************************
                      * MAYER POPULATION ANALYSIS *
                      *****************************

  NA   - Mulliken gross atomic population
  ZA   - Total nuclear charge
  QA   - Mulliken gross atomic charge
  VA   - Mayer's total valence
  BVA  - Mayer's bonded valence
  FA   - Mayer's free valence

  ATOM       NA         ZA         QA         VA         BVA        FA
  0 O      8.3128     8.0000    -0.3128     1.9888     1.9888    -0.0000
  1 C      6.0750     6.0000    -0.0750     3.9737     3.9737     0.0000
  2 C      6.0937     6.0000    -0.0937     3.9660     3.9660     0.0000
  3 H      0.8865     1.0000     0.1135     0.9624     0.9624    -0.0000
  4 H      0.8768     1.0000     0.1232     0.9604     0.9604     0.0000
  5 H      0.8814     1.0000     0.1186     0.9609     0.9609    -0.0000
  6 H      0.8737     1.0000     0.1263     0.9601     0.9601     0.0000

  Mayer bond orders larger than 0.100000
B(  0-O ,  1-C ) :   0.9856 B(  0-O ,  2-C ) :   0.9860 B(  1-C ,  2-C ) :   1.0686 
B(  1-C ,  3-H ) :   0.9523 B(  1-C ,  4-H ) :   0.9499 B(  2-C ,  5-H ) :   0.9455 
B(  2-C ,  6-H ) :   0.9492 

-------
TIMINGS
-------

Total SCF time: 0 days 0 hours 0 min 2 sec 

Total time                  ....       2.673 sec
Sum of individual times     ....       2.437 sec  ( 91.2%)

Fock matrix formation       ....       2.119 sec  ( 79.3%)
  Split-RI-J                ....       0.296 sec  ( 14.0% of F)
  Chain of spheres X        ....       1.391 sec  ( 65.6% of F)
  XC integration            ....       0.385 sec  ( 18.2% of F)
    Basis function eval.    ....       0.102 sec  ( 26.4% of XC)
    Density eval.           ....       0.075 sec  ( 19.6% of XC)
    XC-Functional eval.     ....       0.022 sec  (  5.7% of XC)
    XC-Potential eval.      ....       0.134 sec  ( 34.9% of XC)
Diagonalization             ....       0.015 sec  (  0.6%)
Density matrix formation    ....       0.001 sec  (  0.0%)
Population analysis         ....       0.003 sec  (  0.1%)
Initial guess               ....       0.049 sec  (  1.8%)
Orbital Transformation      ....       0.000 sec  (  0.0%)
Orbital Orthonormalization  ....       0.000 sec  (  0.0%)
DIIS solution               ....       0.013 sec  (  0.5%)
SOSCF solution              ....       0.010 sec  (  0.4%)
Grid generation             ....       0.226 sec  (  8.4%)

Maximum memory used throughout the entire SCF-calculation: 61.0 MB


-------------------------------------------------------------------------------
                          DFT DISPERSION CORRECTION                            
                                                                               
                              DFTD3 V3.1  Rev 1                                
                          USING Becke-Johnson damping                          
-------------------------------------------------------------------------------
The PBE0 functional is recognized
Active option DFTDOPT                   ...         4   

molecular C6(AA) [au] = 351.081362 


            DFT-D V3
 parameters
 s6 scaling factor         :     1.0000 
 a1 scaling factor         :     0.4145 
 s8 scaling factor         :     1.2177 
 a2 scaling factor         :     4.8593 
 ad hoc parameters k1-k3   :    16.0000     1.3333    -4.0000 

 Edisp/kcal,au: -1.502804580290  -0.002394871284 
 E6   /kcal   :  -0.984716001 
 E8   /kcal   :  -0.518088580 
 % E8         :  34.474780444 

-------------------------   ----------------
Dispersion correction           -0.002394871
-------------------------   ----------------


-------------------------   --------------------
FINAL SINGLE POINT ENERGY      -153.670653435350
-------------------------   --------------------



           ************************************************************
           *        Program running with 8 parallel MPI-processes     *
           *              working on a common directory               *
           ************************************************************
------------------------------------------------------------------------------
                         ORCA SCF GRADIENT CALCULATION
------------------------------------------------------------------------------

 ... reading COSX grid (gridx3)
Gradient of the Kohn-Sham DFT energy:
Kohn-Sham wavefunction type      ... RKS
Hartree-Fock exchange scaling    ...    0.250
Number of operators              ...    1
Number of atoms                  ...    7
Basis set dimensions             ...  117
Integral neglect threshold       ... 2.5e-11
Integral primitive cutoff        ... 2.5e-12
SHARK Integral package           ... ON

Nuc. rep. gradient       (SHARK) ... done (  0.0 sec)
HCore & Overlap gradient (SHARK) ... done (  0.0 sec)
RI-J gradient            (SHARK) ... done (  0.2 sec)
COSX-gradient                    ... done (  0.3 sec)
Exchange-correlation gradient    ... done
Dispersion correction            ... done

------------------
CARTESIAN GRADIENT
------------------

   1   O   :   -0.014806665    0.020517892    0.003189494
   2   C   :   -0.014025552   -0.009406130   -0.025496940
   3   C   :    0.025884843   -0.010463300    0.031406261
   4   H   :   -0.006286335    0.003003565    0.021612866
   5   H   :   -0.004921616    0.004518086   -0.006268947
   6   H   :    0.011493112   -0.010458914   -0.029402058
   7   H   :    0.002656094    0.002124552    0.004821371

Difference to translation invariance:
           :   -0.0000061193   -0.0001642493   -0.0001379523

Difference to rotation invariance:
           :   -0.0002726717   -0.0000471306   -0.0001118590

Norm of the cartesian gradient     ...    0.0713575829
RMS gradient                       ...    0.0155715012
MAX gradient                       ...    0.0314062615

-------
TIMINGS
-------

Total SCF gradient time            ...        0.860 sec

One electron gradient       ....       0.013 sec  (  1.5%)
RI-J Coulomb gradient       ....       0.153 sec  ( 17.7%)
COSX gradient               ....       0.330 sec  ( 38.3%)
XC gradient                 ....       0.157 sec  ( 18.3%)

Maximum memory used throughout the entire SCFGRAD-calculation: 35.9 MB

                            ***************************************
                            *     ORCA property calculations      *
                            ***************************************

                                    ---------------------
                                    Active property flags
                                    ---------------------
   (+) Dipole Moment


------------------------------------------------------------------------------
                       ORCA ELECTRIC PROPERTIES CALCULATION
------------------------------------------------------------------------------

Dipole Moment Calculation                       ... on
Quadrupole Moment Calculation                   ... off
Polarizability Calculation                      ... off
GBWName                                         ... ox_gs_A_orca0001.gbw
Electron density                                ... ox_gs_A_orca0001.scfp
The origin for moment calculation is the CENTER OF MASS  = (-0.014804, -0.057035 -0.091226)

-------------
DIPOLE MOMENT
-------------
                                X             Y             Z
Electronic contribution:      0.02956       1.59495      -0.04651
Nuclear contribution   :     -0.02946      -2.31454       0.06865
                        -----------------------------------------
Total Dipole Moment    :      0.00010      -0.71959       0.02215
                        -----------------------------------------
Magnitude (a.u.)       :      0.71993
Magnitude (Debye)      :      1.82991



--------------------
Rotational spectrum 
--------------------
 
Rotational constants in cm-1:     0.849938     0.700248     0.461149 
Rotational constants in MHz : 25480.499527 20992.910095 13824.889959 

 Dipole components along the rotational axes: 
x,y,z [a.u.] :    -0.111121    -0.711274     0.006099 
x,y,z [Debye]:    -0.282447    -1.807915     0.015502 

 

Timings for individual modules:

Sum of individual times         ...        4.932 sec (=   0.082 min)
GTO integral calculation        ...        0.847 sec (=   0.014 min)  17.2 %
SCF iterations                  ...        2.930 sec (=   0.049 min)  59.4 %
SCF Gradient evaluation         ...        1.156 sec (=   0.019 min)  23.4 %
                             ****ORCA TERMINATED NORMALLY****
TOTAL RUN TIME: 0 days 0 hours 0 minutes 5 seconds 445 msec
