
                                 *****************
                                 * O   R   C   A *
                                 *****************

                                            #,                                       
                                            ###                                      
                                            ####                                     
                                            #####                                    
                                            ######                                   
                                           ########,                                 
                                     ,,################,,,,,                         
                               ,,#################################,,                 
                          ,,##########################################,,             
                       ,#########################################, ''#####,          
                    ,#############################################,,   '####,        
                  ,##################################################,,,,####,       
                ,###########''''           ''''###############################       
              ,#####''   ,,,,##########,,,,          '''####'''          '####       
            ,##' ,,,,###########################,,,                        '##       
           ' ,,###''''                  '''############,,,                           
         ,,##''                                '''############,,,,        ,,,,,,###''
      ,#''                                            '''#######################'''  
     '                                                          ''''####''''         
             ,#######,   #######,   ,#######,      ##                                
            ,#'     '#,  ##    ##  ,#'     '#,    #''#        ######   ,####,        
            ##       ##  ##   ,#'  ##            #'  '#       #        #'  '#        
            ##       ##  #######   ##           ,######,      #####,   #    #        
            '#,     ,#'  ##    ##  '#,     ,#' ,#      #,         ##   #,  ,#        
             '#######'   ##     ##  '#######'  #'      '#     #####' # '####'        



                  #######################################################
                  #                        -***-                        #
                  #          Department of theory and spectroscopy      #
                  #    Directorship and core code : Frank Neese         #
                  #        Max Planck Institute fuer Kohlenforschung    #
                  #                Kaiser Wilhelm Platz 1               #
                  #                 D-45470 Muelheim/Ruhr               #
                  #                      Germany                        #
                  #                                                     #
                  #                  All rights reserved                #
                  #                        -***-                        #
                  #######################################################


                         Program Version 5.0.2 -  RELEASE  -


 With contributions from (in alphabetic order):
   Daniel Aravena         : Magnetic Suceptibility
   Michael Atanasov       : Ab Initio Ligand Field Theory (pilot matlab implementation)
   Alexander A. Auer      : GIAO ZORA, VPT2 properties, NMR spectrum
   Ute Becker             : Parallelization
   Giovanni Bistoni       : ED, misc. LED, open-shell LED, HFLD
   Martin Brehm           : Molecular dynamics
   Dmytro Bykov           : SCF Hessian
   Vijay G. Chilkuri      : MRCI spin determinant printing, contributions to CSF-ICE
   Dipayan Datta          : RHF DLPNO-CCSD density
   Achintya Kumar Dutta   : EOM-CC, STEOM-CC
   Dmitry Ganyushin       : Spin-Orbit,Spin-Spin,Magnetic field MRCI
   Miquel Garcia          : C-PCM and meta-GGA Hessian, CC/C-PCM, Gaussian charge scheme
   Yang Guo               : DLPNO-NEVPT2, F12-NEVPT2, CIM, IAO-localization
   Andreas Hansen         : Spin unrestricted coupled pair/coupled cluster methods
   Benjamin Helmich-Paris : MC-RPA, TRAH-SCF, COSX integrals
   Lee Huntington         : MR-EOM, pCC
   Robert Izsak           : Overlap fitted RIJCOSX, COSX-SCS-MP3, EOM
   Marcus Kettner         : VPT2
   Christian Kollmar      : KDIIS, OOCD, Brueckner-CCSD(T), CCSD density, CASPT2, CASPT2-K
   Simone Kossmann        : Meta GGA functionals, TD-DFT gradient, OOMP2, MP2 Hessian
   Martin Krupicka        : Initial AUTO-CI
   Lucas Lang             : DCDCAS
   Marvin Lechner         : AUTO-CI (C++ implementation), FIC-MRCC
   Dagmar Lenk            : GEPOL surface, SMD
   Dimitrios Liakos       : Extrapolation schemes; Compound Job, initial MDCI parallelization
   Dimitrios Manganas     : Further ROCIS development; embedding schemes
   Dimitrios Pantazis     : SARC Basis sets
   Anastasios Papadopoulos: AUTO-CI, single reference methods and gradients
   Taras Petrenko         : DFT Hessian,TD-DFT gradient, ASA, ECA, R-Raman, ABS, FL, XAS/XES, NRVS
   Peter Pinski           : DLPNO-MP2, DLPNO-MP2 Gradient
   Christoph Reimann      : Effective Core Potentials
   Marius Retegan         : Local ZFS, SOC
   Christoph Riplinger    : Optimizer, TS searches, QM/MM, DLPNO-CCSD(T), (RO)-DLPNO pert. Triples
   Tobias Risthaus        : Range-separated hybrids, TD-DFT gradient, RPA, STAB
   Michael Roemelt        : Original ROCIS implementation
   Masaaki Saitow         : Open-shell DLPNO-CCSD energy and density
   Barbara Sandhoefer     : DKH picture change effects
   Avijit Sen             : IP-ROCIS
   Kantharuban Sivalingam : CASSCF convergence, NEVPT2, FIC-MRCI
   Bernardo de Souza      : ESD, SOC TD-DFT
   Georgi Stoychev        : AutoAux, RI-MP2 NMR, DLPNO-MP2 response
   Willem Van den Heuvel  : Paramagnetic NMR
   Boris Wezisla          : Elementary symmetry handling
   Frank Wennmohs         : Technical directorship


 We gratefully acknowledge several colleagues who have allowed us to
 interface, adapt or use parts of their codes:
   Stefan Grimme, W. Hujo, H. Kruse, P. Pracht,  : VdW corrections, initial TS optimization,
                  C. Bannwarth, S. Ehlert          DFT functionals, gCP, sTDA/sTD-DF
   Ed Valeev, F. Pavosevic, A. Kumar             : LibInt (2-el integral package), F12 methods
   Garnet Chan, S. Sharma, J. Yang, R. Olivares  : DMRG
   Ulf Ekstrom                                   : XCFun DFT Library
   Mihaly Kallay                                 : mrcc  (arbitrary order and MRCC methods)
   Jiri Pittner, Ondrej Demel                    : Mk-CCSD
   Frank Weinhold                                : gennbo (NPA and NBO analysis)
   Christopher J. Cramer and Donald G. Truhlar   : smd solvation model
   Lars Goerigk                                  : TD-DFT with DH, B97 family of functionals
   V. Asgeirsson, H. Jonsson                     : NEB implementation
   FAccTs GmbH                                   : IRC, NEB, NEB-TS, DLPNO-Multilevel, CI-OPT
                                                   MM, QMMM, 2- and 3-layer-ONIOM, Crystal-QMMM,
                                                   LR-CPCM, SF, NACMEs, symmetry and pop. for TD-DFT,
                                                   nearIR, NL-DFT gradient (VV10), updates on ESD,
                                                   ML-optimized integration grids
   S Lehtola, MJT Oliveira, MAL Marques          : LibXC Library
   Liviu Ungur et al                             : ANISO software


 Your calculation uses the libint2 library for the computation of 2-el integrals
 For citations please refer to: http://libint.valeyev.net

 Your ORCA version has been built with support for libXC version: 5.1.0
 For citations please refer to: https://tddft.org/programs/libxc/

 This ORCA versions uses:
   CBLAS   interface :  Fast vector & matrix operations
   LAPACKE interface :  Fast linear algebra routines
   SCALAPACK package :  Parallel linear algebra routines
   Shared memory     :  Shared parallel matrices
   BLAS/LAPACK       :  OpenBLAS 0.3.15  USE64BITINT DYNAMIC_ARCH NO_AFFINITY SkylakeX SINGLE_THREADED
        Core in use  :  SkylakeX
   Copyright (c) 2011-2014, The OpenBLAS Project


Your calculation utilizes the atom-pairwise dispersion correction
with the Becke-Johnson damping scheme (D3BJ)
Cite in your paper:
S.Grimme, S.Ehrlich, L.Goerigk, J Comput Chem, (2011), 32, 1456–1465 
S.Grimme, J.Antony, S.Ehrlich and H.Krieg, J.Chem.Phys., 132, (2010), 154104 
   

================================================================================

----- Orbital basis set information -----
Your calculation utilizes the basis: def2-TZVP
   F. Weigend and R. Ahlrichs, Phys. Chem. Chem. Phys. 7, 3297 (2005).

----- AuxJ basis set information -----
Your calculation utilizes the auxiliary basis: def2/J
   F. Weigend, Phys. Chem. Chem. Phys. 8, 1057 (2006).

================================================================================
                                        WARNINGS
                       Please study these warnings very carefully!
================================================================================


INFO   : the flag for use of the SHARK integral package has been found!

================================================================================
                                       INPUT FILE
================================================================================
NAME = ox_gs_A_orca0034.inp
|  1> ! engrad PBE0 D3BJ def2-TZVP  
|  2> %pal nprocs 8 end
|  3> %maxcore 3000
|  4>  
|  5> *xyz 0 1 
|  6> O   -0.0018816851212424184 0.8220894041008261 0.0057114924331019825
|  7> C   -0.7213745019269061 -0.4652011006106928 -0.002847281186053373
|  8> C   0.7442796284446029 -0.5325289096328313 -0.06740927110528565
|  9> H   -1.2266597252988642 -0.6597275380936028 0.910777053182366
| 10> H   -1.2629010733467303 -0.6508918247319165 -0.9469642040154681
| 11> H   1.2249075837298842 -0.6584785972451159 -0.9688948588807517
| 12> H   1.2842355077857237 -0.753399990211892 0.9714339518662821
| 13> *
| 14> 
| 15>                          ****END OF INPUT****
================================================================================

                     *******************************
                     * Energy+Gradient Calculation *
                     *******************************

---------------------------------
CARTESIAN COORDINATES (ANGSTROEM)
---------------------------------
  O     -0.001882    0.822089    0.005711
  C     -0.721375   -0.465201   -0.002847
  C      0.744280   -0.532529   -0.067409
  H     -1.226660   -0.659728    0.910777
  H     -1.262901   -0.650892   -0.946964
  H      1.224908   -0.658479   -0.968895
  H      1.284236   -0.753400    0.971434

----------------------------
CARTESIAN COORDINATES (A.U.)
----------------------------
  NO LB      ZA    FRAG     MASS         X           Y           Z
   0 O     8.0000    0    15.999   -0.003556    1.553524    0.010793
   1 C     6.0000    0    12.011   -1.363200   -0.879103   -0.005381
   2 C     6.0000    0    12.011    1.406485   -1.006334   -0.127385
   3 H     1.0000    0     1.008   -2.318051   -1.246704    1.721119
   4 H     1.0000    0     1.008   -2.386537   -1.230007   -1.789503
   5 H     1.0000    0     1.008    2.314740   -1.244344   -1.830946
   6 H     1.0000    0     1.008    2.426853   -1.423720    1.835744

--------------------------------
INTERNAL COORDINATES (ANGSTROEM)
--------------------------------
 O      0   0   0     0.000000000000     0.00000000     0.00000000
 C      1   0   0     1.474740658408     0.00000000     0.00000000
 C      2   1   0     1.468619526727    63.47295869     0.00000000
 H      2   1   3     1.062009000050   112.76902707   113.68381843
 H      2   1   3     1.104123560364   113.01976335   250.89550241
 H      3   2   1     1.029340964005   120.67016372   261.63884718
 H      3   2   1     1.191440987958   114.98928113    98.81871253

---------------------------
INTERNAL COORDINATES (A.U.)
---------------------------
 O      0   0   0     0.000000000000     0.00000000     0.00000000
 C      1   0   0     2.786855962950     0.00000000     0.00000000
 C      2   1   0     2.775288700444    63.47295869     0.00000000
 H      2   1   3     2.006906161855   112.76902707   113.68381843
 H      2   1   3     2.086491147098   113.01976335   250.89550241
 H      3   2   1     1.945172520395   120.67016372   261.63884718
 H      3   2   1     2.251497171968   114.98928113    98.81871253

---------------------
BASIS SET INFORMATION
---------------------
There are 3 groups of distinct atoms

 Group   1 Type O   : 11s6p2d1f contracted to 5s3p2d1f pattern {62111/411/11/1}
 Group   2 Type C   : 11s6p2d1f contracted to 5s3p2d1f pattern {62111/411/11/1}
 Group   3 Type H   : 5s1p contracted to 3s1p pattern {311/1}

Atom   0O    basis set group =>   1
Atom   1C    basis set group =>   2
Atom   2C    basis set group =>   2
Atom   3H    basis set group =>   3
Atom   4H    basis set group =>   3
Atom   5H    basis set group =>   3
Atom   6H    basis set group =>   3
---------------------------------
AUXILIARY/J BASIS SET INFORMATION
---------------------------------
There are 3 groups of distinct atoms

 Group   1 Type O   : 12s5p4d2f1g contracted to 6s4p3d1f1g pattern {711111/2111/211/2/1}
 Group   2 Type C   : 12s5p4d2f1g contracted to 6s4p3d1f1g pattern {711111/2111/211/2/1}
 Group   3 Type H   : 5s2p1d contracted to 3s1p1d pattern {311/2/1}

Atom   0O    basis set group =>   1
Atom   1C    basis set group =>   2
Atom   2C    basis set group =>   2
Atom   3H    basis set group =>   3
Atom   4H    basis set group =>   3
Atom   5H    basis set group =>   3
Atom   6H    basis set group =>   3


           ************************************************************
           *        Program running with 8 parallel MPI-processes     *
           *              working on a common directory               *
           ************************************************************
------------------------------------------------------------------------------
                           ORCA GTO INTEGRAL CALCULATION
                           -- RI-GTO INTEGRALS CHOSEN --
------------------------------------------------------------------------------
------------------------------------------------------------------------------
                   ___                                                        
                  /   \      - P O W E R E D   B Y -                         
                 /     \                                                     
                 |  |  |   _    _      __       _____    __    __             
                 |  |  |  | |  | |    /  \     |  _  \  |  |  /  |          
                  \  \/   | |  | |   /    \    | | | |  |  | /  /          
                 / \  \   | |__| |  /  /\  \   | |_| |  |  |/  /          
                |  |  |   |  __  | /  /__\  \  |    /   |      \           
                |  |  |   | |  | | |   __   |  |    \   |  |\   \          
                \     /   | |  | | |  |  |  |  | |\  \  |  | \   \       
                 \___/    |_|  |_| |__|  |__|  |_| \__\ |__|  \__/        
                                                                              
                      - O R C A' S   B I G   F R I E N D -                    
                                      &                                       
                       - I N T E G R A L  F E E D E R -                       
                                                                              
 v1 FN, 2020, v2 2021                                                         
------------------------------------------------------------------------------


Reading SHARK input file ox_gs_A_orca0034.SHARKINP.tmp ... ok
----------------------
SHARK INTEGRAL PACKAGE
----------------------

Number of atoms                             ...      7
Number of basis functions                   ...    117
Number of shells                            ...     49
Maximum angular momentum                    ...      3
Integral batch strategy                     ... SHARK/LIBINT Hybrid
RI-J (if used) integral strategy            ... SPLIT-RIJ (Revised 2003 algorithm where possible)
Printlevel                                  ...      1
Contraction scheme used                     ... SEGMENTED contraction
Coulomb Range Separation                    ... NOT USED
Exchange Range Separation                   ... NOT USED
Finite Nucleus Model                        ... NOT USED
Auxiliary Coulomb fitting basis             ... AVAILABLE
   # of basis functions in Aux-J            ...    191
   # of shells in Aux-J                     ...     65
   Maximum angular momentum in Aux-J        ...      4
Auxiliary J/K fitting basis                 ... NOT available
Auxiliary Correlation fitting basis         ... NOT available
Auxiliary 'external' fitting basis          ... NOT available
Integral threshold                          ...     2.500000e-11
Primitive cut-off                           ...     2.500000e-12
Primitive pair pre-selection threshold      ...     2.500000e-12

Calculating pre-screening integrals         ... done (  0.0 sec) Dimension = 49
Organizing shell pair data                  ... done (  0.0 sec)
Shell pair information
Total number of shell pairs                 ...      1225
Shell pairs after pre-screening             ...      1220
Total number of primitive shell pairs       ...      3648
Primitive shell pairs kept                  ...      3143
          la=0 lb=0:    373 shell pairs
          la=1 lb=0:    351 shell pairs
          la=1 lb=1:     91 shell pairs
          la=2 lb=0:    162 shell pairs
          la=2 lb=1:     78 shell pairs
          la=2 lb=2:     21 shell pairs
          la=3 lb=0:     81 shell pairs
          la=3 lb=1:     39 shell pairs
          la=3 lb=2:     18 shell pairs
          la=3 lb=3:      6 shell pairs

Calculating one electron integrals          ... done (  0.0 sec)
Calculating RI/J V-Matrix + Cholesky decomp.... done (  0.0 sec)
Calculating Nuclear repulsion               ... done (  0.0 sec) ENN=     73.084558570143 Eh

SHARK setup successfully completed in   0.1 seconds

Maximum memory used throughout the entire GTOINT-calculation: 14.9 MB


           ************************************************************
           *        Program running with 8 parallel MPI-processes     *
           *              working on a common directory               *
           ************************************************************
-------------------------------------------------------------------------------
                                 ORCA SCF
-------------------------------------------------------------------------------

------------
SCF SETTINGS
------------
Hamiltonian:
 Density Functional     Method          .... DFT(GTOs)
 Exchange Functional    Exchange        .... PBE
   PBE kappa parameter   XKappa         ....  0.804000
   PBE mue parameter    XMuePBE         ....  0.219520
 Correlation Functional Correlation     .... PBE
   PBE beta parameter  CBetaPBE         ....  0.066725
 LDA part of GGA corr.  LDAOpt          .... PW91-LDA
 Gradients option       PostSCFGGA      .... off
 Hybrid DFT is turned on
   Fraction HF Exchange ScalHFX         ....  0.250000
   Scaling of DF-GGA-X  ScalDFX         ....  0.750000
   Scaling of DF-GGA-C  ScalDFC         ....  1.000000
   Scaling of DF-LDA-C  ScalLDAC        ....  1.000000
   Perturbative correction              ....  0.000000
   Density functional embedding theory  .... OFF
   NL short-range parameter             ....  6.900000
 RI-approximation to the Coulomb term is turned on
   Number of AuxJ basis functions       .... 191
   RIJ-COSX (HFX calculated with COS-X)).... on


General Settings:
 Integral files         IntName         .... ox_gs_A_orca0034
 Hartree-Fock type      HFTyp           .... RHF
 Total Charge           Charge          ....    0
 Multiplicity           Mult            ....    1
 Number of Electrons    NEL             ....   24
 Basis Dimension        Dim             ....  117
 Nuclear Repulsion      ENuc            ....     73.0845585701 Eh

Convergence Acceleration:
 DIIS                   CNVDIIS         .... on
   Start iteration      DIISMaxIt       ....    12
   Startup error        DIISStart       ....  0.200000
   # of expansion vecs  DIISMaxEq       ....     5
   Bias factor          DIISBfac        ....   1.050
   Max. coefficient     DIISMaxC        ....  10.000
 Trust-Rad. Augm. Hess. CNVTRAH         .... auto
   Auto Start mean grad. ratio tolernc. ....  1.125000
   Auto Start start iteration           ....    20
   Auto Start num. interpolation iter.  ....    10
   Max. Number of Micro iterations      ....    16
   Max. Number of Macro iterations      .... Maxiter - #DIIS iter
   Number of Davidson start vectors     ....     2
   Converg. threshold I  (grad. norm)   ....   1.000e-05
   Converg. threshold II (energy diff.) ....   1.000e-08
   Grad. Scal. Fac. for Micro threshold ....   0.100
   Minimum threshold for Micro iter.    ....   0.010
   NR start threshold (gradient norm)   ....   0.001
   Initial trust radius                 ....   0.400
   Minimum AH scaling param. (alpha)    ....   1.000
   Maximum AH scaling param. (alpha)    .... 1000.000
   Orbital update algorithm             .... Taylor
   White noise on init. David. guess    .... on
   Maximum white noise                  ....   0.010
   Quad. conv. algorithm                .... NR
 SOSCF                  CNVSOSCF        .... on
   Start iteration      SOSCFMaxIt      ....   150
   Startup grad/error   SOSCFStart      ....  0.003300
 Level Shifting         CNVShift        .... on
   Level shift para.    LevelShift      ....    0.2500
   Turn off err/grad.   ShiftErr        ....    0.0010
 Zerner damping         CNVZerner       .... off
 Static damping         CNVDamp         .... on
   Fraction old density DampFac         ....    0.7000
   Max. Damping (<1)    DampMax         ....    0.9800
   Min. Damping (>=0)   DampMin         ....    0.0000
   Turn off err/grad.   DampErr         ....    0.1000
 Fernandez-Rico         CNVRico         .... off

SCF Procedure:
 Maximum # iterations   MaxIter         ....   125
 SCF integral mode      SCFMode         .... Direct
   Integral package                     .... SHARK and LIBINT hybrid scheme
 Reset frequency        DirectResetFreq ....    20
 Integral Threshold     Thresh          ....  2.500e-11 Eh
 Primitive CutOff       TCut            ....  2.500e-12 Eh

Convergence Tolerance:
 Convergence Check Mode ConvCheckMode   .... Total+1el-Energy
 Convergence forced     ConvForced      .... 0
 Energy Change          TolE            ....  1.000e-08 Eh
 1-El. energy change                    ....  1.000e-05 Eh
 Orbital Gradient       TolG            ....  1.000e-05
 Orbital Rotation angle TolX            ....  1.000e-05
 DIIS Error             TolErr          ....  5.000e-07


Diagonalization of the overlap matrix:
Smallest eigenvalue                        ... 4.212e-04
Time for diagonalization                   ...    0.001 sec
Threshold for overlap eigenvalues          ... 1.000e-08
Number of eigenvalues below threshold      ... 0
Time for construction of square roots      ...    0.001 sec
Total time needed                          ...    0.003 sec

Time for model grid setup =    0.021 sec

------------------------------
INITIAL GUESS: MODEL POTENTIAL
------------------------------
Loading Hartree-Fock densities                     ... done
Calculating cut-offs                               ... done
Initializing the effective Hamiltonian             ... done
Setting up the integral package (SHARK)            ... done
Starting the Coulomb interaction                   ... done (   0.0 sec)
Reading the grid                                   ... done
Mapping shells                                     ... done
Starting the XC term evaluation                    ... done (   0.0 sec)
  promolecular density results
     # of electrons  =     23.997726437
     EX              =    -19.496816717
     EC              =     -0.775929869
     EX+EC           =    -20.272746586
Transforming the Hamiltonian                       ... done (   0.0 sec)
Diagonalizing the Hamiltonian                      ... done (   0.0 sec)
Back transforming the eigenvectors                 ... done (   0.0 sec)
Now organizing SCF variables                       ... done
                      ------------------
                      INITIAL GUESS DONE (   0.0 sec)
                      ------------------
-------------------
DFT GRID GENERATION
-------------------

General Integration Accuracy     IntAcc      ... 4.388
Radial Grid Type                 RadialGrid  ... OptM3 with GC (2021)
Angular Grid (max. ang.)         AngularGrid ... 4 (Lebedev-302)
Angular grid pruning method      GridPruning ... 4 (adaptive)
Weight generation scheme         WeightScheme... Becke
Basis function cutoff            BFCut       ... 1.0000e-11
Integration weight cutoff        WCut        ... 1.0000e-14
Angular grids for H and He will be reduced by one unit
Partially contracted basis set               ... off
Rotationally invariant grid construction     ... off

Total number of grid points                  ...    31328
Total number of batches                      ...      493
Average number of points per batch           ...       63
Average number of grid points per atom       ...     4475
Time for grid setup =    0.113 sec

--------------------
COSX GRID GENERATION
--------------------

GRIDX 1
-------
General Integration Accuracy     IntAcc      ... 3.816
Radial Grid Type                 RadialGrid  ... OptM3 with GC (2021)
Angular Grid (max. ang.)         AngularGrid ... 1 (Lebedev-50)
Angular grid pruning method      GridPruning ... 4 (adaptive)
Weight generation scheme         WeightScheme... Becke
Basis function cutoff            BFCut       ... 1.0000e-11
Integration weight cutoff        WCut        ... 1.0000e-14
Angular grids for H and He will be reduced by one unit
Partially contracted basis set               ... on
Rotationally invariant grid construction     ... off

Total number of grid points                  ...     4039
Total number of batches                      ...       68
Average number of points per batch           ...       59
Average number of grid points per atom       ...      577
UseSFitting                                  ... on

GRIDX 2
-------
General Integration Accuracy     IntAcc      ... 4.020
Radial Grid Type                 RadialGrid  ... OptM3 with GC (2021)
Angular Grid (max. ang.)         AngularGrid ... 2 (Lebedev-110)
Angular grid pruning method      GridPruning ... 4 (adaptive)
Weight generation scheme         WeightScheme... Becke
Basis function cutoff            BFCut       ... 1.0000e-11
Integration weight cutoff        WCut        ... 1.0000e-14
Angular grids for H and He will be reduced by one unit
Partially contracted basis set               ... on
Rotationally invariant grid construction     ... off

Total number of grid points                  ...     8721
Total number of batches                      ...      141
Average number of points per batch           ...       61
Average number of grid points per atom       ...     1246
UseSFitting                                  ... on

GRIDX 3
-------
General Integration Accuracy     IntAcc      ... 4.338
Radial Grid Type                 RadialGrid  ... OptM3 with GC (2021)
Angular Grid (max. ang.)         AngularGrid ... 3 (Lebedev-194)
Angular grid pruning method      GridPruning ... 4 (adaptive)
Weight generation scheme         WeightScheme... Becke
Basis function cutoff            BFCut       ... 1.0000e-11
Integration weight cutoff        WCut        ... 1.0000e-14
Angular grids for H and He will be reduced by one unit
Partially contracted basis set               ... on
Rotationally invariant grid construction     ... off

Total number of grid points                  ...    19251
Total number of batches                      ...      305
Average number of points per batch           ...       63
Average number of grid points per atom       ...     2750
UseSFitting                                  ... on

Time for X-Grid setup             =    0.073 sec

--------------
SCF ITERATIONS
--------------
ITER       Energy         Delta-E        Max-DP      RMS-DP      [F,P]     Damp
               ***  Starting incremental Fock matrix formation  ***
  0   -153.5943443789   0.000000000000 0.03297126  0.00115467  0.1813920 0.7000
  1   -153.6226056718  -0.028261292895 0.01758520  0.00083570  0.0715594 0.7000
                               ***Turning on DIIS***
  2   -153.6337304428  -0.011124771034 0.02504578  0.00137643  0.0317564 0.0000
  3   -153.6523816241  -0.018651181227 0.01465071  0.00064013  0.0395299 0.0000
  4   -153.6557213354  -0.003339711304 0.00452935  0.00017619  0.0105557 0.0000
  5   -153.6559673530  -0.000246017611 0.00132342  0.00005724  0.0039151 0.0000
                      *** Initiating the SOSCF procedure ***
                           *** Shutting down DIIS ***
                      *** Re-Reading the Fockian *** 
                      *** Removing any level shift *** 
ITER      Energy       Delta-E        Grad      Rot      Max-DP    RMS-DP
  6   -153.65599273  -0.0000253797  0.000102  0.000102  0.000751  0.000026
               *** Restarting incremental Fock matrix formation ***
  7   -153.65597829   0.0000144474  0.000062  0.000125  0.000121  0.000005
  8   -153.65597820   0.0000000876  0.000124  0.000091  0.000089  0.000003
  9   -153.65597834  -0.0000001396  0.000009  0.000017  0.000028  0.000001
 10   -153.65597834   0.0000000020  0.000011  0.000011  0.000016  0.000001
                  ***Gradient check signals convergence***
              ***Rediagonalizing the Fockian in SOSCF/NRSCF***

               *****************************************************
               *                     SUCCESS                       *
               *           SCF CONVERGED AFTER  11 CYCLES          *
               *****************************************************

Old exchange energy                            =     -4.977334421 Eh
New exchange energy                            =     -4.977333016 Eh
Exchange energy change after final integration =      0.000001405 Eh
Total energy after final integration           =   -153.655976936 Eh
Final COS-X integration done in                =     0.267 sec

----------------
TOTAL SCF ENERGY
----------------

Total Energy       :         -153.65597694 Eh           -4181.19170 eV

Components:
Nuclear Repulsion  :           73.08455857 Eh            1988.73194 eV
Electronic Energy  :         -226.74053551 Eh           -6169.92364 eV
One Electron Energy:         -353.03038501 Eh           -9606.44516 eV
Two Electron Energy:          126.28984950 Eh            3436.52151 eV
Max COSX asymmetry :            0.00000284 Eh               0.00008 eV

Virial components:
Potential Energy   :         -306.39672625 Eh           -8337.47879 eV
Kinetic Energy     :          152.74074931 Eh            4156.28709 eV
Virial Ratio       :            2.00599203


DFT components:
N(Alpha)           :       12.000002126681 electrons
N(Beta)            :       12.000002126681 electrons
N(Total)           :       24.000004253361 electrons
E(X)               :      -14.912520589420 Eh       
E(C)               :       -0.784823745473 Eh       
E(XC)              :      -15.697344334893 Eh       
DFET-embed. en.    :        0.000000000000 Eh       

---------------
SCF CONVERGENCE
---------------

  Last Energy change         ...   -4.8249e-09  Tolerance :   1.0000e-08
  Last MAX-Density change    ...    8.8818e-16  Tolerance :   1.0000e-07
  Last RMS-Density change    ...    1.9153e-17  Tolerance :   5.0000e-09
  Last Orbital Gradient      ...    7.6325e-07  Tolerance :   1.0000e-05
  Last Orbital Rotation      ...    1.1955e-06  Tolerance :   1.0000e-05

             **** THE GBW FILE WAS UPDATED (ox_gs_A_orca0034.gbw) ****
             **** DENSITY ox_gs_A_orca0034.scfp WAS UPDATED ****
             **** ENERGY FILE WAS UPDATED (ox_gs_A_orca0034.en.tmp) ****
             **** THE GBW FILE WAS UPDATED (ox_gs_A_orca0034.gbw) ****
             **** DENSITY ox_gs_A_orca0034.scfp WAS UPDATED ****
----------------
ORBITAL ENERGIES
----------------

  NO   OCC          E(Eh)            E(eV) 
   0   2.0000     -19.218133      -522.9520 
   1   2.0000     -10.286663      -279.9143 
   2   2.0000     -10.278197      -279.6839 
   3   2.0000      -1.057177       -28.7673 
   4   2.0000      -0.712847       -19.3975 
   5   2.0000      -0.646870       -17.6022 
   6   2.0000      -0.524503       -14.2725 
   7   2.0000      -0.485778       -13.2187 
   8   2.0000      -0.404180       -10.9983 
   9   2.0000      -0.382182       -10.3997 
  10   2.0000      -0.338179        -9.2023 
  11   2.0000      -0.286234        -7.7888 
  12   0.0000       0.049954         1.3593 
  13   0.0000       0.057334         1.5601 
  14   0.0000       0.078346         2.1319 
  15   0.0000       0.087992         2.3944 
  16   0.0000       0.099814         2.7161 
  17   0.0000       0.150334         4.0908 
  18   0.0000       0.187109         5.0915 
  19   0.0000       0.201300         5.4777 
  20   0.0000       0.265567         7.2264 
  21   0.0000       0.274156         7.4602 
  22   0.0000       0.294720         8.0197 
  23   0.0000       0.298509         8.1229 
  24   0.0000       0.395387        10.7590 
  25   0.0000       0.406379        11.0581 
  26   0.0000       0.410733        11.1766 
  27   0.0000       0.421658        11.4739 
  28   0.0000       0.439925        11.9710 
  29   0.0000       0.471079        12.8187 
  30   0.0000       0.485862        13.2210 
  31   0.0000       0.512533        13.9467 
  32   0.0000       0.539774        14.6880 
  33   0.0000       0.684200        18.6180 
  34   0.0000       0.706167        19.2158 
  35   0.0000       0.728264        19.8171 
  36   0.0000       0.818769        22.2798 
  37   0.0000       0.848414        23.0865 
  38   0.0000       0.882324        24.0093 
  39   0.0000       0.933426        25.3998 
  40   0.0000       1.004685        27.3389 
  41   0.0000       1.032898        28.1066 
  42   0.0000       1.039566        28.2880 
  43   0.0000       1.087881        29.6028 
  44   0.0000       1.166250        31.7353 
  45   0.0000       1.357338        36.9350 
  46   0.0000       1.461987        39.7827 
  47   0.0000       1.491403        40.5831 
  48   0.0000       1.504293        40.9339 
  49   0.0000       1.513301        41.1790 
  50   0.0000       1.583667        43.0938 
  51   0.0000       1.627190        44.2781 
  52   0.0000       1.652770        44.9742 
  53   0.0000       1.677942        45.6591 
  54   0.0000       1.761616        47.9360 
  55   0.0000       1.822960        49.6053 
  56   0.0000       1.832388        49.8618 
  57   0.0000       1.854659        50.4678 
  58   0.0000       1.900835        51.7243 
  59   0.0000       1.951840        53.1123 
  60   0.0000       2.156418        58.6791 
  61   0.0000       2.160444        58.7887 
  62   0.0000       2.187514        59.5253 
  63   0.0000       2.220909        60.4340 
  64   0.0000       2.254368        61.3445 
  65   0.0000       2.408029        65.5258 
  66   0.0000       2.434082        66.2347 
  67   0.0000       2.455167        66.8085 
  68   0.0000       2.518631        68.5354 
  69   0.0000       2.548137        69.3383 
  70   0.0000       2.602006        70.8042 
  71   0.0000       2.660142        72.3861 
  72   0.0000       2.675404        72.8015 
  73   0.0000       2.708332        73.6975 
  74   0.0000       2.742897        74.6380 
  75   0.0000       2.777167        75.5705 
  76   0.0000       2.846035        77.4445 
  77   0.0000       2.952582        80.3438 
  78   0.0000       2.970158        80.8221 
  79   0.0000       3.022334        82.2419 
  80   0.0000       3.056914        83.1829 
  81   0.0000       3.077006        83.7296 
  82   0.0000       3.147627        85.6513 
  83   0.0000       3.221359        87.6576 
  84   0.0000       3.246539        88.3428 
  85   0.0000       3.312654        90.1419 
  86   0.0000       3.356261        91.3285 
  87   0.0000       3.380112        91.9775 
  88   0.0000       3.534530        96.1794 
  89   0.0000       3.579355        97.3992 
  90   0.0000       3.623315        98.5954 
  91   0.0000       3.668773        99.8324 
  92   0.0000       3.868936       105.2791 
  93   0.0000       3.983514       108.3969 
  94   0.0000       4.048567       110.1671 
  95   0.0000       4.082988       111.1037 
  96   0.0000       4.188342       113.9706 
  97   0.0000       4.323795       117.6564 
  98   0.0000       4.376427       119.0886 
  99   0.0000       4.618842       125.6851 
 100   0.0000       4.680995       127.3763 
 101   0.0000       4.779947       130.0690 
 102   0.0000       5.256703       143.0422 
 103   0.0000       5.383753       146.4994 
 104   0.0000       5.562204       151.3553 
 105   0.0000       5.653591       153.8420 
 106   0.0000       5.677236       154.4854 
 107   0.0000       5.759253       156.7172 
 108   0.0000       5.942847       161.7131 
 109   0.0000       6.538078       177.9101 
 110   0.0000       6.572590       178.8493 
 111   0.0000       6.750953       183.7028 
 112   0.0000       6.964386       189.5106 
 113   0.0000       7.171189       195.1380 
 114   0.0000      22.177681       603.4854 
 115   0.0000      22.333843       607.7348 
 116   0.0000      43.786359      1191.4874 

                    ********************************
                    * MULLIKEN POPULATION ANALYSIS *
                    ********************************

-----------------------
MULLIKEN ATOMIC CHARGES
-----------------------
   0 O :   -0.333716
   1 C :   -0.058671
   2 C :   -0.106255
   3 H :    0.120908
   4 H :    0.112506
   5 H :    0.137169
   6 H :    0.128060
Sum of atomic charges:    0.0000000

--------------------------------
MULLIKEN REDUCED ORBITAL CHARGES
--------------------------------
  0 O s       :     3.879731  s :     3.879731
      pz      :     1.873285  p :     4.417608
      px      :     1.346371
      py      :     1.197953
      dz2     :     0.005100  d :     0.034642
      dxz     :     0.001881
      dyz     :     0.005176
      dx2y2   :     0.010103
      dxy     :     0.012381
      f0      :     0.000187  f :     0.001735
      f+1     :     0.000149
      f-1     :     0.000413
      f+2     :     0.000073
      f-2     :     0.000141
      f+3     :     0.000342
      f-3     :     0.000429
  1 C s       :     3.228527  s :     3.228527
      pz      :     1.038143  p :     2.708540
      px      :     0.904432
      py      :     0.765965
      dz2     :     0.006761  d :     0.110933
      dxz     :     0.024884
      dyz     :     0.029206
      dx2y2   :     0.028462
      dxy     :     0.021620
      f0      :     0.001439  f :     0.010671
      f+1     :     0.001402
      f-1     :     0.000547
      f+2     :     0.001317
      f-2     :     0.001350
      f+3     :     0.001798
      f-3     :     0.002818
  2 C s       :     3.256098  s :     3.256098
      pz      :     1.040432  p :     2.740554
      px      :     0.929060
      py      :     0.771062
      dz2     :     0.008775  d :     0.099871
      dxz     :     0.023198
      dyz     :     0.024803
      dx2y2   :     0.024056
      dxy     :     0.019040
      f0      :     0.001336  f :     0.009732
      f+1     :     0.001322
      f-1     :     0.000472
      f+2     :     0.001238
      f-2     :     0.001082
      f+3     :     0.001872
      f-3     :     0.002410
  3 H s       :     0.857065  s :     0.857065
      pz      :     0.011397  p :     0.022027
      px      :     0.006471
      py      :     0.004160
  4 H s       :     0.866828  s :     0.866828
      pz      :     0.010891  p :     0.020666
      px      :     0.006152
      py      :     0.003623
  5 H s       :     0.839402  s :     0.839402
      pz      :     0.012102  p :     0.023430
      px      :     0.006792
      py      :     0.004536
  6 H s       :     0.854033  s :     0.854033
      pz      :     0.010200  p :     0.017907
      px      :     0.004742
      py      :     0.002965


                     *******************************
                     * LOEWDIN POPULATION ANALYSIS *
                     *******************************

----------------------
LOEWDIN ATOMIC CHARGES
----------------------
   0 O :    0.026664
   1 C :   -0.284675
   2 C :   -0.224126
   3 H :    0.111886
   4 H :    0.121861
   5 H :    0.103945
   6 H :    0.144446

-------------------------------
LOEWDIN REDUCED ORBITAL CHARGES
-------------------------------
  0 O s       :     3.471925  s :     3.471925
      pz      :     1.781346  p :     4.425275
      px      :     1.338850
      py      :     1.305079
      dz2     :     0.010620  d :     0.071517
      dxz     :     0.005245
      dyz     :     0.010662
      dx2y2   :     0.024535
      dxy     :     0.020456
      f0      :     0.000402  f :     0.004619
      f+1     :     0.000177
      f-1     :     0.000784
      f+2     :     0.000149
      f-2     :     0.000603
      f+3     :     0.000913
      f-3     :     0.001590
  1 C s       :     2.835643  s :     2.835643
      pz      :     1.055362  p :     2.912121
      px      :     1.040750
      py      :     0.816009
      dz2     :     0.055626  d :     0.470367
      dxz     :     0.126548
      dyz     :     0.078281
      dx2y2   :     0.108987
      dxy     :     0.100925
      f0      :     0.009048  f :     0.066544
      f+1     :     0.005554
      f-1     :     0.005472
      f+2     :     0.008029
      f-2     :     0.005679
      f+3     :     0.014088
      f-3     :     0.018674
  2 C s       :     2.861281  s :     2.861281
      pz      :     1.052906  p :     2.903374
      px      :     1.055098
      py      :     0.795371
      dz2     :     0.053609  d :     0.403975
      dxz     :     0.114534
      dyz     :     0.061361
      dx2y2   :     0.091530
      dxy     :     0.082941
      f0      :     0.007911  f :     0.055496
      f+1     :     0.004824
      f-1     :     0.004543
      f+2     :     0.007139
      f-2     :     0.003709
      f+3     :     0.012140
      f-3     :     0.015230
  3 H s       :     0.822368  s :     0.822368
      pz      :     0.034913  p :     0.065746
      px      :     0.018088
      py      :     0.012745
  4 H s       :     0.819216  s :     0.819216
      pz      :     0.031840  p :     0.058923
      px      :     0.016461
      py      :     0.010621
  5 H s       :     0.823069  s :     0.823069
      pz      :     0.038486  p :     0.072987
      px      :     0.020227
      py      :     0.014273
  6 H s       :     0.807924  s :     0.807924
      pz      :     0.027796  p :     0.047630
      px      :     0.011968
      py      :     0.007866


                      *****************************
                      * MAYER POPULATION ANALYSIS *
                      *****************************

  NA   - Mulliken gross atomic population
  ZA   - Total nuclear charge
  QA   - Mulliken gross atomic charge
  VA   - Mayer's total valence
  BVA  - Mayer's bonded valence
  FA   - Mayer's free valence

  ATOM       NA         ZA         QA         VA         BVA        FA
  0 O      8.3337     8.0000    -0.3337     1.9682     1.9682     0.0000
  1 C      6.0587     6.0000    -0.0587     3.9934     3.9934    -0.0000
  2 C      6.1063     6.0000    -0.1063     3.9590     3.9590     0.0000
  3 H      0.8791     1.0000     0.1209     0.9580     0.9580    -0.0000
  4 H      0.8875     1.0000     0.1125     0.9597     0.9597     0.0000
  5 H      0.8628     1.0000     0.1372     0.9607     0.9607     0.0000
  6 H      0.8719     1.0000     0.1281     0.9634     0.9634     0.0000

  Mayer bond orders larger than 0.100000
B(  0-O ,  1-C ) :   0.9963 B(  0-O ,  2-C ) :   0.9614 B(  1-C ,  2-C ) :   1.0809 
B(  1-C ,  3-H ) :   0.9523 B(  1-C ,  4-H ) :   0.9498 B(  2-C ,  5-H ) :   0.9546 
B(  2-C ,  6-H ) :   0.9450 

-------
TIMINGS
-------

Total SCF time: 0 days 0 hours 0 min 2 sec 

Total time                  ....       2.564 sec
Sum of individual times     ....       2.377 sec  ( 92.7%)

Fock matrix formation       ....       2.108 sec  ( 82.2%)
  Split-RI-J                ....       0.233 sec  ( 11.1% of F)
  Chain of spheres X        ....       1.451 sec  ( 68.8% of F)
  XC integration            ....       0.401 sec  ( 19.0% of F)
    Basis function eval.    ....       0.107 sec  ( 26.7% of XC)
    Density eval.           ....       0.080 sec  ( 20.0% of XC)
    XC-Functional eval.     ....       0.023 sec  (  5.6% of XC)
    XC-Potential eval.      ....       0.141 sec  ( 35.1% of XC)
Diagonalization             ....       0.017 sec  (  0.6%)
Density matrix formation    ....       0.001 sec  (  0.1%)
Population analysis         ....       0.003 sec  (  0.1%)
Initial guess               ....       0.017 sec  (  0.7%)
Orbital Transformation      ....       0.000 sec  (  0.0%)
Orbital Orthonormalization  ....       0.000 sec  (  0.0%)
DIIS solution               ....       0.013 sec  (  0.5%)
SOSCF solution              ....       0.011 sec  (  0.4%)
Grid generation             ....       0.207 sec  (  8.1%)

Maximum memory used throughout the entire SCF-calculation: 61.0 MB


-------------------------------------------------------------------------------
                          DFT DISPERSION CORRECTION                            
                                                                               
                              DFTD3 V3.1  Rev 1                                
                          USING Becke-Johnson damping                          
-------------------------------------------------------------------------------
The PBE0 functional is recognized
Active option DFTDOPT                   ...         4   

molecular C6(AA) [au] = 351.528043 


            DFT-D V3
 parameters
 s6 scaling factor         :     1.0000 
 a1 scaling factor         :     0.4145 
 s8 scaling factor         :     1.2177 
 a2 scaling factor         :     4.8593 
 ad hoc parameters k1-k3   :    16.0000     1.3333    -4.0000 

 Edisp/kcal,au: -1.511072844924  -0.002408047601 
 E6   /kcal   :  -0.990487088 
 E8   /kcal   :  -0.520585757 
 % E8         :  34.451400455 

-------------------------   ----------------
Dispersion correction           -0.002408048
-------------------------   ----------------


-------------------------   --------------------
FINAL SINGLE POINT ENERGY      -153.658384983136
-------------------------   --------------------



           ************************************************************
           *        Program running with 8 parallel MPI-processes     *
           *              working on a common directory               *
           ************************************************************
------------------------------------------------------------------------------
                         ORCA SCF GRADIENT CALCULATION
------------------------------------------------------------------------------

 ... reading COSX grid (gridx3)
Gradient of the Kohn-Sham DFT energy:
Kohn-Sham wavefunction type      ... RKS
Hartree-Fock exchange scaling    ...    0.250
Number of operators              ...    1
Number of atoms                  ...    7
Basis set dimensions             ...  117
Integral neglect threshold       ... 2.5e-11
Integral primitive cutoff        ... 2.5e-12
SHARK Integral package           ... ON

Nuc. rep. gradient       (SHARK) ... done (  0.0 sec)
HCore & Overlap gradient (SHARK) ... done (  0.0 sec)
RI-J gradient            (SHARK) ... done (  0.1 sec)
COSX-gradient                    ... done (  0.3 sec)
Exchange-correlation gradient    ... done
Dispersion correction            ... done

------------------
CARTESIAN GRADIENT
------------------

   1   O   :   -0.009965469    0.065321861    0.004318180
   2   C   :   -0.023649888   -0.029294266    0.030397439
   3   C   :    0.030666244   -0.041970026   -0.096164803
   4   H   :    0.008462803    0.006996042   -0.012653586
   5   H   :   -0.000985462   -0.001383877   -0.012003898
   6   H   :   -0.022467241    0.008281200    0.034249983
   7   H   :    0.017981478   -0.008084629    0.051914461

Difference to translation invariance:
           :    0.0000424643   -0.0001336947    0.0000577757

Difference to rotation invariance:
           :    0.0000468347    0.0000474277   -0.0001609354

Norm of the cartesian gradient     ...    0.1547056188
RMS gradient                       ...    0.0337595338
MAX gradient                       ...    0.0961648035

-------
TIMINGS
-------

Total SCF gradient time            ...        0.708 sec

One electron gradient       ....       0.010 sec  (  1.4%)
RI-J Coulomb gradient       ....       0.077 sec  ( 10.9%)
COSX gradient               ....       0.320 sec  ( 45.2%)
XC gradient                 ....       0.158 sec  ( 22.3%)

Maximum memory used throughout the entire SCFGRAD-calculation: 35.9 MB

                            ***************************************
                            *     ORCA property calculations      *
                            ***************************************

                                    ---------------------
                                    Active property flags
                                    ---------------------
   (+) Dipole Moment


------------------------------------------------------------------------------
                       ORCA ELECTRIC PROPERTIES CALCULATION
------------------------------------------------------------------------------

Dipole Moment Calculation                       ... on
Quadrupole Moment Calculation                   ... off
Polarizability Calculation                      ... off
GBWName                                         ... ox_gs_A_orca0034.gbw
Electron density                                ... ox_gs_A_orca0034.scfp
The origin for moment calculation is the CENTER OF MASS  = ( 0.011357, -0.067580 -0.033734)

-------------
DIPOLE MOMENT
-------------
                                X             Y             Z
Electronic contribution:      0.00580       1.52764      -0.07009
Nuclear contribution   :     -0.00430      -2.40729       0.03577
                        -----------------------------------------
Total Dipole Moment    :      0.00150      -0.87966      -0.03432
                        -----------------------------------------
Magnitude (a.u.)       :      0.88033
Magnitude (Debye)      :      2.23761



--------------------
Rotational spectrum 
--------------------
 
Rotational constants in cm-1:     0.778890     0.716421     0.445256 
Rotational constants in MHz : 23350.541004 21477.775445 13348.440872 

 Dipole components along the rotational axes: 
x,y,z [a.u.] :    -0.522617    -0.708322    -0.011278 
x,y,z [Debye]:    -1.328386    -1.800411    -0.028666 

 

Timings for individual modules:

Sum of individual times         ...        4.014 sec (=   0.067 min)
GTO integral calculation        ...        0.298 sec (=   0.005 min)   7.4 %
SCF iterations                  ...        2.766 sec (=   0.046 min)  68.9 %
SCF Gradient evaluation         ...        0.950 sec (=   0.016 min)  23.7 %
                             ****ORCA TERMINATED NORMALLY****
TOTAL RUN TIME: 0 days 0 hours 0 minutes 4 seconds 297 msec
