
                                 *****************
                                 * O   R   C   A *
                                 *****************

                                            #,                                       
                                            ###                                      
                                            ####                                     
                                            #####                                    
                                            ######                                   
                                           ########,                                 
                                     ,,################,,,,,                         
                               ,,#################################,,                 
                          ,,##########################################,,             
                       ,#########################################, ''#####,          
                    ,#############################################,,   '####,        
                  ,##################################################,,,,####,       
                ,###########''''           ''''###############################       
              ,#####''   ,,,,##########,,,,          '''####'''          '####       
            ,##' ,,,,###########################,,,                        '##       
           ' ,,###''''                  '''############,,,                           
         ,,##''                                '''############,,,,        ,,,,,,###''
      ,#''                                            '''#######################'''  
     '                                                          ''''####''''         
             ,#######,   #######,   ,#######,      ##                                
            ,#'     '#,  ##    ##  ,#'     '#,    #''#        ######   ,####,        
            ##       ##  ##   ,#'  ##            #'  '#       #        #'  '#        
            ##       ##  #######   ##           ,######,      #####,   #    #        
            '#,     ,#'  ##    ##  '#,     ,#' ,#      #,         ##   #,  ,#        
             '#######'   ##     ##  '#######'  #'      '#     #####' # '####'        



                  #######################################################
                  #                        -***-                        #
                  #          Department of theory and spectroscopy      #
                  #    Directorship and core code : Frank Neese         #
                  #        Max Planck Institute fuer Kohlenforschung    #
                  #                Kaiser Wilhelm Platz 1               #
                  #                 D-45470 Muelheim/Ruhr               #
                  #                      Germany                        #
                  #                                                     #
                  #                  All rights reserved                #
                  #                        -***-                        #
                  #######################################################


                         Program Version 5.0.2 -  RELEASE  -


 With contributions from (in alphabetic order):
   Daniel Aravena         : Magnetic Suceptibility
   Michael Atanasov       : Ab Initio Ligand Field Theory (pilot matlab implementation)
   Alexander A. Auer      : GIAO ZORA, VPT2 properties, NMR spectrum
   Ute Becker             : Parallelization
   Giovanni Bistoni       : ED, misc. LED, open-shell LED, HFLD
   Martin Brehm           : Molecular dynamics
   Dmytro Bykov           : SCF Hessian
   Vijay G. Chilkuri      : MRCI spin determinant printing, contributions to CSF-ICE
   Dipayan Datta          : RHF DLPNO-CCSD density
   Achintya Kumar Dutta   : EOM-CC, STEOM-CC
   Dmitry Ganyushin       : Spin-Orbit,Spin-Spin,Magnetic field MRCI
   Miquel Garcia          : C-PCM and meta-GGA Hessian, CC/C-PCM, Gaussian charge scheme
   Yang Guo               : DLPNO-NEVPT2, F12-NEVPT2, CIM, IAO-localization
   Andreas Hansen         : Spin unrestricted coupled pair/coupled cluster methods
   Benjamin Helmich-Paris : MC-RPA, TRAH-SCF, COSX integrals
   Lee Huntington         : MR-EOM, pCC
   Robert Izsak           : Overlap fitted RIJCOSX, COSX-SCS-MP3, EOM
   Marcus Kettner         : VPT2
   Christian Kollmar      : KDIIS, OOCD, Brueckner-CCSD(T), CCSD density, CASPT2, CASPT2-K
   Simone Kossmann        : Meta GGA functionals, TD-DFT gradient, OOMP2, MP2 Hessian
   Martin Krupicka        : Initial AUTO-CI
   Lucas Lang             : DCDCAS
   Marvin Lechner         : AUTO-CI (C++ implementation), FIC-MRCC
   Dagmar Lenk            : GEPOL surface, SMD
   Dimitrios Liakos       : Extrapolation schemes; Compound Job, initial MDCI parallelization
   Dimitrios Manganas     : Further ROCIS development; embedding schemes
   Dimitrios Pantazis     : SARC Basis sets
   Anastasios Papadopoulos: AUTO-CI, single reference methods and gradients
   Taras Petrenko         : DFT Hessian,TD-DFT gradient, ASA, ECA, R-Raman, ABS, FL, XAS/XES, NRVS
   Peter Pinski           : DLPNO-MP2, DLPNO-MP2 Gradient
   Christoph Reimann      : Effective Core Potentials
   Marius Retegan         : Local ZFS, SOC
   Christoph Riplinger    : Optimizer, TS searches, QM/MM, DLPNO-CCSD(T), (RO)-DLPNO pert. Triples
   Tobias Risthaus        : Range-separated hybrids, TD-DFT gradient, RPA, STAB
   Michael Roemelt        : Original ROCIS implementation
   Masaaki Saitow         : Open-shell DLPNO-CCSD energy and density
   Barbara Sandhoefer     : DKH picture change effects
   Avijit Sen             : IP-ROCIS
   Kantharuban Sivalingam : CASSCF convergence, NEVPT2, FIC-MRCI
   Bernardo de Souza      : ESD, SOC TD-DFT
   Georgi Stoychev        : AutoAux, RI-MP2 NMR, DLPNO-MP2 response
   Willem Van den Heuvel  : Paramagnetic NMR
   Boris Wezisla          : Elementary symmetry handling
   Frank Wennmohs         : Technical directorship


 We gratefully acknowledge several colleagues who have allowed us to
 interface, adapt or use parts of their codes:
   Stefan Grimme, W. Hujo, H. Kruse, P. Pracht,  : VdW corrections, initial TS optimization,
                  C. Bannwarth, S. Ehlert          DFT functionals, gCP, sTDA/sTD-DF
   Ed Valeev, F. Pavosevic, A. Kumar             : LibInt (2-el integral package), F12 methods
   Garnet Chan, S. Sharma, J. Yang, R. Olivares  : DMRG
   Ulf Ekstrom                                   : XCFun DFT Library
   Mihaly Kallay                                 : mrcc  (arbitrary order and MRCC methods)
   Jiri Pittner, Ondrej Demel                    : Mk-CCSD
   Frank Weinhold                                : gennbo (NPA and NBO analysis)
   Christopher J. Cramer and Donald G. Truhlar   : smd solvation model
   Lars Goerigk                                  : TD-DFT with DH, B97 family of functionals
   V. Asgeirsson, H. Jonsson                     : NEB implementation
   FAccTs GmbH                                   : IRC, NEB, NEB-TS, DLPNO-Multilevel, CI-OPT
                                                   MM, QMMM, 2- and 3-layer-ONIOM, Crystal-QMMM,
                                                   LR-CPCM, SF, NACMEs, symmetry and pop. for TD-DFT,
                                                   nearIR, NL-DFT gradient (VV10), updates on ESD,
                                                   ML-optimized integration grids
   S Lehtola, MJT Oliveira, MAL Marques          : LibXC Library
   Liviu Ungur et al                             : ANISO software


 Your calculation uses the libint2 library for the computation of 2-el integrals
 For citations please refer to: http://libint.valeyev.net

 Your ORCA version has been built with support for libXC version: 5.1.0
 For citations please refer to: https://tddft.org/programs/libxc/

 This ORCA versions uses:
   CBLAS   interface :  Fast vector & matrix operations
   LAPACKE interface :  Fast linear algebra routines
   SCALAPACK package :  Parallel linear algebra routines
   Shared memory     :  Shared parallel matrices
   BLAS/LAPACK       :  OpenBLAS 0.3.15  USE64BITINT DYNAMIC_ARCH NO_AFFINITY SkylakeX SINGLE_THREADED
        Core in use  :  SkylakeX
   Copyright (c) 2011-2014, The OpenBLAS Project


Your calculation utilizes the atom-pairwise dispersion correction
with the Becke-Johnson damping scheme (D3BJ)
Cite in your paper:
S.Grimme, S.Ehrlich, L.Goerigk, J Comput Chem, (2011), 32, 1456–1465 
S.Grimme, J.Antony, S.Ehrlich and H.Krieg, J.Chem.Phys., 132, (2010), 154104 
   

================================================================================

----- Orbital basis set information -----
Your calculation utilizes the basis: def2-TZVP
   F. Weigend and R. Ahlrichs, Phys. Chem. Chem. Phys. 7, 3297 (2005).

----- AuxJ basis set information -----
Your calculation utilizes the auxiliary basis: def2/J
   F. Weigend, Phys. Chem. Chem. Phys. 8, 1057 (2006).

================================================================================
                                        WARNINGS
                       Please study these warnings very carefully!
================================================================================


INFO   : the flag for use of the SHARK integral package has been found!

================================================================================
                                       INPUT FILE
================================================================================
NAME = ox_gs_A_orca0024.inp
|  1> ! engrad PBE0 D3BJ def2-TZVP  
|  2> %pal nprocs 8 end
|  3> %maxcore 3000
|  4>  
|  5> *xyz 0 1 
|  6> O   -0.032532078456091344 0.7425680408117652 -0.02961958621194346
|  7> C   -0.7720891284839908 -0.4445944086027586 -0.04154750582055189
|  8> C   0.7424123812889919 -0.4495323954724568 -0.011947402343320488
|  9> H   -1.3092011131020798 -0.6971093765284166 0.9577457812912878
| 10> H   -1.238776910618781 -0.7171486722399276 -0.9150096047285388
| 11> H   1.3013921761685894 -0.7517411240560686 -0.8928082103810032
| 12> H   1.2306916820527076 -0.6397408765703421 0.8818132121728741
| 13> *
| 14> 
| 15>                          ****END OF INPUT****
================================================================================

                     *******************************
                     * Energy+Gradient Calculation *
                     *******************************

---------------------------------
CARTESIAN COORDINATES (ANGSTROEM)
---------------------------------
  O     -0.032532    0.742568   -0.029620
  C     -0.772089   -0.444594   -0.041548
  C      0.742412   -0.449532   -0.011947
  H     -1.309201   -0.697109    0.957746
  H     -1.238777   -0.717149   -0.915010
  H      1.301392   -0.751741   -0.892808
  H      1.230692   -0.639741    0.881813

----------------------------
CARTESIAN COORDINATES (A.U.)
----------------------------
  NO LB      ZA    FRAG     MASS         X           Y           Z
   0 O     8.0000    0    15.999   -0.061477    1.403250   -0.055973
   1 C     6.0000    0    12.011   -1.459037   -0.840162   -0.078513
   2 C     6.0000    0    12.011    1.402956   -0.849493   -0.022577
   3 H     1.0000    0     1.008   -2.474032   -1.317346    1.809877
   4 H     1.0000    0     1.008   -2.340949   -1.355215   -1.729118
   5 H     1.0000    0     1.008    2.459275   -1.420585   -1.687163
   6 H     1.0000    0     1.008    2.325670   -1.208935    1.666385

--------------------------------
INTERNAL COORDINATES (ANGSTROEM)
--------------------------------
 O      0   0   0     0.000000000000     0.00000000     0.00000000
 C      1   0   0     1.398728560805     0.00000000     0.00000000
 C      1   2   0     1.421954525279    64.95762347     0.00000000
 H      2   1   3     1.162256497815   114.92376976   106.79488443
 H      2   1   3     1.027141349012   118.20982623   252.82043399
 H      3   1   2     1.086141928964   120.24243347   108.02846126
 H      3   1   2     1.036052111574   114.92803201   250.13875480

---------------------------
INTERNAL COORDINATES (A.U.)
---------------------------
 O      0   0   0     0.000000000000     0.00000000     0.00000000
 C      1   0   0     2.643213915616     0.00000000     0.00000000
 C      1   2   0     2.687104627667    64.95762347     0.00000000
 H      2   1   3     2.196346478241   114.92376976   106.79488443
 H      2   1   3     1.941015850458   118.20982623   252.82043399
 H      3   1   2     2.052510788310   120.24243347   108.02846126
 H      3   1   2     1.957854751345   114.92803201   250.13875480

---------------------
BASIS SET INFORMATION
---------------------
There are 3 groups of distinct atoms

 Group   1 Type O   : 11s6p2d1f contracted to 5s3p2d1f pattern {62111/411/11/1}
 Group   2 Type C   : 11s6p2d1f contracted to 5s3p2d1f pattern {62111/411/11/1}
 Group   3 Type H   : 5s1p contracted to 3s1p pattern {311/1}

Atom   0O    basis set group =>   1
Atom   1C    basis set group =>   2
Atom   2C    basis set group =>   2
Atom   3H    basis set group =>   3
Atom   4H    basis set group =>   3
Atom   5H    basis set group =>   3
Atom   6H    basis set group =>   3
---------------------------------
AUXILIARY/J BASIS SET INFORMATION
---------------------------------
There are 3 groups of distinct atoms

 Group   1 Type O   : 12s5p4d2f1g contracted to 6s4p3d1f1g pattern {711111/2111/211/2/1}
 Group   2 Type C   : 12s5p4d2f1g contracted to 6s4p3d1f1g pattern {711111/2111/211/2/1}
 Group   3 Type H   : 5s2p1d contracted to 3s1p1d pattern {311/2/1}

Atom   0O    basis set group =>   1
Atom   1C    basis set group =>   2
Atom   2C    basis set group =>   2
Atom   3H    basis set group =>   3
Atom   4H    basis set group =>   3
Atom   5H    basis set group =>   3
Atom   6H    basis set group =>   3


           ************************************************************
           *        Program running with 8 parallel MPI-processes     *
           *              working on a common directory               *
           ************************************************************
------------------------------------------------------------------------------
                           ORCA GTO INTEGRAL CALCULATION
                           -- RI-GTO INTEGRALS CHOSEN --
------------------------------------------------------------------------------
------------------------------------------------------------------------------
                   ___                                                        
                  /   \      - P O W E R E D   B Y -                         
                 /     \                                                     
                 |  |  |   _    _      __       _____    __    __             
                 |  |  |  | |  | |    /  \     |  _  \  |  |  /  |          
                  \  \/   | |  | |   /    \    | | | |  |  | /  /          
                 / \  \   | |__| |  /  /\  \   | |_| |  |  |/  /          
                |  |  |   |  __  | /  /__\  \  |    /   |      \           
                |  |  |   | |  | | |   __   |  |    \   |  |\   \          
                \     /   | |  | | |  |  |  |  | |\  \  |  | \   \       
                 \___/    |_|  |_| |__|  |__|  |_| \__\ |__|  \__/        
                                                                              
                      - O R C A' S   B I G   F R I E N D -                    
                                      &                                       
                       - I N T E G R A L  F E E D E R -                       
                                                                              
 v1 FN, 2020, v2 2021                                                         
------------------------------------------------------------------------------


Reading SHARK input file ox_gs_A_orca0024.SHARKINP.tmp ... ok
----------------------
SHARK INTEGRAL PACKAGE
----------------------

Number of atoms                             ...      7
Number of basis functions                   ...    117
Number of shells                            ...     49
Maximum angular momentum                    ...      3
Integral batch strategy                     ... SHARK/LIBINT Hybrid
RI-J (if used) integral strategy            ... SPLIT-RIJ (Revised 2003 algorithm where possible)
Printlevel                                  ...      1
Contraction scheme used                     ... SEGMENTED contraction
Coulomb Range Separation                    ... NOT USED
Exchange Range Separation                   ... NOT USED
Finite Nucleus Model                        ... NOT USED
Auxiliary Coulomb fitting basis             ... AVAILABLE
   # of basis functions in Aux-J            ...    191
   # of shells in Aux-J                     ...     65
   Maximum angular momentum in Aux-J        ...      4
Auxiliary J/K fitting basis                 ... NOT available
Auxiliary Correlation fitting basis         ... NOT available
Auxiliary 'external' fitting basis          ... NOT available
Integral threshold                          ...     2.500000e-11
Primitive cut-off                           ...     2.500000e-12
Primitive pair pre-selection threshold      ...     2.500000e-12

Calculating pre-screening integrals         ... done (  0.0 sec) Dimension = 49
Organizing shell pair data                  ... done (  0.0 sec)
Shell pair information
Total number of shell pairs                 ...      1225
Shell pairs after pre-screening             ...      1220
Total number of primitive shell pairs       ...      3648
Primitive shell pairs kept                  ...      3151
          la=0 lb=0:    373 shell pairs
          la=1 lb=0:    351 shell pairs
          la=1 lb=1:     91 shell pairs
          la=2 lb=0:    162 shell pairs
          la=2 lb=1:     78 shell pairs
          la=2 lb=2:     21 shell pairs
          la=3 lb=0:     81 shell pairs
          la=3 lb=1:     39 shell pairs
          la=3 lb=2:     18 shell pairs
          la=3 lb=3:      6 shell pairs

Calculating one electron integrals          ... done (  0.0 sec)
Calculating RI/J V-Matrix + Cholesky decomp.... done (  0.0 sec)
Calculating Nuclear repulsion               ... done (  0.0 sec) ENN=     75.376642753090 Eh

SHARK setup successfully completed in   0.1 seconds

Maximum memory used throughout the entire GTOINT-calculation: 14.9 MB


           ************************************************************
           *        Program running with 8 parallel MPI-processes     *
           *              working on a common directory               *
           ************************************************************
-------------------------------------------------------------------------------
                                 ORCA SCF
-------------------------------------------------------------------------------

------------
SCF SETTINGS
------------
Hamiltonian:
 Density Functional     Method          .... DFT(GTOs)
 Exchange Functional    Exchange        .... PBE
   PBE kappa parameter   XKappa         ....  0.804000
   PBE mue parameter    XMuePBE         ....  0.219520
 Correlation Functional Correlation     .... PBE
   PBE beta parameter  CBetaPBE         ....  0.066725
 LDA part of GGA corr.  LDAOpt          .... PW91-LDA
 Gradients option       PostSCFGGA      .... off
 Hybrid DFT is turned on
   Fraction HF Exchange ScalHFX         ....  0.250000
   Scaling of DF-GGA-X  ScalDFX         ....  0.750000
   Scaling of DF-GGA-C  ScalDFC         ....  1.000000
   Scaling of DF-LDA-C  ScalLDAC        ....  1.000000
   Perturbative correction              ....  0.000000
   Density functional embedding theory  .... OFF
   NL short-range parameter             ....  6.900000
 RI-approximation to the Coulomb term is turned on
   Number of AuxJ basis functions       .... 191
   RIJ-COSX (HFX calculated with COS-X)).... on


General Settings:
 Integral files         IntName         .... ox_gs_A_orca0024
 Hartree-Fock type      HFTyp           .... RHF
 Total Charge           Charge          ....    0
 Multiplicity           Mult            ....    1
 Number of Electrons    NEL             ....   24
 Basis Dimension        Dim             ....  117
 Nuclear Repulsion      ENuc            ....     75.3766427531 Eh

Convergence Acceleration:
 DIIS                   CNVDIIS         .... on
   Start iteration      DIISMaxIt       ....    12
   Startup error        DIISStart       ....  0.200000
   # of expansion vecs  DIISMaxEq       ....     5
   Bias factor          DIISBfac        ....   1.050
   Max. coefficient     DIISMaxC        ....  10.000
 Trust-Rad. Augm. Hess. CNVTRAH         .... auto
   Auto Start mean grad. ratio tolernc. ....  1.125000
   Auto Start start iteration           ....    20
   Auto Start num. interpolation iter.  ....    10
   Max. Number of Micro iterations      ....    16
   Max. Number of Macro iterations      .... Maxiter - #DIIS iter
   Number of Davidson start vectors     ....     2
   Converg. threshold I  (grad. norm)   ....   1.000e-05
   Converg. threshold II (energy diff.) ....   1.000e-08
   Grad. Scal. Fac. for Micro threshold ....   0.100
   Minimum threshold for Micro iter.    ....   0.010
   NR start threshold (gradient norm)   ....   0.001
   Initial trust radius                 ....   0.400
   Minimum AH scaling param. (alpha)    ....   1.000
   Maximum AH scaling param. (alpha)    .... 1000.000
   Orbital update algorithm             .... Taylor
   White noise on init. David. guess    .... on
   Maximum white noise                  ....   0.010
   Quad. conv. algorithm                .... NR
 SOSCF                  CNVSOSCF        .... on
   Start iteration      SOSCFMaxIt      ....   150
   Startup grad/error   SOSCFStart      ....  0.003300
 Level Shifting         CNVShift        .... on
   Level shift para.    LevelShift      ....    0.2500
   Turn off err/grad.   ShiftErr        ....    0.0010
 Zerner damping         CNVZerner       .... off
 Static damping         CNVDamp         .... on
   Fraction old density DampFac         ....    0.7000
   Max. Damping (<1)    DampMax         ....    0.9800
   Min. Damping (>=0)   DampMin         ....    0.0000
   Turn off err/grad.   DampErr         ....    0.1000
 Fernandez-Rico         CNVRico         .... off

SCF Procedure:
 Maximum # iterations   MaxIter         ....   125
 SCF integral mode      SCFMode         .... Direct
   Integral package                     .... SHARK and LIBINT hybrid scheme
 Reset frequency        DirectResetFreq ....    20
 Integral Threshold     Thresh          ....  2.500e-11 Eh
 Primitive CutOff       TCut            ....  2.500e-12 Eh

Convergence Tolerance:
 Convergence Check Mode ConvCheckMode   .... Total+1el-Energy
 Convergence forced     ConvForced      .... 0
 Energy Change          TolE            ....  1.000e-08 Eh
 1-El. energy change                    ....  1.000e-05 Eh
 Orbital Gradient       TolG            ....  1.000e-05
 Orbital Rotation angle TolX            ....  1.000e-05
 DIIS Error             TolErr          ....  5.000e-07


Diagonalization of the overlap matrix:
Smallest eigenvalue                        ... 5.128e-04
Time for diagonalization                   ...    0.001 sec
Threshold for overlap eigenvalues          ... 1.000e-08
Number of eigenvalues below threshold      ... 0
Time for construction of square roots      ...    0.001 sec
Total time needed                          ...    0.003 sec

Time for model grid setup =    0.022 sec

------------------------------
INITIAL GUESS: MODEL POTENTIAL
------------------------------
Loading Hartree-Fock densities                     ... done
Calculating cut-offs                               ... done
Initializing the effective Hamiltonian             ... done
Setting up the integral package (SHARK)            ... done
Starting the Coulomb interaction                   ... done (   0.0 sec)
Reading the grid                                   ... done
Mapping shells                                     ... done
Starting the XC term evaluation                    ... done (   0.0 sec)
  promolecular density results
     # of electrons  =     23.996928140
     EX              =    -19.547137522
     EC              =     -0.782450540
     EX+EC           =    -20.329588062
Transforming the Hamiltonian                       ... done (   0.0 sec)
Diagonalizing the Hamiltonian                      ... done (   0.0 sec)
Back transforming the eigenvectors                 ... done (   0.0 sec)
Now organizing SCF variables                       ... done
                      ------------------
                      INITIAL GUESS DONE (   0.0 sec)
                      ------------------
-------------------
DFT GRID GENERATION
-------------------

General Integration Accuracy     IntAcc      ... 4.388
Radial Grid Type                 RadialGrid  ... OptM3 with GC (2021)
Angular Grid (max. ang.)         AngularGrid ... 4 (Lebedev-302)
Angular grid pruning method      GridPruning ... 4 (adaptive)
Weight generation scheme         WeightScheme... Becke
Basis function cutoff            BFCut       ... 1.0000e-11
Integration weight cutoff        WCut        ... 1.0000e-14
Angular grids for H and He will be reduced by one unit
Partially contracted basis set               ... off
Rotationally invariant grid construction     ... off

Total number of grid points                  ...    31316
Total number of batches                      ...      493
Average number of points per batch           ...       63
Average number of grid points per atom       ...     4474
Time for grid setup =    0.110 sec

--------------------
COSX GRID GENERATION
--------------------

GRIDX 1
-------
General Integration Accuracy     IntAcc      ... 3.816
Radial Grid Type                 RadialGrid  ... OptM3 with GC (2021)
Angular Grid (max. ang.)         AngularGrid ... 1 (Lebedev-50)
Angular grid pruning method      GridPruning ... 4 (adaptive)
Weight generation scheme         WeightScheme... Becke
Basis function cutoff            BFCut       ... 1.0000e-11
Integration weight cutoff        WCut        ... 1.0000e-14
Angular grids for H and He will be reduced by one unit
Partially contracted basis set               ... on
Rotationally invariant grid construction     ... off

Total number of grid points                  ...     4034
Total number of batches                      ...       67
Average number of points per batch           ...       60
Average number of grid points per atom       ...      576
UseSFitting                                  ... on

GRIDX 2
-------
General Integration Accuracy     IntAcc      ... 4.020
Radial Grid Type                 RadialGrid  ... OptM3 with GC (2021)
Angular Grid (max. ang.)         AngularGrid ... 2 (Lebedev-110)
Angular grid pruning method      GridPruning ... 4 (adaptive)
Weight generation scheme         WeightScheme... Becke
Basis function cutoff            BFCut       ... 1.0000e-11
Integration weight cutoff        WCut        ... 1.0000e-14
Angular grids for H and He will be reduced by one unit
Partially contracted basis set               ... on
Rotationally invariant grid construction     ... off

Total number of grid points                  ...     8709
Total number of batches                      ...      140
Average number of points per batch           ...       62
Average number of grid points per atom       ...     1244
UseSFitting                                  ... on

GRIDX 3
-------
General Integration Accuracy     IntAcc      ... 4.338
Radial Grid Type                 RadialGrid  ... OptM3 with GC (2021)
Angular Grid (max. ang.)         AngularGrid ... 3 (Lebedev-194)
Angular grid pruning method      GridPruning ... 4 (adaptive)
Weight generation scheme         WeightScheme... Becke
Basis function cutoff            BFCut       ... 1.0000e-11
Integration weight cutoff        WCut        ... 1.0000e-14
Angular grids for H and He will be reduced by one unit
Partially contracted basis set               ... on
Rotationally invariant grid construction     ... off

Total number of grid points                  ...    19258
Total number of batches                      ...      304
Average number of points per batch           ...       63
Average number of grid points per atom       ...     2751
UseSFitting                                  ... on

Time for X-Grid setup             =    0.072 sec

--------------
SCF ITERATIONS
--------------
ITER       Energy         Delta-E        Max-DP      RMS-DP      [F,P]     Damp
               ***  Starting incremental Fock matrix formation  ***
  0   -153.6026271600   0.000000000000 0.03242678  0.00110640  0.1696877 0.7000
  1   -153.6301496898  -0.027522529795 0.01786524  0.00081980  0.0728216 0.7000
                               ***Turning on DIIS***
  2   -153.6417145495  -0.011564859689 0.02541921  0.00141259  0.0321560 0.0000
  3   -153.6603537042  -0.018639154742 0.01368464  0.00061090  0.0388984 0.0000
  4   -153.6639030287  -0.003549324533 0.00346654  0.00016516  0.0071520 0.0000
  5   -153.6640623235  -0.000159294733 0.00132889  0.00005785  0.0036097 0.0000
                      *** Initiating the SOSCF procedure ***
                           *** Shutting down DIIS ***
                      *** Re-Reading the Fockian *** 
                      *** Removing any level shift *** 
ITER      Energy       Delta-E        Grad      Rot      Max-DP    RMS-DP
  6   -153.66408296  -0.0000206390  0.000105  0.000105  0.000789  0.000027
               *** Restarting incremental Fock matrix formation ***
  7   -153.66406855   0.0000144140  0.000041  0.000049  0.000088  0.000004
  8   -153.66406854   0.0000000132  0.000066  0.000032  0.000055  0.000002
  9   -153.66406857  -0.0000000386  0.000006  0.000011  0.000013  0.000001
 10   -153.66406857   0.0000000004  0.000008  0.000006  0.000008  0.000000
                 **** Energy Check signals convergence ****
              ***Rediagonalizing the Fockian in SOSCF/NRSCF***

               *****************************************************
               *                     SUCCESS                       *
               *           SCF CONVERGED AFTER  11 CYCLES          *
               *****************************************************

Old exchange energy                            =     -4.999288673 Eh
New exchange energy                            =     -4.999286046 Eh
Exchange energy change after final integration =      0.000002627 Eh
Total energy after final integration           =   -153.664065949 Eh
Final COS-X integration done in                =     0.252 sec

----------------
TOTAL SCF ENERGY
----------------

Total Energy       :         -153.66406595 Eh           -4181.41181 eV

Components:
Nuclear Repulsion  :           75.37664275 Eh            2051.10273 eV
Electronic Energy  :         -229.04070870 Eh           -6232.51454 eV
One Electron Energy:         -357.37765860 Eh           -9724.74049 eV
Two Electron Energy:          128.33694990 Eh            3492.22595 eV
Max COSX asymmetry :            0.00000354 Eh               0.00010 eV

Virial components:
Potential Energy   :         -306.65900618 Eh           -8344.61579 eV
Kinetic Energy     :          152.99494023 Eh            4163.20398 eV
Virial Ratio       :            2.00437352


DFT components:
N(Alpha)           :       12.000002749073 electrons
N(Beta)            :       12.000002749073 electrons
N(Total)           :       24.000005498145 electrons
E(X)               :      -14.966777092318 Eh       
E(C)               :       -0.790762121091 Eh       
E(XC)              :      -15.757539213410 Eh       
DFET-embed. en.    :        0.000000000000 Eh       

---------------
SCF CONVERGENCE
---------------

  Last Energy change         ...   -1.9139e-09  Tolerance :   1.0000e-08
  Last MAX-Density change    ...    3.6776e-16  Tolerance :   1.0000e-07
  Last RMS-Density change    ...    1.7826e-17  Tolerance :   5.0000e-09
  Last Orbital Gradient      ...    1.6178e-07  Tolerance :   1.0000e-05
  Last Orbital Rotation      ...    2.0512e-07  Tolerance :   1.0000e-05

             **** THE GBW FILE WAS UPDATED (ox_gs_A_orca0024.gbw) ****
             **** DENSITY ox_gs_A_orca0024.scfp WAS UPDATED ****
             **** ENERGY FILE WAS UPDATED (ox_gs_A_orca0024.en.tmp) ****
             **** THE GBW FILE WAS UPDATED (ox_gs_A_orca0024.gbw) ****
             **** DENSITY ox_gs_A_orca0024.scfp WAS UPDATED ****
----------------
ORBITAL ENERGIES
----------------

  NO   OCC          E(Eh)            E(eV) 
   0   2.0000     -19.227360      -523.2031 
   1   2.0000     -10.278442      -279.6906 
   2   2.0000     -10.271691      -279.5069 
   3   2.0000      -1.114413       -30.3247 
   4   2.0000      -0.695575       -18.9276 
   5   2.0000      -0.663044       -18.0423 
   6   2.0000      -0.531195       -14.4546 
   7   2.0000      -0.501446       -13.6450 
   8   2.0000      -0.432025       -11.7560 
   9   2.0000      -0.401455       -10.9242 
  10   2.0000      -0.316821        -8.6211 
  11   2.0000      -0.293705        -7.9921 
  12   0.0000       0.063459         1.7268 
  13   0.0000       0.076253         2.0749 
  14   0.0000       0.084205         2.2913 
  15   0.0000       0.101516         2.7624 
  16   0.0000       0.111431         3.0322 
  17   0.0000       0.154953         4.2165 
  18   0.0000       0.192825         5.2470 
  19   0.0000       0.212444         5.7809 
  20   0.0000       0.267915         7.2904 
  21   0.0000       0.273003         7.4288 
  22   0.0000       0.296054         8.0561 
  23   0.0000       0.341387         9.2896 
  24   0.0000       0.379356        10.3228 
  25   0.0000       0.389917        10.6102 
  26   0.0000       0.403777        10.9873 
  27   0.0000       0.422061        11.4849 
  28   0.0000       0.446664        12.1543 
  29   0.0000       0.459797        12.5117 
  30   0.0000       0.499174        13.5832 
  31   0.0000       0.528788        14.3890 
  32   0.0000       0.533093        14.5062 
  33   0.0000       0.702435        19.1142 
  34   0.0000       0.709393        19.3036 
  35   0.0000       0.721799        19.6412 
  36   0.0000       0.827659        22.5217 
  37   0.0000       0.880726        23.9658 
  38   0.0000       0.907372        24.6909 
  39   0.0000       0.932456        25.3734 
  40   0.0000       1.016552        27.6618 
  41   0.0000       1.023648        27.8549 
  42   0.0000       1.057574        28.7781 
  43   0.0000       1.080596        29.4045 
  44   0.0000       1.146534        31.1988 
  45   0.0000       1.358008        36.9533 
  46   0.0000       1.448688        39.4208 
  47   0.0000       1.491088        40.5746 
  48   0.0000       1.508516        41.0488 
  49   0.0000       1.517217        41.2856 
  50   0.0000       1.583307        43.0840 
  51   0.0000       1.622340        44.1461 
  52   0.0000       1.664485        45.2929 
  53   0.0000       1.721190        46.8360 
  54   0.0000       1.793221        48.7960 
  55   0.0000       1.803776        49.0832 
  56   0.0000       1.840365        50.0789 
  57   0.0000       1.912366        52.0381 
  58   0.0000       1.936460        52.6938 
  59   0.0000       1.950501        53.0758 
  60   0.0000       2.120823        57.7105 
  61   0.0000       2.164291        58.8934 
  62   0.0000       2.199484        59.8510 
  63   0.0000       2.235014        60.8178 
  64   0.0000       2.265077        61.6359 
  65   0.0000       2.447617        66.6030 
  66   0.0000       2.451500        66.7087 
  67   0.0000       2.507386        68.2294 
  68   0.0000       2.538686        69.0811 
  69   0.0000       2.567832        69.8742 
  70   0.0000       2.632493        71.6338 
  71   0.0000       2.655152        72.2504 
  72   0.0000       2.680251        72.9333 
  73   0.0000       2.724922        74.1489 
  74   0.0000       2.758260        75.0561 
  75   0.0000       2.809031        76.4376 
  76   0.0000       2.870288        78.1045 
  77   0.0000       2.943739        80.1032 
  78   0.0000       2.993769        81.4646 
  79   0.0000       3.022786        82.2542 
  80   0.0000       3.065964        83.4291 
  81   0.0000       3.091540        84.1251 
  82   0.0000       3.144285        85.5603 
  83   0.0000       3.224703        87.7486 
  84   0.0000       3.298447        89.7553 
  85   0.0000       3.333374        90.7057 
  86   0.0000       3.373700        91.8030 
  87   0.0000       3.428289        93.2885 
  88   0.0000       3.582311        97.4796 
  89   0.0000       3.602220        98.0214 
  90   0.0000       3.661754        99.6414 
  91   0.0000       3.712999       101.0358 
  92   0.0000       3.854817       104.8949 
  93   0.0000       3.998517       108.8052 
  94   0.0000       4.029839       109.6575 
  95   0.0000       4.125184       112.2520 
  96   0.0000       4.268557       116.1533 
  97   0.0000       4.281620       116.5088 
  98   0.0000       4.406288       119.9012 
  99   0.0000       4.578699       124.5927 
 100   0.0000       4.716872       128.3526 
 101   0.0000       4.842989       131.7844 
 102   0.0000       5.316827       144.6782 
 103   0.0000       5.483347       149.2095 
 104   0.0000       5.739000       156.1661 
 105   0.0000       5.785921       157.4429 
 106   0.0000       5.813722       158.1994 
 107   0.0000       5.930288       161.3713 
 108   0.0000       6.076446       165.3485 
 109   0.0000       6.635771       180.5685 
 110   0.0000       6.642377       180.7483 
 111   0.0000       6.791696       184.8114 
 112   0.0000       6.965056       189.5288 
 113   0.0000       7.182589       195.4482 
 114   0.0000      22.350157       608.1787 
 115   0.0000      22.432046       610.4070 
 116   0.0000      43.876953      1193.9526 

                    ********************************
                    * MULLIKEN POPULATION ANALYSIS *
                    ********************************

-----------------------
MULLIKEN ATOMIC CHARGES
-----------------------
   0 O :   -0.304218
   1 C :   -0.066523
   2 C :   -0.084263
   3 H :    0.107267
   4 H :    0.116992
   5 H :    0.114924
   6 H :    0.115821
Sum of atomic charges:    0.0000000

--------------------------------
MULLIKEN REDUCED ORBITAL CHARGES
--------------------------------
  0 O s       :     3.847307  s :     3.847307
      pz      :     1.831388  p :     4.409419
      px      :     1.292273
      py      :     1.285758
      dz2     :     0.005929  d :     0.045226
      dxz     :     0.002852
      dyz     :     0.006871
      dx2y2   :     0.012990
      dxy     :     0.016585
      f0      :     0.000273  f :     0.002266
      f+1     :     0.000224
      f-1     :     0.000474
      f+2     :     0.000074
      f-2     :     0.000224
      f+3     :     0.000355
      f-3     :     0.000643
  1 C s       :     3.226246  s :     3.226246
      pz      :     1.034019  p :     2.716215
      px      :     0.898540
      py      :     0.783656
      dz2     :     0.006159  d :     0.112190
      dxz     :     0.025390
      dyz     :     0.032242
      dx2y2   :     0.028509
      dxy     :     0.019891
      f0      :     0.001642  f :     0.011872
      f+1     :     0.001408
      f-1     :     0.000699
      f+2     :     0.001073
      f-2     :     0.001858
      f+3     :     0.002259
      f-3     :     0.002933
  2 C s       :     3.222872  s :     3.222872
      pz      :     1.049258  p :     2.743693
      px      :     0.897804
      py      :     0.796632
      dz2     :     0.005429  d :     0.106192
      dxz     :     0.024943
      dyz     :     0.029396
      dx2y2   :     0.027493
      dxy     :     0.018931
      f0      :     0.001484  f :     0.011506
      f+1     :     0.001417
      f-1     :     0.000629
      f+2     :     0.001051
      f-2     :     0.001832
      f+3     :     0.002322
      f-3     :     0.002771
  3 H s       :     0.874037  s :     0.874037
      pz      :     0.010145  p :     0.018695
      px      :     0.005296
      py      :     0.003255
  4 H s       :     0.859701  s :     0.859701
      pz      :     0.011232  p :     0.023307
      px      :     0.006983
      py      :     0.005092
  5 H s       :     0.863775  s :     0.863775
      pz      :     0.010040  p :     0.021301
      px      :     0.006847
      py      :     0.004414
  6 H s       :     0.861184  s :     0.861184
      pz      :     0.011363  p :     0.022995
      px      :     0.006902
      py      :     0.004730


                     *******************************
                     * LOEWDIN POPULATION ANALYSIS *
                     *******************************

----------------------
LOEWDIN ATOMIC CHARGES
----------------------
   0 O :    0.145026
   1 C :   -0.303546
   2 C :   -0.282353
   3 H :    0.128702
   4 H :    0.097624
   5 H :    0.113634
   6 H :    0.100913

-------------------------------
LOEWDIN REDUCED ORBITAL CHARGES
-------------------------------
  0 O s       :     3.362553  s :     3.362553
      pz      :     1.707933  p :     4.383900
      px      :     1.281663
      py      :     1.394304
      dz2     :     0.011809  d :     0.101225
      dxz     :     0.009085
      dyz     :     0.015629
      dx2y2   :     0.036330
      dxy     :     0.028373
      f0      :     0.000688  f :     0.007295
      f+1     :     0.000305
      f-1     :     0.000899
      f+2     :     0.000142
      f-2     :     0.001079
      f+3     :     0.001296
      f-3     :     0.002887
  1 C s       :     2.830120  s :     2.830120
      pz      :     1.052752  p :     2.923674
      px      :     1.014839
      py      :     0.856083
      dz2     :     0.055288  d :     0.475582
      dxz     :     0.121362
      dyz     :     0.095207
      dx2y2   :     0.106302
      dxy     :     0.097423
      f0      :     0.010737  f :     0.074170
      f+1     :     0.005765
      f-1     :     0.005855
      f+2     :     0.007008
      f-2     :     0.008395
      f+3     :     0.015777
      f-3     :     0.020633
  2 C s       :     2.819869  s :     2.819869
      pz      :     1.066708  p :     2.936140
      px      :     1.013561
      py      :     0.855870
      dz2     :     0.052007  d :     0.456806
      dxz     :     0.124995
      dyz     :     0.085310
      dx2y2   :     0.101298
      dxy     :     0.093197
      f0      :     0.009289  f :     0.069537
      f+1     :     0.005913
      f-1     :     0.005565
      f+2     :     0.006682
      f-2     :     0.007957
      f+3     :     0.015240
      f-3     :     0.018892
  3 H s       :     0.820370  s :     0.820370
      pz      :     0.028547  p :     0.050928
      px      :     0.013361
      py      :     0.009020
  4 H s       :     0.829722  s :     0.829722
      pz      :     0.036421  p :     0.072654
      px      :     0.020208
      py      :     0.016025
  5 H s       :     0.823798  s :     0.823798
      pz      :     0.030736  p :     0.062569
      px      :     0.018645
      py      :     0.013188
  6 H s       :     0.828147  s :     0.828147
      pz      :     0.036300  p :     0.070940
      px      :     0.019736
      py      :     0.014903


                      *****************************
                      * MAYER POPULATION ANALYSIS *
                      *****************************

  NA   - Mulliken gross atomic population
  ZA   - Total nuclear charge
  QA   - Mulliken gross atomic charge
  VA   - Mayer's total valence
  BVA  - Mayer's bonded valence
  FA   - Mayer's free valence

  ATOM       NA         ZA         QA         VA         BVA        FA
  0 O      8.3042     8.0000    -0.3042     2.0083     2.0083     0.0000
  1 C      6.0665     6.0000    -0.0665     3.9665     3.9665    -0.0000
  2 C      6.0843     6.0000    -0.0843     3.9635     3.9635     0.0000
  3 H      0.8927     1.0000     0.1073     0.9634     0.9634    -0.0000
  4 H      0.8830     1.0000     0.1170     0.9570     0.9570    -0.0000
  5 H      0.8851     1.0000     0.1149     0.9606     0.9606     0.0000
  6 H      0.8842     1.0000     0.1158     0.9617     0.9617    -0.0000

  Mayer bond orders larger than 0.100000
B(  0-O ,  1-C ) :   1.0002 B(  0-O ,  2-C ) :   0.9849 B(  1-C ,  2-C ) :   1.0509 
B(  1-C ,  3-H ) :   0.9489 B(  1-C ,  4-H ) :   0.9563 B(  2-C ,  5-H ) :   0.9532 
B(  2-C ,  6-H ) :   0.9628 

-------
TIMINGS
-------

Total SCF time: 0 days 0 hours 0 min 2 sec 

Total time                  ....       2.531 sec
Sum of individual times     ....       2.336 sec  ( 92.3%)

Fock matrix formation       ....       2.071 sec  ( 81.8%)
  Split-RI-J                ....       0.228 sec  ( 11.0% of F)
  Chain of spheres X        ....       1.391 sec  ( 67.1% of F)
  XC integration            ....       0.395 sec  ( 19.1% of F)
    Basis function eval.    ....       0.103 sec  ( 26.0% of XC)
    Density eval.           ....       0.078 sec  ( 19.8% of XC)
    XC-Functional eval.     ....       0.022 sec  (  5.7% of XC)
    XC-Potential eval.      ....       0.134 sec  ( 34.0% of XC)
Diagonalization             ....       0.015 sec  (  0.6%)
Density matrix formation    ....       0.001 sec  (  0.1%)
Population analysis         ....       0.004 sec  (  0.2%)
Initial guess               ....       0.017 sec  (  0.7%)
Orbital Transformation      ....       0.000 sec  (  0.0%)
Orbital Orthonormalization  ....       0.000 sec  (  0.0%)
DIIS solution               ....       0.012 sec  (  0.5%)
SOSCF solution              ....       0.010 sec  (  0.4%)
Grid generation             ....       0.204 sec  (  8.1%)

Maximum memory used throughout the entire SCF-calculation: 61.1 MB


-------------------------------------------------------------------------------
                          DFT DISPERSION CORRECTION                            
                                                                               
                              DFTD3 V3.1  Rev 1                                
                          USING Becke-Johnson damping                          
-------------------------------------------------------------------------------
The PBE0 functional is recognized
Active option DFTDOPT                   ...         4   

molecular C6(AA) [au] = 350.909232 


            DFT-D V3
 parameters
 s6 scaling factor         :     1.0000 
 a1 scaling factor         :     0.4145 
 s8 scaling factor         :     1.2177 
 a2 scaling factor         :     4.8593 
 ad hoc parameters k1-k3   :    16.0000     1.3333    -4.0000 

 Edisp/kcal,au: -1.508900661023  -0.002404586006 
 E6   /kcal   :  -0.989216391 
 E8   /kcal   :  -0.519684270 
 % E8         :  34.441251369 

-------------------------   ----------------
Dispersion correction           -0.002404586
-------------------------   ----------------


-------------------------   --------------------
FINAL SINGLE POINT ENERGY      -153.666470534836
-------------------------   --------------------



           ************************************************************
           *        Program running with 8 parallel MPI-processes     *
           *              working on a common directory               *
           ************************************************************
------------------------------------------------------------------------------
                         ORCA SCF GRADIENT CALCULATION
------------------------------------------------------------------------------

 ... reading COSX grid (gridx3)
Gradient of the Kohn-Sham DFT energy:
Kohn-Sham wavefunction type      ... RKS
Hartree-Fock exchange scaling    ...    0.250
Number of operators              ...    1
Number of atoms                  ...    7
Basis set dimensions             ...  117
Integral neglect threshold       ... 2.5e-11
Integral primitive cutoff        ... 2.5e-12
SHARK Integral package           ... ON

Nuc. rep. gradient       (SHARK) ... done (  0.0 sec)
HCore & Overlap gradient (SHARK) ... done (  0.0 sec)
RI-J gradient            (SHARK) ... done (  0.1 sec)
COSX-gradient                    ... done (  0.3 sec)
Exchange-correlation gradient    ... done
Dispersion correction            ... done

------------------
CARTESIAN GRADIENT
------------------

   1   O   :   -0.006730545   -0.004942932    0.009072401
   2   C   :   -0.036689721    0.008452276   -0.080169542
   3   C   :    0.048003950   -0.002165028    0.025222409
   4   H   :   -0.015573320   -0.008849915    0.036054535
   5   H   :    0.023705619    0.008376248    0.039553104
   6   H   :    0.003089753   -0.007512215    0.005255257
   7   H   :   -0.015783372    0.006397972   -0.035005759

Difference to translation invariance:
           :    0.0000223643   -0.0002435948   -0.0000175941

Difference to rotation invariance:
           :   -0.0000820959   -0.0000350634   -0.0000568695

Norm of the cartesian gradient     ...    0.1279390650
RMS gradient                       ...    0.0279185929
MAX gradient                       ...    0.0801695425

-------
TIMINGS
-------

Total SCF gradient time            ...        0.680 sec

One electron gradient       ....       0.010 sec  (  1.4%)
RI-J Coulomb gradient       ....       0.076 sec  ( 11.1%)
COSX gradient               ....       0.301 sec  ( 44.3%)
XC gradient                 ....       0.151 sec  ( 22.3%)

Maximum memory used throughout the entire SCFGRAD-calculation: 35.9 MB

                            ***************************************
                            *     ORCA property calculations      *
                            ***************************************

                                    ---------------------
                                    Active property flags
                                    ---------------------
   (+) Dipole Moment


------------------------------------------------------------------------------
                       ORCA ELECTRIC PROPERTIES CALCULATION
------------------------------------------------------------------------------

Dipole Moment Calculation                       ... on
Quadrupole Moment Calculation                   ... off
Polarizability Calculation                      ... off
GBWName                                         ... ox_gs_A_orca0024.gbw
Electron density                                ... ox_gs_A_orca0024.scfp
The origin for moment calculation is the CENTER OF MASS  = (-0.038305, -0.072375 -0.046518)

-------------
DIPOLE MOMENT
-------------
                                X             Y             Z
Electronic contribution:     -0.03124       1.77424      -0.13787
Nuclear contribution   :      0.06097      -2.47700       0.12208
                        -----------------------------------------
Total Dipole Moment    :      0.02973      -0.70276      -0.01579
                        -----------------------------------------
Magnitude (a.u.)       :      0.70357
Magnitude (Debye)      :      1.78832



--------------------
Rotational spectrum 
--------------------
 
Rotational constants in cm-1:     0.891985     0.712239     0.470399 
Rotational constants in MHz : 26741.023591 21352.391465 14102.202721 

 Dipole components along the rotational axes: 
x,y,z [a.u.] :    -0.069548    -0.699926    -0.016468 
x,y,z [Debye]:    -0.176777    -1.779071    -0.041858 

 

Timings for individual modules:

Sum of individual times         ...        3.985 sec (=   0.066 min)
GTO integral calculation        ...        0.351 sec (=   0.006 min)   8.8 %
SCF iterations                  ...        2.725 sec (=   0.045 min)  68.4 %
SCF Gradient evaluation         ...        0.909 sec (=   0.015 min)  22.8 %
                             ****ORCA TERMINATED NORMALLY****
TOTAL RUN TIME: 0 days 0 hours 0 minutes 4 seconds 263 msec
