
                                 *****************
                                 * O   R   C   A *
                                 *****************

                                            #,                                       
                                            ###                                      
                                            ####                                     
                                            #####                                    
                                            ######                                   
                                           ########,                                 
                                     ,,################,,,,,                         
                               ,,#################################,,                 
                          ,,##########################################,,             
                       ,#########################################, ''#####,          
                    ,#############################################,,   '####,        
                  ,##################################################,,,,####,       
                ,###########''''           ''''###############################       
              ,#####''   ,,,,##########,,,,          '''####'''          '####       
            ,##' ,,,,###########################,,,                        '##       
           ' ,,###''''                  '''############,,,                           
         ,,##''                                '''############,,,,        ,,,,,,###''
      ,#''                                            '''#######################'''  
     '                                                          ''''####''''         
             ,#######,   #######,   ,#######,      ##                                
            ,#'     '#,  ##    ##  ,#'     '#,    #''#        ######   ,####,        
            ##       ##  ##   ,#'  ##            #'  '#       #        #'  '#        
            ##       ##  #######   ##           ,######,      #####,   #    #        
            '#,     ,#'  ##    ##  '#,     ,#' ,#      #,         ##   #,  ,#        
             '#######'   ##     ##  '#######'  #'      '#     #####' # '####'        



                  #######################################################
                  #                        -***-                        #
                  #          Department of theory and spectroscopy      #
                  #    Directorship and core code : Frank Neese         #
                  #        Max Planck Institute fuer Kohlenforschung    #
                  #                Kaiser Wilhelm Platz 1               #
                  #                 D-45470 Muelheim/Ruhr               #
                  #                      Germany                        #
                  #                                                     #
                  #                  All rights reserved                #
                  #                        -***-                        #
                  #######################################################


                         Program Version 5.0.2 -  RELEASE  -


 With contributions from (in alphabetic order):
   Daniel Aravena         : Magnetic Suceptibility
   Michael Atanasov       : Ab Initio Ligand Field Theory (pilot matlab implementation)
   Alexander A. Auer      : GIAO ZORA, VPT2 properties, NMR spectrum
   Ute Becker             : Parallelization
   Giovanni Bistoni       : ED, misc. LED, open-shell LED, HFLD
   Martin Brehm           : Molecular dynamics
   Dmytro Bykov           : SCF Hessian
   Vijay G. Chilkuri      : MRCI spin determinant printing, contributions to CSF-ICE
   Dipayan Datta          : RHF DLPNO-CCSD density
   Achintya Kumar Dutta   : EOM-CC, STEOM-CC
   Dmitry Ganyushin       : Spin-Orbit,Spin-Spin,Magnetic field MRCI
   Miquel Garcia          : C-PCM and meta-GGA Hessian, CC/C-PCM, Gaussian charge scheme
   Yang Guo               : DLPNO-NEVPT2, F12-NEVPT2, CIM, IAO-localization
   Andreas Hansen         : Spin unrestricted coupled pair/coupled cluster methods
   Benjamin Helmich-Paris : MC-RPA, TRAH-SCF, COSX integrals
   Lee Huntington         : MR-EOM, pCC
   Robert Izsak           : Overlap fitted RIJCOSX, COSX-SCS-MP3, EOM
   Marcus Kettner         : VPT2
   Christian Kollmar      : KDIIS, OOCD, Brueckner-CCSD(T), CCSD density, CASPT2, CASPT2-K
   Simone Kossmann        : Meta GGA functionals, TD-DFT gradient, OOMP2, MP2 Hessian
   Martin Krupicka        : Initial AUTO-CI
   Lucas Lang             : DCDCAS
   Marvin Lechner         : AUTO-CI (C++ implementation), FIC-MRCC
   Dagmar Lenk            : GEPOL surface, SMD
   Dimitrios Liakos       : Extrapolation schemes; Compound Job, initial MDCI parallelization
   Dimitrios Manganas     : Further ROCIS development; embedding schemes
   Dimitrios Pantazis     : SARC Basis sets
   Anastasios Papadopoulos: AUTO-CI, single reference methods and gradients
   Taras Petrenko         : DFT Hessian,TD-DFT gradient, ASA, ECA, R-Raman, ABS, FL, XAS/XES, NRVS
   Peter Pinski           : DLPNO-MP2, DLPNO-MP2 Gradient
   Christoph Reimann      : Effective Core Potentials
   Marius Retegan         : Local ZFS, SOC
   Christoph Riplinger    : Optimizer, TS searches, QM/MM, DLPNO-CCSD(T), (RO)-DLPNO pert. Triples
   Tobias Risthaus        : Range-separated hybrids, TD-DFT gradient, RPA, STAB
   Michael Roemelt        : Original ROCIS implementation
   Masaaki Saitow         : Open-shell DLPNO-CCSD energy and density
   Barbara Sandhoefer     : DKH picture change effects
   Avijit Sen             : IP-ROCIS
   Kantharuban Sivalingam : CASSCF convergence, NEVPT2, FIC-MRCI
   Bernardo de Souza      : ESD, SOC TD-DFT
   Georgi Stoychev        : AutoAux, RI-MP2 NMR, DLPNO-MP2 response
   Willem Van den Heuvel  : Paramagnetic NMR
   Boris Wezisla          : Elementary symmetry handling
   Frank Wennmohs         : Technical directorship


 We gratefully acknowledge several colleagues who have allowed us to
 interface, adapt or use parts of their codes:
   Stefan Grimme, W. Hujo, H. Kruse, P. Pracht,  : VdW corrections, initial TS optimization,
                  C. Bannwarth, S. Ehlert          DFT functionals, gCP, sTDA/sTD-DF
   Ed Valeev, F. Pavosevic, A. Kumar             : LibInt (2-el integral package), F12 methods
   Garnet Chan, S. Sharma, J. Yang, R. Olivares  : DMRG
   Ulf Ekstrom                                   : XCFun DFT Library
   Mihaly Kallay                                 : mrcc  (arbitrary order and MRCC methods)
   Jiri Pittner, Ondrej Demel                    : Mk-CCSD
   Frank Weinhold                                : gennbo (NPA and NBO analysis)
   Christopher J. Cramer and Donald G. Truhlar   : smd solvation model
   Lars Goerigk                                  : TD-DFT with DH, B97 family of functionals
   V. Asgeirsson, H. Jonsson                     : NEB implementation
   FAccTs GmbH                                   : IRC, NEB, NEB-TS, DLPNO-Multilevel, CI-OPT
                                                   MM, QMMM, 2- and 3-layer-ONIOM, Crystal-QMMM,
                                                   LR-CPCM, SF, NACMEs, symmetry and pop. for TD-DFT,
                                                   nearIR, NL-DFT gradient (VV10), updates on ESD,
                                                   ML-optimized integration grids
   S Lehtola, MJT Oliveira, MAL Marques          : LibXC Library
   Liviu Ungur et al                             : ANISO software


 Your calculation uses the libint2 library for the computation of 2-el integrals
 For citations please refer to: http://libint.valeyev.net

 Your ORCA version has been built with support for libXC version: 5.1.0
 For citations please refer to: https://tddft.org/programs/libxc/

 This ORCA versions uses:
   CBLAS   interface :  Fast vector & matrix operations
   LAPACKE interface :  Fast linear algebra routines
   SCALAPACK package :  Parallel linear algebra routines
   Shared memory     :  Shared parallel matrices
   BLAS/LAPACK       :  OpenBLAS 0.3.15  USE64BITINT DYNAMIC_ARCH NO_AFFINITY SkylakeX SINGLE_THREADED
        Core in use  :  SkylakeX
   Copyright (c) 2011-2014, The OpenBLAS Project


Your calculation utilizes the atom-pairwise dispersion correction
with the Becke-Johnson damping scheme (D3BJ)
Cite in your paper:
S.Grimme, S.Ehrlich, L.Goerigk, J Comput Chem, (2011), 32, 1456–1465 
S.Grimme, J.Antony, S.Ehrlich and H.Krieg, J.Chem.Phys., 132, (2010), 154104 
   

================================================================================

----- Orbital basis set information -----
Your calculation utilizes the basis: def2-TZVP
   F. Weigend and R. Ahlrichs, Phys. Chem. Chem. Phys. 7, 3297 (2005).

----- AuxJ basis set information -----
Your calculation utilizes the auxiliary basis: def2/J
   F. Weigend, Phys. Chem. Chem. Phys. 8, 1057 (2006).

================================================================================
                                        WARNINGS
                       Please study these warnings very carefully!
================================================================================


INFO   : the flag for use of the SHARK integral package has been found!

================================================================================
                                       INPUT FILE
================================================================================
NAME = ox_gs_G_orca0009.inp
|  1> ! engrad PBE0 D3BJ def2-TZVP  
|  2> %pal nprocs 8 end
|  3> %maxcore 3000
|  4>  
|  5> *xyz 0 1 
|  6> O   -1.3638695336307787 0.7591846156389189 0.04515425371492939
|  7> C   -0.6805927649625999 -0.5572530784417186 0.009682132184802903
|  8> C   0.7845387543287229 -0.4303715891551667 0.015036855424674709
|  9> H   -1.2494795357691177 -0.6467893658117863 0.8468479415499983
| 10> H   -1.2002438706980574 -0.6419348827013412 -0.9544366788474067
| 11> H   1.3205777665778409 -0.6607430498320076 -0.9266008840261142
| 12> H   1.2557497807193791 -0.6333457591684317 1.0128327036590314
| 13> *
| 14> 
| 15>                          ****END OF INPUT****
================================================================================

                     *******************************
                     * Energy+Gradient Calculation *
                     *******************************

---------------------------------
CARTESIAN COORDINATES (ANGSTROEM)
---------------------------------
  O     -1.363870    0.759185    0.045154
  C     -0.680593   -0.557253    0.009682
  C      0.784539   -0.430372    0.015037
  H     -1.249480   -0.646789    0.846848
  H     -1.200244   -0.641935   -0.954437
  H      1.320578   -0.660743   -0.926601
  H      1.255750   -0.633346    1.012833

----------------------------
CARTESIAN COORDINATES (A.U.)
----------------------------
  NO LB      ZA    FRAG     MASS         X           Y           Z
   0 O     8.0000    0    15.999   -2.577340    1.434651    0.085329
   1 C     6.0000    0    12.011   -1.286134   -1.053056    0.018297
   2 C     6.0000    0    12.011    1.482563   -0.813284    0.028416
   3 H     1.0000    0     1.008   -2.361174   -1.222255    1.600311
   4 H     1.0000    0     1.008   -2.268132   -1.213081   -1.803624
   5 H     1.0000    0     1.008    2.495530   -1.248623   -1.751022
   6 H     1.0000    0     1.008    2.373023   -1.196850    1.913976

--------------------------------
INTERNAL COORDINATES (ANGSTROEM)
--------------------------------
 O      0   0   0     0.000000000000     0.00000000     0.00000000
 C      1   0   0     1.483621790216     0.00000000     0.00000000
 C      2   1   0     1.470625021617   112.46903451     0.00000000
 H      2   1   3     1.016117855923    78.50076948   122.47292543
 H      2   1   3     1.098514160788    82.61845386   241.87316596
 H      3   2   1     1.107741154289   117.45535802   252.13886190
 H      3   2   1     1.121978119144   113.95653151   102.13318435

---------------------------
INTERNAL COORDINATES (A.U.)
---------------------------
 O      0   0   0     0.000000000000     0.00000000     0.00000000
 C      1   0   0     2.803638869826     0.00000000     0.00000000
 C      2   1   0     2.779078536548   112.46903451     0.00000000
 H      2   1   3     1.920184467481    78.50076948   122.47292543
 H      2   1   3     2.075890918123    82.61845386   241.87316596
 H      3   2   1     2.093327408880   117.45535802   252.13886190
 H      3   2   1     2.120231373435   113.95653151   102.13318435

---------------------
BASIS SET INFORMATION
---------------------
There are 3 groups of distinct atoms

 Group   1 Type O   : 11s6p2d1f contracted to 5s3p2d1f pattern {62111/411/11/1}
 Group   2 Type C   : 11s6p2d1f contracted to 5s3p2d1f pattern {62111/411/11/1}
 Group   3 Type H   : 5s1p contracted to 3s1p pattern {311/1}

Atom   0O    basis set group =>   1
Atom   1C    basis set group =>   2
Atom   2C    basis set group =>   2
Atom   3H    basis set group =>   3
Atom   4H    basis set group =>   3
Atom   5H    basis set group =>   3
Atom   6H    basis set group =>   3
---------------------------------
AUXILIARY/J BASIS SET INFORMATION
---------------------------------
There are 3 groups of distinct atoms

 Group   1 Type O   : 12s5p4d2f1g contracted to 6s4p3d1f1g pattern {711111/2111/211/2/1}
 Group   2 Type C   : 12s5p4d2f1g contracted to 6s4p3d1f1g pattern {711111/2111/211/2/1}
 Group   3 Type H   : 5s2p1d contracted to 3s1p1d pattern {311/2/1}

Atom   0O    basis set group =>   1
Atom   1C    basis set group =>   2
Atom   2C    basis set group =>   2
Atom   3H    basis set group =>   3
Atom   4H    basis set group =>   3
Atom   5H    basis set group =>   3
Atom   6H    basis set group =>   3


           ************************************************************
           *        Program running with 8 parallel MPI-processes     *
           *              working on a common directory               *
           ************************************************************
------------------------------------------------------------------------------
                           ORCA GTO INTEGRAL CALCULATION
                           -- RI-GTO INTEGRALS CHOSEN --
------------------------------------------------------------------------------
------------------------------------------------------------------------------
                   ___                                                        
                  /   \      - P O W E R E D   B Y -                         
                 /     \                                                     
                 |  |  |   _    _      __       _____    __    __             
                 |  |  |  | |  | |    /  \     |  _  \  |  |  /  |          
                  \  \/   | |  | |   /    \    | | | |  |  | /  /          
                 / \  \   | |__| |  /  /\  \   | |_| |  |  |/  /          
                |  |  |   |  __  | /  /__\  \  |    /   |      \           
                |  |  |   | |  | | |   __   |  |    \   |  |\   \          
                \     /   | |  | | |  |  |  |  | |\  \  |  | \   \       
                 \___/    |_|  |_| |__|  |__|  |_| \__\ |__|  \__/        
                                                                              
                      - O R C A' S   B I G   F R I E N D -                    
                                      &                                       
                       - I N T E G R A L  F E E D E R -                       
                                                                              
 v1 FN, 2020, v2 2021                                                         
------------------------------------------------------------------------------


Reading SHARK input file ox_gs_G_orca0009.SHARKINP.tmp ... ok
----------------------
SHARK INTEGRAL PACKAGE
----------------------

Number of atoms                             ...      7
Number of basis functions                   ...    117
Number of shells                            ...     49
Maximum angular momentum                    ...      3
Integral batch strategy                     ... SHARK/LIBINT Hybrid
RI-J (if used) integral strategy            ... SPLIT-RIJ (Revised 2003 algorithm where possible)
Printlevel                                  ...      1
Contraction scheme used                     ... SEGMENTED contraction
Coulomb Range Separation                    ... NOT USED
Exchange Range Separation                   ... NOT USED
Finite Nucleus Model                        ... NOT USED
Auxiliary Coulomb fitting basis             ... AVAILABLE
   # of basis functions in Aux-J            ...    191
   # of shells in Aux-J                     ...     65
   Maximum angular momentum in Aux-J        ...      4
Auxiliary J/K fitting basis                 ... NOT available
Auxiliary Correlation fitting basis         ... NOT available
Auxiliary 'external' fitting basis          ... NOT available
Integral threshold                          ...     2.500000e-11
Primitive cut-off                           ...     2.500000e-12
Primitive pair pre-selection threshold      ...     2.500000e-12

Calculating pre-screening integrals         ... done (  0.0 sec) Dimension = 49
Organizing shell pair data                  ... done (  0.0 sec)
Shell pair information
Total number of shell pairs                 ...      1225
Shell pairs after pre-screening             ...      1211
Total number of primitive shell pairs       ...      3648
Primitive shell pairs kept                  ...      3065
          la=0 lb=0:    367 shell pairs
          la=1 lb=0:    349 shell pairs
          la=1 lb=1:     91 shell pairs
          la=2 lb=0:    161 shell pairs
          la=2 lb=1:     78 shell pairs
          la=2 lb=2:     21 shell pairs
          la=3 lb=0:     81 shell pairs
          la=3 lb=1:     39 shell pairs
          la=3 lb=2:     18 shell pairs
          la=3 lb=3:      6 shell pairs

Calculating one electron integrals          ... done (  0.0 sec)
Calculating RI/J V-Matrix + Cholesky decomp.... done (  0.0 sec)
Calculating Nuclear repulsion               ... done (  0.0 sec) ENN=     66.954243083066 Eh

SHARK setup successfully completed in   0.1 seconds

Maximum memory used throughout the entire GTOINT-calculation: 14.9 MB


           ************************************************************
           *        Program running with 8 parallel MPI-processes     *
           *              working on a common directory               *
           ************************************************************
-------------------------------------------------------------------------------
                                 ORCA SCF
-------------------------------------------------------------------------------

------------
SCF SETTINGS
------------
Hamiltonian:
 Density Functional     Method          .... DFT(GTOs)
 Exchange Functional    Exchange        .... PBE
   PBE kappa parameter   XKappa         ....  0.804000
   PBE mue parameter    XMuePBE         ....  0.219520
 Correlation Functional Correlation     .... PBE
   PBE beta parameter  CBetaPBE         ....  0.066725
 LDA part of GGA corr.  LDAOpt          .... PW91-LDA
 Gradients option       PostSCFGGA      .... off
 Hybrid DFT is turned on
   Fraction HF Exchange ScalHFX         ....  0.250000
   Scaling of DF-GGA-X  ScalDFX         ....  0.750000
   Scaling of DF-GGA-C  ScalDFC         ....  1.000000
   Scaling of DF-LDA-C  ScalLDAC        ....  1.000000
   Perturbative correction              ....  0.000000
   Density functional embedding theory  .... OFF
   NL short-range parameter             ....  6.900000
 RI-approximation to the Coulomb term is turned on
   Number of AuxJ basis functions       .... 191
   RIJ-COSX (HFX calculated with COS-X)).... on


General Settings:
 Integral files         IntName         .... ox_gs_G_orca0009
 Hartree-Fock type      HFTyp           .... RHF
 Total Charge           Charge          ....    0
 Multiplicity           Mult            ....    1
 Number of Electrons    NEL             ....   24
 Basis Dimension        Dim             ....  117
 Nuclear Repulsion      ENuc            ....     66.9542430831 Eh

Convergence Acceleration:
 DIIS                   CNVDIIS         .... on
   Start iteration      DIISMaxIt       ....    12
   Startup error        DIISStart       ....  0.200000
   # of expansion vecs  DIISMaxEq       ....     5
   Bias factor          DIISBfac        ....   1.050
   Max. coefficient     DIISMaxC        ....  10.000
 Trust-Rad. Augm. Hess. CNVTRAH         .... auto
   Auto Start mean grad. ratio tolernc. ....  1.125000
   Auto Start start iteration           ....    20
   Auto Start num. interpolation iter.  ....    10
   Max. Number of Micro iterations      ....    16
   Max. Number of Macro iterations      .... Maxiter - #DIIS iter
   Number of Davidson start vectors     ....     2
   Converg. threshold I  (grad. norm)   ....   1.000e-05
   Converg. threshold II (energy diff.) ....   1.000e-08
   Grad. Scal. Fac. for Micro threshold ....   0.100
   Minimum threshold for Micro iter.    ....   0.010
   NR start threshold (gradient norm)   ....   0.001
   Initial trust radius                 ....   0.400
   Minimum AH scaling param. (alpha)    ....   1.000
   Maximum AH scaling param. (alpha)    .... 1000.000
   Orbital update algorithm             .... Taylor
   White noise on init. David. guess    .... on
   Maximum white noise                  ....   0.010
   Quad. conv. algorithm                .... NR
 SOSCF                  CNVSOSCF        .... on
   Start iteration      SOSCFMaxIt      ....   150
   Startup grad/error   SOSCFStart      ....  0.003300
 Level Shifting         CNVShift        .... on
   Level shift para.    LevelShift      ....    0.2500
   Turn off err/grad.   ShiftErr        ....    0.0010
 Zerner damping         CNVZerner       .... off
 Static damping         CNVDamp         .... on
   Fraction old density DampFac         ....    0.7000
   Max. Damping (<1)    DampMax         ....    0.9800
   Min. Damping (>=0)   DampMin         ....    0.0000
   Turn off err/grad.   DampErr         ....    0.1000
 Fernandez-Rico         CNVRico         .... off

SCF Procedure:
 Maximum # iterations   MaxIter         ....   125
 SCF integral mode      SCFMode         .... Direct
   Integral package                     .... SHARK and LIBINT hybrid scheme
 Reset frequency        DirectResetFreq ....    20
 Integral Threshold     Thresh          ....  2.500e-11 Eh
 Primitive CutOff       TCut            ....  2.500e-12 Eh

Convergence Tolerance:
 Convergence Check Mode ConvCheckMode   .... Total+1el-Energy
 Convergence forced     ConvForced      .... 0
 Energy Change          TolE            ....  1.000e-08 Eh
 1-El. energy change                    ....  1.000e-05 Eh
 Orbital Gradient       TolG            ....  1.000e-05
 Orbital Rotation angle TolX            ....  1.000e-05
 DIIS Error             TolErr          ....  5.000e-07


Diagonalization of the overlap matrix:
Smallest eigenvalue                        ... 5.129e-04
Time for diagonalization                   ...    0.001 sec
Threshold for overlap eigenvalues          ... 1.000e-08
Number of eigenvalues below threshold      ... 0
Time for construction of square roots      ...    0.002 sec
Total time needed                          ...    0.003 sec

Time for model grid setup =    0.023 sec

------------------------------
INITIAL GUESS: MODEL POTENTIAL
------------------------------
Loading Hartree-Fock densities                     ... done
Calculating cut-offs                               ... done
Initializing the effective Hamiltonian             ... done
Setting up the integral package (SHARK)            ... done
Starting the Coulomb interaction                   ... done (   0.0 sec)
Reading the grid                                   ... done
Mapping shells                                     ... done
Starting the XC term evaluation                    ... done (   0.0 sec)
  promolecular density results
     # of electrons  =     23.998279533
     EX              =    -19.448572493
     EC              =     -0.764529480
     EX+EC           =    -20.213101973
Transforming the Hamiltonian                       ... done (   0.0 sec)
Diagonalizing the Hamiltonian                      ... done (   0.0 sec)
Back transforming the eigenvectors                 ... done (   0.0 sec)
Now organizing SCF variables                       ... done
                      ------------------
                      INITIAL GUESS DONE (   0.0 sec)
                      ------------------
-------------------
DFT GRID GENERATION
-------------------

General Integration Accuracy     IntAcc      ... 4.388
Radial Grid Type                 RadialGrid  ... OptM3 with GC (2021)
Angular Grid (max. ang.)         AngularGrid ... 4 (Lebedev-302)
Angular grid pruning method      GridPruning ... 4 (adaptive)
Weight generation scheme         WeightScheme... Becke
Basis function cutoff            BFCut       ... 1.0000e-11
Integration weight cutoff        WCut        ... 1.0000e-14
Angular grids for H and He will be reduced by one unit
Partially contracted basis set               ... off
Rotationally invariant grid construction     ... off

Total number of grid points                  ...    31343
Total number of batches                      ...      493
Average number of points per batch           ...       63
Average number of grid points per atom       ...     4478
Time for grid setup =    0.110 sec

--------------------
COSX GRID GENERATION
--------------------

GRIDX 1
-------
General Integration Accuracy     IntAcc      ... 3.816
Radial Grid Type                 RadialGrid  ... OptM3 with GC (2021)
Angular Grid (max. ang.)         AngularGrid ... 1 (Lebedev-50)
Angular grid pruning method      GridPruning ... 4 (adaptive)
Weight generation scheme         WeightScheme... Becke
Basis function cutoff            BFCut       ... 1.0000e-11
Integration weight cutoff        WCut        ... 1.0000e-14
Angular grids for H and He will be reduced by one unit
Partially contracted basis set               ... on
Rotationally invariant grid construction     ... off

Total number of grid points                  ...     4046
Total number of batches                      ...       67
Average number of points per batch           ...       60
Average number of grid points per atom       ...      578
UseSFitting                                  ... on

GRIDX 2
-------
General Integration Accuracy     IntAcc      ... 4.020
Radial Grid Type                 RadialGrid  ... OptM3 with GC (2021)
Angular Grid (max. ang.)         AngularGrid ... 2 (Lebedev-110)
Angular grid pruning method      GridPruning ... 4 (adaptive)
Weight generation scheme         WeightScheme... Becke
Basis function cutoff            BFCut       ... 1.0000e-11
Integration weight cutoff        WCut        ... 1.0000e-14
Angular grids for H and He will be reduced by one unit
Partially contracted basis set               ... on
Rotationally invariant grid construction     ... off

Total number of grid points                  ...     8735
Total number of batches                      ...      140
Average number of points per batch           ...       62
Average number of grid points per atom       ...     1248
UseSFitting                                  ... on

GRIDX 3
-------
General Integration Accuracy     IntAcc      ... 4.338
Radial Grid Type                 RadialGrid  ... OptM3 with GC (2021)
Angular Grid (max. ang.)         AngularGrid ... 3 (Lebedev-194)
Angular grid pruning method      GridPruning ... 4 (adaptive)
Weight generation scheme         WeightScheme... Becke
Basis function cutoff            BFCut       ... 1.0000e-11
Integration weight cutoff        WCut        ... 1.0000e-14
Angular grids for H and He will be reduced by one unit
Partially contracted basis set               ... on
Rotationally invariant grid construction     ... off

Total number of grid points                  ...    19272
Total number of batches                      ...      304
Average number of points per batch           ...       63
Average number of grid points per atom       ...     2753
UseSFitting                                  ... on

Time for X-Grid setup             =    0.073 sec

--------------
SCF ITERATIONS
--------------
ITER       Energy         Delta-E        Max-DP      RMS-DP      [F,P]     Damp
               ***  Starting incremental Fock matrix formation  ***
  0   -153.2165301576   0.000000000000 0.18071676  0.00516169  0.3747329 0.7000
  1   -153.3382094253  -0.121679267748 0.09714053  0.00248844  0.0930693 0.7000
                               ***Turning on DIIS***
  2   -153.2999979121   0.038211513199 0.04884572  0.00176114  0.1402235 0.7000
  3   -153.3555504254  -0.055552513265 0.12297368  0.00414105  0.0441320 0.0000
  4   -153.4219687538  -0.066418328338 0.00844134  0.00031618  0.1412516 0.7000
  5   -153.4262576056  -0.004288851818 0.01018457  0.00040021  0.1318939 0.7000
  6   -153.4292246952  -0.002967089664 0.00980056  0.00040117  0.1246504 0.7000
  7   -153.4309681099  -0.001743414661 0.00878902  0.00036906  0.1195840 0.7000
  8   -153.4320650065  -0.001096896576 0.02386795  0.00109817  0.1154732 0.7000
  9   -153.4491453514  -0.017080344908 0.03590822  0.00153592  0.0240970 0.0000
 10   -153.4479591590   0.001186192423 0.01781760  0.00061804  0.0911915 0.0000
 11   -153.4581042815  -0.010145122539 0.00918969  0.00036443  0.0465641 0.0000
 12   -153.4610697223  -0.002965440826 0.00580351  0.00021206  0.0216962 0.0000
 13   -153.4617906393  -0.000720917020 0.00378870  0.00012507  0.0083987 0.0000
                      *** Initiating the SOSCF procedure ***
                           *** Shutting down DIIS ***
                      *** Re-Reading the Fockian *** 
                      *** Removing any level shift *** 
ITER      Energy       Delta-E        Grad      Rot      Max-DP    RMS-DP
 14   -153.46196529  -0.0001746533  0.002427  0.002427  0.002967  0.000094
               *** Restarting incremental Fock matrix formation ***
 15   -153.46204881  -0.0000835130  0.001380  0.019067  0.006407  0.000247
 16   -153.46216284  -0.0001140366  0.002303  0.035095  0.019907  0.000740
 17   -153.46148633   0.0006765109  0.009396  0.020982  0.012834  0.000466
 18   -153.46224745  -0.0007611216  0.000980  0.004243  0.002150  0.000095
 19   -153.46224912  -0.0000016704  0.001155  0.003932  0.001716  0.000069
 20   -153.46227229  -0.0000231715  0.000234  0.004720  0.001166  0.000051
 21   -153.46227661  -0.0000043135  0.000175  0.009142  0.002244  0.000096
 22   -153.46228000  -0.0000033889  0.000142  0.000541  0.000200  0.000011
 23   -153.46228036  -0.0000003671  0.000052  0.000416  0.000103  0.000005
 24   -153.46228042  -0.0000000599  0.000005  0.000021  0.000013  0.000001
                 **** Energy Check signals convergence ****
              ***Rediagonalizing the Fockian in SOSCF/NRSCF***

               *****************************************************
               *                     SUCCESS                       *
               *           SCF CONVERGED AFTER  25 CYCLES          *
               *****************************************************

Old exchange energy                            =     -4.945847528 Eh
New exchange energy                            =     -4.945854554 Eh
Exchange energy change after final integration =     -0.000007026 Eh
Total energy after final integration           =   -153.462287451 Eh
Final COS-X integration done in                =     0.324 sec

----------------
TOTAL SCF ENERGY
----------------

Total Energy       :         -153.46228745 Eh           -4175.92114 eV

Components:
Nuclear Repulsion  :           66.95424308 Eh            1821.91758 eV
Electronic Energy  :         -220.41653053 Eh           -5997.83872 eV
One Electron Energy:         -340.75620188 Eh           -9272.44766 eV
Two Electron Energy:          120.33967135 Eh            3274.60894 eV
Max COSX asymmetry :            0.00000188 Eh               0.00005 eV

Virial components:
Potential Energy   :         -306.32073735 Eh           -8335.41103 eV
Kinetic Energy     :          152.85844989 Eh            4159.48989 eV
Virial Ratio       :            2.00395031


DFT components:
N(Alpha)           :       11.999995668541 electrons
N(Beta)            :       11.999995668541 electrons
N(Total)           :       23.999991337082 electrons
E(X)               :      -14.870850514384 Eh       
E(C)               :       -0.770273077390 Eh       
E(XC)              :      -15.641123591774 Eh       
DFET-embed. en.    :        0.000000000000 Eh       

---------------
SCF CONVERGENCE
---------------

  Last Energy change         ...   -6.4438e-10  Tolerance :   1.0000e-08
  Last MAX-Density change    ...    1.5543e-15  Tolerance :   1.0000e-07
  Last RMS-Density change    ...    2.7746e-17  Tolerance :   5.0000e-09
  Last Orbital Gradient      ...    2.5767e-06  Tolerance :   1.0000e-05
  Last Orbital Rotation      ...    6.0029e-06  Tolerance :   1.0000e-05

             **** THE GBW FILE WAS UPDATED (ox_gs_G_orca0009.gbw) ****
             **** DENSITY ox_gs_G_orca0009.scfp WAS UPDATED ****
             **** ENERGY FILE WAS UPDATED (ox_gs_G_orca0009.en.tmp) ****
             **** THE GBW FILE WAS UPDATED (ox_gs_G_orca0009.gbw) ****
             **** DENSITY ox_gs_G_orca0009.scfp WAS UPDATED ****
----------------
ORBITAL ENERGIES
----------------

  NO   OCC          E(Eh)            E(eV) 
   0   2.0000     -19.181313      -521.9501 
   1   2.0000     -10.319691      -280.8131 
   2   2.0000     -10.267935      -279.4047 
   3   2.0000      -0.978100       -26.6154 
   4   2.0000      -0.776663       -21.1341 
   5   2.0000      -0.621946       -16.9240 
   6   2.0000      -0.529960       -14.4210 
   7   2.0000      -0.477326       -12.9887 
   8   2.0000      -0.438478       -11.9316 
   9   2.0000      -0.376607       -10.2480 
  10   2.0000      -0.252796        -6.8789 
  11   2.0000      -0.231812        -6.3079 
  12   0.0000      -0.167014        -4.5447 
  13   0.0000       0.041363         1.1255 
  14   0.0000       0.078915         2.1474 
  15   0.0000       0.085528         2.3273 
  16   0.0000       0.118837         3.2337 
  17   0.0000       0.150971         4.1081 
  18   0.0000       0.176461         4.8018 
  19   0.0000       0.211917         5.7666 
  20   0.0000       0.226156         6.1540 
  21   0.0000       0.239689         6.5223 
  22   0.0000       0.254107         6.9146 
  23   0.0000       0.320794         8.7293 
  24   0.0000       0.323943         8.8149 
  25   0.0000       0.356202         9.6927 
  26   0.0000       0.409120        11.1327 
  27   0.0000       0.417639        11.3645 
  28   0.0000       0.423784        11.5318 
  29   0.0000       0.464138        12.6298 
  30   0.0000       0.517797        14.0900 
  31   0.0000       0.545597        14.8465 
  32   0.0000       0.553663        15.0659 
  33   0.0000       0.606257        16.4971 
  34   0.0000       0.690876        18.7997 
  35   0.0000       0.734231        19.9794 
  36   0.0000       0.777879        21.1672 
  37   0.0000       0.798871        21.7384 
  38   0.0000       0.895296        24.3623 
  39   0.0000       0.924721        25.1629 
  40   0.0000       0.932590        25.3771 
  41   0.0000       1.024870        27.8881 
  42   0.0000       1.045519        28.4500 
  43   0.0000       1.104643        30.0589 
  44   0.0000       1.171516        31.8786 
  45   0.0000       1.341879        36.5144 
  46   0.0000       1.413948        38.4755 
  47   0.0000       1.415692        38.5229 
  48   0.0000       1.478593        40.2346 
  49   0.0000       1.506396        40.9911 
  50   0.0000       1.563507        42.5452 
  51   0.0000       1.605932        43.6996 
  52   0.0000       1.633171        44.4408 
  53   0.0000       1.635976        44.5172 
  54   0.0000       1.692963        46.0679 
  55   0.0000       1.717049        46.7233 
  56   0.0000       1.796711        48.8910 
  57   0.0000       1.838358        50.0243 
  58   0.0000       1.873325        50.9758 
  59   0.0000       1.912022        52.0288 
  60   0.0000       1.985523        54.0288 
  61   0.0000       2.038201        55.4623 
  62   0.0000       2.129300        57.9412 
  63   0.0000       2.217134        60.3313 
  64   0.0000       2.319267        63.1105 
  65   0.0000       2.333683        63.5028 
  66   0.0000       2.372545        64.5602 
  67   0.0000       2.466898        67.1277 
  68   0.0000       2.496023        67.9202 
  69   0.0000       2.522777        68.6482 
  70   0.0000       2.566414        69.8357 
  71   0.0000       2.582709        70.2791 
  72   0.0000       2.638777        71.8048 
  73   0.0000       2.672996        72.7359 
  74   0.0000       2.748714        74.7963 
  75   0.0000       2.771683        75.4213 
  76   0.0000       2.853590        77.6501 
  77   0.0000       2.973260        80.9065 
  78   0.0000       2.988516        81.3217 
  79   0.0000       2.994299        81.4790 
  80   0.0000       3.037655        82.6588 
  81   0.0000       3.076676        83.7206 
  82   0.0000       3.102772        84.4307 
  83   0.0000       3.107847        84.5688 
  84   0.0000       3.196547        86.9825 
  85   0.0000       3.287604        89.4603 
  86   0.0000       3.317434        90.2720 
  87   0.0000       3.371429        91.7412 
  88   0.0000       3.383255        92.0630 
  89   0.0000       3.416525        92.9684 
  90   0.0000       3.465569        94.3029 
  91   0.0000       3.632739        98.8518 
  92   0.0000       3.698892       100.6520 
  93   0.0000       3.839570       104.4800 
  94   0.0000       3.948757       107.4512 
  95   0.0000       4.059751       110.4714 
  96   0.0000       4.181934       113.7962 
  97   0.0000       4.318565       117.5141 
  98   0.0000       4.379245       119.1653 
  99   0.0000       4.563089       124.1680 
 100   0.0000       4.605921       125.3335 
 101   0.0000       4.686594       127.5287 
 102   0.0000       5.198393       141.4555 
 103   0.0000       5.244818       142.7187 
 104   0.0000       5.372972       146.2060 
 105   0.0000       5.379490       146.3834 
 106   0.0000       5.659503       154.0029 
 107   0.0000       5.702551       155.1743 
 108   0.0000       5.908076       160.7669 
 109   0.0000       6.354845       172.9241 
 110   0.0000       6.379629       173.5985 
 111   0.0000       6.733844       183.2372 
 112   0.0000       6.756910       183.8649 
 113   0.0000       6.990777       190.2287 
 114   0.0000      21.965162       597.7025 
 115   0.0000      22.415975       609.9697 
 116   0.0000      43.734521      1190.0768 

                    ********************************
                    * MULLIKEN POPULATION ANALYSIS *
                    ********************************

-----------------------
MULLIKEN ATOMIC CHARGES
-----------------------
   0 O :   -0.416942
   1 C :   -0.184542
   2 C :   -0.080240
   3 H :    0.200560
   4 H :    0.151274
   5 H :    0.161882
   6 H :    0.168008
Sum of atomic charges:    0.0000000

--------------------------------
MULLIKEN REDUCED ORBITAL CHARGES
--------------------------------
  0 O s       :     3.915489  s :     3.915489
      pz      :     1.551549  p :     4.478799
      px      :     1.545824
      py      :     1.381426
      dz2     :     0.002654  d :     0.021509
      dxz     :     0.000720
      dyz     :     0.005645
      dx2y2   :     0.005702
      dxy     :     0.006788
      f0      :     0.000114  f :     0.001145
      f+1     :     0.000065
      f-1     :     0.000126
      f+2     :     0.000124
      f-2     :     0.000107
      f+3     :     0.000376
      f-3     :     0.000234
  1 C s       :     3.239515  s :     3.239515
      pz      :     1.072908  p :     2.795015
      px      :     0.892250
      py      :     0.829857
      dz2     :     0.015525  d :     0.140212
      dxz     :     0.027469
      dyz     :     0.025319
      dx2y2   :     0.031157
      dxy     :     0.040742
      f0      :     0.001261  f :     0.009801
      f+1     :     0.001523
      f-1     :     0.000274
      f+2     :     0.001332
      f-2     :     0.000805
      f+3     :     0.001961
      f-3     :     0.002644
  2 C s       :     3.294510  s :     3.294510
      pz      :     1.031612  p :     2.737504
      px      :     1.005496
      py      :     0.700396
      dz2     :     0.005939  d :     0.044423
      dxz     :     0.021688
      dyz     :     0.001874
      dx2y2   :     0.004216
      dxy     :     0.010706
      f0      :     0.000555  f :     0.003803
      f+1     :     0.000988
      f-1     :     0.000122
      f+2     :     0.000599
      f-2     :     0.000088
      f+3     :     0.000488
      f-3     :     0.000965
  3 H s       :     0.767919  s :     0.767919
      pz      :     0.011037  p :     0.031521
      px      :     0.010281
      py      :     0.010203
  4 H s       :     0.823643  s :     0.823643
      pz      :     0.010901  p :     0.025084
      px      :     0.006697
      py      :     0.007486
  5 H s       :     0.816281  s :     0.816281
      pz      :     0.011443  p :     0.021837
      px      :     0.006439
      py      :     0.003955
  6 H s       :     0.810067  s :     0.810067
      pz      :     0.011935  p :     0.021924
      px      :     0.005741
      py      :     0.004249


                     *******************************
                     * LOEWDIN POPULATION ANALYSIS *
                     *******************************

----------------------
LOEWDIN ATOMIC CHARGES
----------------------
   0 O :   -0.153717
   1 C :   -0.416022
   2 C :   -0.013998
   3 H :    0.158945
   4 H :    0.144832
   5 H :    0.134413
   6 H :    0.145547

-------------------------------
LOEWDIN REDUCED ORBITAL CHARGES
-------------------------------
  0 O s       :     3.615312  s :     3.615312
      pz      :     1.505640  p :     4.482987
      px      :     1.522460
      py      :     1.454888
      dz2     :     0.005903  d :     0.052347
      dxz     :     0.001865
      dyz     :     0.014440
      dx2y2   :     0.016121
      dxy     :     0.014019
      f0      :     0.000371  f :     0.003070
      f+1     :     0.000134
      f-1     :     0.000345
      f+2     :     0.000328
      f-2     :     0.000312
      f+3     :     0.000796
      f-3     :     0.000783
  1 C s       :     2.838563  s :     2.838563
      pz      :     1.044869  p :     2.989234
      px      :     1.038639
      py      :     0.905725
      dz2     :     0.080185  d :     0.526195
      dxz     :     0.106440
      dyz     :     0.062051
      dx2y2   :     0.136165
      dxy     :     0.141354
      f0      :     0.007629  f :     0.062030
      f+1     :     0.007823
      f-1     :     0.004701
      f+2     :     0.007034
      f-2     :     0.004563
      f+3     :     0.016657
      f-3     :     0.013624
  2 C s       :     2.949336  s :     2.949336
      pz      :     1.064489  p :     2.839940
      px      :     1.123201
      py      :     0.652250
      dz2     :     0.030654  d :     0.203616
      dxz     :     0.099255
      dyz     :     0.006027
      dx2y2   :     0.031840
      dxy     :     0.035840
      f0      :     0.003879  f :     0.021106
      f+1     :     0.003106
      f-1     :     0.000924
      f+2     :     0.003567
      f-2     :     0.001232
      f+3     :     0.003750
      f-3     :     0.004649
  3 H s       :     0.749225  s :     0.749225
      pz      :     0.034288  p :     0.091830
      px      :     0.028533
      py      :     0.029009
  4 H s       :     0.787358  s :     0.787358
      pz      :     0.030815  p :     0.067811
      px      :     0.017065
      py      :     0.019931
  5 H s       :     0.802145  s :     0.802145
      pz      :     0.033778  p :     0.063442
      px      :     0.017911
      py      :     0.011753
  6 H s       :     0.792356  s :     0.792356
      pz      :     0.034703  p :     0.062097
      px      :     0.015600
      py      :     0.011795


                      *****************************
                      * MAYER POPULATION ANALYSIS *
                      *****************************

  NA   - Mulliken gross atomic population
  ZA   - Total nuclear charge
  QA   - Mulliken gross atomic charge
  VA   - Mayer's total valence
  BVA  - Mayer's bonded valence
  FA   - Mayer's free valence

  ATOM       NA         ZA         QA         VA         BVA        FA
  0 O      8.4169     8.0000    -0.4169     1.6084     1.6084    -0.0000
  1 C      6.1845     6.0000    -0.1845     4.0124     4.0124     0.0000
  2 C      6.0802     6.0000    -0.0802     3.6854     3.6854     0.0000
  3 H      0.7994     1.0000     0.2006     1.0113     1.0113    -0.0000
  4 H      0.8487     1.0000     0.1513     0.9869     0.9869     0.0000
  5 H      0.8381     1.0000     0.1619     0.9713     0.9713     0.0000
  6 H      0.8320     1.0000     0.1680     0.9635     0.9635     0.0000

  Mayer bond orders larger than 0.100000
B(  0-O ,  1-C ) :   0.9286 B(  0-O ,  2-C ) :   0.5886 B(  1-C ,  2-C ) :   1.1976 
B(  1-C ,  3-H ) :   0.8843 B(  1-C ,  4-H ) :   0.9859 B(  2-C ,  5-H ) :   0.9472 
B(  2-C ,  6-H ) :   0.9349 

-------
TIMINGS
-------

Total SCF time: 0 days 0 hours 0 min 5 sec 

Total time                  ....       5.449 sec
Sum of individual times     ....       5.122 sec  ( 94.0%)

Fock matrix formation       ....       4.791 sec  ( 87.9%)
  Split-RI-J                ....       0.460 sec  (  9.6% of F)
  Chain of spheres X        ....       3.254 sec  ( 67.9% of F)
  XC integration            ....       0.978 sec  ( 20.4% of F)
    Basis function eval.    ....       0.270 sec  ( 27.6% of XC)
    Density eval.           ....       0.199 sec  ( 20.3% of XC)
    XC-Functional eval.     ....       0.058 sec  (  5.9% of XC)
    XC-Potential eval.      ....       0.338 sec  ( 34.6% of XC)
Diagonalization             ....       0.038 sec  (  0.7%)
Density matrix formation    ....       0.003 sec  (  0.1%)
Population analysis         ....       0.003 sec  (  0.1%)
Initial guess               ....       0.016 sec  (  0.3%)
Orbital Transformation      ....       0.000 sec  (  0.0%)
Orbital Orthonormalization  ....       0.000 sec  (  0.0%)
DIIS solution               ....       0.035 sec  (  0.6%)
SOSCF solution              ....       0.030 sec  (  0.5%)
Grid generation             ....       0.205 sec  (  3.8%)

Maximum memory used throughout the entire SCF-calculation: 61.0 MB


-------------------------------------------------------------------------------
                          DFT DISPERSION CORRECTION                            
                                                                               
                              DFTD3 V3.1  Rev 1                                
                          USING Becke-Johnson damping                          
-------------------------------------------------------------------------------
The PBE0 functional is recognized
Active option DFTDOPT                   ...         4   

molecular C6(AA) [au] = 394.957946 


            DFT-D V3
 parameters
 s6 scaling factor         :     1.0000 
 a1 scaling factor         :     0.4145 
 s8 scaling factor         :     1.2177 
 a2 scaling factor         :     4.8593 
 ad hoc parameters k1-k3   :    16.0000     1.3333    -4.0000 

 Edisp/kcal,au: -1.628916436265  -0.002595843298 
 E6   /kcal   :  -1.062789384 
 E8   /kcal   :  -0.566127052 
 % E8         :  34.754824728 

-------------------------   ----------------
Dispersion correction           -0.002595843
-------------------------   ----------------


-------------------------   --------------------
FINAL SINGLE POINT ENERGY      -153.464883294241
-------------------------   --------------------



           ************************************************************
           *        Program running with 8 parallel MPI-processes     *
           *              working on a common directory               *
           ************************************************************
------------------------------------------------------------------------------
                         ORCA SCF GRADIENT CALCULATION
------------------------------------------------------------------------------

 ... reading COSX grid (gridx3)
Gradient of the Kohn-Sham DFT energy:
Kohn-Sham wavefunction type      ... RKS
Hartree-Fock exchange scaling    ...    0.250
Number of operators              ...    1
Number of atoms                  ...    7
Basis set dimensions             ...  117
Integral neglect threshold       ... 2.5e-11
Integral primitive cutoff        ... 2.5e-12
SHARK Integral package           ... ON

Nuc. rep. gradient       (SHARK) ... done (  0.0 sec)
HCore & Overlap gradient (SHARK) ... done (  0.0 sec)
RI-J gradient            (SHARK) ... done (  0.1 sec)
COSX-gradient                    ... done (  0.4 sec)
Exchange-correlation gradient    ... done
Dispersion correction            ... done

------------------
CARTESIAN GRADIENT
------------------

   1   O   :   -0.021750919   -0.048419633   -0.028853302
   2   C   :   -0.027664096   -0.052355170    0.108892190
   3   C   :    0.038763008    0.041552925   -0.022851434
   4   H   :    0.022415794    0.042232580   -0.062161176
   5   H   :   -0.014475890    0.051469435   -0.000387614
   6   H   :    0.001800804   -0.007792391   -0.014884478
   7   H   :    0.000829884   -0.026787123    0.020305765

Difference to translation invariance:
           :   -0.0000814156   -0.0000993776    0.0000599496

Difference to rotation invariance:
           :    0.0000302195    0.0000257192    0.0009415385

Norm of the cartesian gradient     ...    0.1821820669
RMS gradient                       ...    0.0397553863
MAX gradient                       ...    0.1088921900

-------
TIMINGS
-------

Total SCF gradient time            ...        0.800 sec

One electron gradient       ....       0.010 sec  (  1.3%)
RI-J Coulomb gradient       ....       0.084 sec  ( 10.5%)
COSX gradient               ....       0.371 sec  ( 46.4%)
XC gradient                 ....       0.185 sec  ( 23.1%)

Maximum memory used throughout the entire SCFGRAD-calculation: 35.8 MB

                            ***************************************
                            *     ORCA property calculations      *
                            ***************************************

                                    ---------------------
                                    Active property flags
                                    ---------------------
   (+) Dipole Moment


------------------------------------------------------------------------------
                       ORCA ELECTRIC PROPERTIES CALCULATION
------------------------------------------------------------------------------

Dipole Moment Calculation                       ... on
Quadrupole Moment Calculation                   ... off
Polarizability Calculation                      ... off
GBWName                                         ... ox_gs_G_orca0009.gbw
Electron density                                ... ox_gs_G_orca0009.scfp
The origin for moment calculation is the CENTER OF MASS  = (-0.876998, -0.099505  0.042802)

-------------
DIPOLE MOMENT
-------------
                                X             Y             Z
Electronic contribution:     -0.77737       1.16578       0.04298
Nuclear contribution   :      1.84705      -2.21353      -0.10470
                        -----------------------------------------
Total Dipole Moment    :      1.06968      -1.04775      -0.06172
                        -----------------------------------------
Magnitude (a.u.)       :      1.49860
Magnitude (Debye)      :      3.80915



--------------------
Rotational spectrum 
--------------------
 
Rotational constants in cm-1:     1.527435     0.321814     0.299090 
Rotational constants in MHz : 45791.342828  9647.746361  8966.498032 

 Dipole components along the rotational axes: 
x,y,z [a.u.] :     1.438609    -0.419502     0.015398 
x,y,z [Debye]:     3.656653    -1.066289     0.039139 

 

Timings for individual modules:

Sum of individual times         ...        6.941 sec (=   0.116 min)
GTO integral calculation        ...        0.303 sec (=   0.005 min)   4.4 %
SCF iterations                  ...        5.634 sec (=   0.094 min)  81.2 %
SCF Gradient evaluation         ...        1.004 sec (=   0.017 min)  14.5 %
                             ****ORCA TERMINATED NORMALLY****
TOTAL RUN TIME: 0 days 0 hours 0 minutes 7 seconds 217 msec
