
                                 *****************
                                 * O   R   C   A *
                                 *****************

                                            #,                                       
                                            ###                                      
                                            ####                                     
                                            #####                                    
                                            ######                                   
                                           ########,                                 
                                     ,,################,,,,,                         
                               ,,#################################,,                 
                          ,,##########################################,,             
                       ,#########################################, ''#####,          
                    ,#############################################,,   '####,        
                  ,##################################################,,,,####,       
                ,###########''''           ''''###############################       
              ,#####''   ,,,,##########,,,,          '''####'''          '####       
            ,##' ,,,,###########################,,,                        '##       
           ' ,,###''''                  '''############,,,                           
         ,,##''                                '''############,,,,        ,,,,,,###''
      ,#''                                            '''#######################'''  
     '                                                          ''''####''''         
             ,#######,   #######,   ,#######,      ##                                
            ,#'     '#,  ##    ##  ,#'     '#,    #''#        ######   ,####,        
            ##       ##  ##   ,#'  ##            #'  '#       #        #'  '#        
            ##       ##  #######   ##           ,######,      #####,   #    #        
            '#,     ,#'  ##    ##  '#,     ,#' ,#      #,         ##   #,  ,#        
             '#######'   ##     ##  '#######'  #'      '#     #####' # '####'        



                  #######################################################
                  #                        -***-                        #
                  #          Department of theory and spectroscopy      #
                  #    Directorship and core code : Frank Neese         #
                  #        Max Planck Institute fuer Kohlenforschung    #
                  #                Kaiser Wilhelm Platz 1               #
                  #                 D-45470 Muelheim/Ruhr               #
                  #                      Germany                        #
                  #                                                     #
                  #                  All rights reserved                #
                  #                        -***-                        #
                  #######################################################


                         Program Version 5.0.2 -  RELEASE  -


 With contributions from (in alphabetic order):
   Daniel Aravena         : Magnetic Suceptibility
   Michael Atanasov       : Ab Initio Ligand Field Theory (pilot matlab implementation)
   Alexander A. Auer      : GIAO ZORA, VPT2 properties, NMR spectrum
   Ute Becker             : Parallelization
   Giovanni Bistoni       : ED, misc. LED, open-shell LED, HFLD
   Martin Brehm           : Molecular dynamics
   Dmytro Bykov           : SCF Hessian
   Vijay G. Chilkuri      : MRCI spin determinant printing, contributions to CSF-ICE
   Dipayan Datta          : RHF DLPNO-CCSD density
   Achintya Kumar Dutta   : EOM-CC, STEOM-CC
   Dmitry Ganyushin       : Spin-Orbit,Spin-Spin,Magnetic field MRCI
   Miquel Garcia          : C-PCM and meta-GGA Hessian, CC/C-PCM, Gaussian charge scheme
   Yang Guo               : DLPNO-NEVPT2, F12-NEVPT2, CIM, IAO-localization
   Andreas Hansen         : Spin unrestricted coupled pair/coupled cluster methods
   Benjamin Helmich-Paris : MC-RPA, TRAH-SCF, COSX integrals
   Lee Huntington         : MR-EOM, pCC
   Robert Izsak           : Overlap fitted RIJCOSX, COSX-SCS-MP3, EOM
   Marcus Kettner         : VPT2
   Christian Kollmar      : KDIIS, OOCD, Brueckner-CCSD(T), CCSD density, CASPT2, CASPT2-K
   Simone Kossmann        : Meta GGA functionals, TD-DFT gradient, OOMP2, MP2 Hessian
   Martin Krupicka        : Initial AUTO-CI
   Lucas Lang             : DCDCAS
   Marvin Lechner         : AUTO-CI (C++ implementation), FIC-MRCC
   Dagmar Lenk            : GEPOL surface, SMD
   Dimitrios Liakos       : Extrapolation schemes; Compound Job, initial MDCI parallelization
   Dimitrios Manganas     : Further ROCIS development; embedding schemes
   Dimitrios Pantazis     : SARC Basis sets
   Anastasios Papadopoulos: AUTO-CI, single reference methods and gradients
   Taras Petrenko         : DFT Hessian,TD-DFT gradient, ASA, ECA, R-Raman, ABS, FL, XAS/XES, NRVS
   Peter Pinski           : DLPNO-MP2, DLPNO-MP2 Gradient
   Christoph Reimann      : Effective Core Potentials
   Marius Retegan         : Local ZFS, SOC
   Christoph Riplinger    : Optimizer, TS searches, QM/MM, DLPNO-CCSD(T), (RO)-DLPNO pert. Triples
   Tobias Risthaus        : Range-separated hybrids, TD-DFT gradient, RPA, STAB
   Michael Roemelt        : Original ROCIS implementation
   Masaaki Saitow         : Open-shell DLPNO-CCSD energy and density
   Barbara Sandhoefer     : DKH picture change effects
   Avijit Sen             : IP-ROCIS
   Kantharuban Sivalingam : CASSCF convergence, NEVPT2, FIC-MRCI
   Bernardo de Souza      : ESD, SOC TD-DFT
   Georgi Stoychev        : AutoAux, RI-MP2 NMR, DLPNO-MP2 response
   Willem Van den Heuvel  : Paramagnetic NMR
   Boris Wezisla          : Elementary symmetry handling
   Frank Wennmohs         : Technical directorship


 We gratefully acknowledge several colleagues who have allowed us to
 interface, adapt or use parts of their codes:
   Stefan Grimme, W. Hujo, H. Kruse, P. Pracht,  : VdW corrections, initial TS optimization,
                  C. Bannwarth, S. Ehlert          DFT functionals, gCP, sTDA/sTD-DF
   Ed Valeev, F. Pavosevic, A. Kumar             : LibInt (2-el integral package), F12 methods
   Garnet Chan, S. Sharma, J. Yang, R. Olivares  : DMRG
   Ulf Ekstrom                                   : XCFun DFT Library
   Mihaly Kallay                                 : mrcc  (arbitrary order and MRCC methods)
   Jiri Pittner, Ondrej Demel                    : Mk-CCSD
   Frank Weinhold                                : gennbo (NPA and NBO analysis)
   Christopher J. Cramer and Donald G. Truhlar   : smd solvation model
   Lars Goerigk                                  : TD-DFT with DH, B97 family of functionals
   V. Asgeirsson, H. Jonsson                     : NEB implementation
   FAccTs GmbH                                   : IRC, NEB, NEB-TS, DLPNO-Multilevel, CI-OPT
                                                   MM, QMMM, 2- and 3-layer-ONIOM, Crystal-QMMM,
                                                   LR-CPCM, SF, NACMEs, symmetry and pop. for TD-DFT,
                                                   nearIR, NL-DFT gradient (VV10), updates on ESD,
                                                   ML-optimized integration grids
   S Lehtola, MJT Oliveira, MAL Marques          : LibXC Library
   Liviu Ungur et al                             : ANISO software


 Your calculation uses the libint2 library for the computation of 2-el integrals
 For citations please refer to: http://libint.valeyev.net

 Your ORCA version has been built with support for libXC version: 5.1.0
 For citations please refer to: https://tddft.org/programs/libxc/

 This ORCA versions uses:
   CBLAS   interface :  Fast vector & matrix operations
   LAPACKE interface :  Fast linear algebra routines
   SCALAPACK package :  Parallel linear algebra routines
   Shared memory     :  Shared parallel matrices
   BLAS/LAPACK       :  OpenBLAS 0.3.15  USE64BITINT DYNAMIC_ARCH NO_AFFINITY SkylakeX SINGLE_THREADED
        Core in use  :  SkylakeX
   Copyright (c) 2011-2014, The OpenBLAS Project


Your calculation utilizes the atom-pairwise dispersion correction
with the Becke-Johnson damping scheme (D3BJ)
Cite in your paper:
S.Grimme, S.Ehrlich, L.Goerigk, J Comput Chem, (2011), 32, 1456–1465 
S.Grimme, J.Antony, S.Ehrlich and H.Krieg, J.Chem.Phys., 132, (2010), 154104 
   

================================================================================

----- Orbital basis set information -----
Your calculation utilizes the basis: def2-TZVP
   F. Weigend and R. Ahlrichs, Phys. Chem. Chem. Phys. 7, 3297 (2005).

----- AuxJ basis set information -----
Your calculation utilizes the auxiliary basis: def2/J
   F. Weigend, Phys. Chem. Chem. Phys. 8, 1057 (2006).

================================================================================
                                        WARNINGS
                       Please study these warnings very carefully!
================================================================================


INFO   : the flag for use of the SHARK integral package has been found!

================================================================================
                                       INPUT FILE
================================================================================
NAME = ox_gs_F_orca0006.inp
|  1> ! engrad PBE0 D3BJ def2-TZVP  
|  2> %pal nprocs 8 end
|  3> %maxcore 3000
|  4>  
|  5> *xyz 0 1 
|  6> O   -1.2537215140520301 0.829301845206476 -0.10355990492578247
|  7> C   -0.7056860554229157 -0.4713404610971533 0.06320292212676291
|  8> C   0.8077810760275792 -0.46981584308042396 -0.03587803631722671
|  9> H   -1.3184674262929554 -0.5973510734554509 0.9777661798910892
| 10> H   -1.2336915510950075 -0.7088353911426649 -0.8850053119145082
| 11> H   1.1662799866458575 -0.670925894940032 -0.9232684601387999
| 12> H   1.1697166246113067 -0.5422090876172683 0.9186954599943132
| 13> *
| 14> 
| 15>                          ****END OF INPUT****
================================================================================

                     *******************************
                     * Energy+Gradient Calculation *
                     *******************************

---------------------------------
CARTESIAN COORDINATES (ANGSTROEM)
---------------------------------
  O     -1.253722    0.829302   -0.103560
  C     -0.705686   -0.471340    0.063203
  C      0.807781   -0.469816   -0.035878
  H     -1.318467   -0.597351    0.977766
  H     -1.233692   -0.708835   -0.885005
  H      1.166280   -0.670926   -0.923268
  H      1.169717   -0.542209    0.918695

----------------------------
CARTESIAN COORDINATES (A.U.)
----------------------------
  NO LB      ZA    FRAG     MASS         X           Y           Z
   0 O     8.0000    0    15.999   -2.369190    1.567153   -0.195700
   1 C     6.0000    0    12.011   -1.333553   -0.890704    0.119436
   2 C     6.0000    0    12.011    1.526485   -0.887823   -0.067800
   3 H     1.0000    0     1.008   -2.491542   -1.128830    1.847710
   4 H     1.0000    0     1.008   -2.331339   -1.339505   -1.672418
   5 H     1.0000    0     1.008    2.203950   -1.267866   -1.744725
   6 H     1.0000    0     1.008    2.210444   -1.024627    1.736083

--------------------------------
INTERNAL COORDINATES (ANGSTROEM)
--------------------------------
 O      0   0   0     0.000000000000     0.00000000     0.00000000
 C      1   0   0     1.421204810486     0.00000000     0.00000000
 C      2   1   0     1.516707657648   112.09875507     0.00000000
 H      2   1   3     1.108063913032    89.29356431   130.46267592
 H      2   1   3     1.110987173806    84.96423040   245.29962868
 H      3   2   1     0.977971618281   115.14178573   265.67552423
 H      3   2   1     1.023449404242   106.97091000   103.09211207

---------------------------
INTERNAL COORDINATES (A.U.)
---------------------------
 O      0   0   0     0.000000000000     0.00000000     0.00000000
 C      1   0   0     2.685687872030     0.00000000     0.00000000
 C      2   1   0     2.866162098175   112.09875507     0.00000000
 H      2   1   3     2.093937334512    89.29356431   130.46267592
 H      2   1   3     2.099461496792    84.96423040   245.29962868
 H      3   2   1     1.848098525299   115.14178573   265.67552423
 H      3   2   1     1.934039085943   106.97091000   103.09211207

---------------------
BASIS SET INFORMATION
---------------------
There are 3 groups of distinct atoms

 Group   1 Type O   : 11s6p2d1f contracted to 5s3p2d1f pattern {62111/411/11/1}
 Group   2 Type C   : 11s6p2d1f contracted to 5s3p2d1f pattern {62111/411/11/1}
 Group   3 Type H   : 5s1p contracted to 3s1p pattern {311/1}

Atom   0O    basis set group =>   1
Atom   1C    basis set group =>   2
Atom   2C    basis set group =>   2
Atom   3H    basis set group =>   3
Atom   4H    basis set group =>   3
Atom   5H    basis set group =>   3
Atom   6H    basis set group =>   3
---------------------------------
AUXILIARY/J BASIS SET INFORMATION
---------------------------------
There are 3 groups of distinct atoms

 Group   1 Type O   : 12s5p4d2f1g contracted to 6s4p3d1f1g pattern {711111/2111/211/2/1}
 Group   2 Type C   : 12s5p4d2f1g contracted to 6s4p3d1f1g pattern {711111/2111/211/2/1}
 Group   3 Type H   : 5s2p1d contracted to 3s1p1d pattern {311/2/1}

Atom   0O    basis set group =>   1
Atom   1C    basis set group =>   2
Atom   2C    basis set group =>   2
Atom   3H    basis set group =>   3
Atom   4H    basis set group =>   3
Atom   5H    basis set group =>   3
Atom   6H    basis set group =>   3


           ************************************************************
           *        Program running with 8 parallel MPI-processes     *
           *              working on a common directory               *
           ************************************************************
------------------------------------------------------------------------------
                           ORCA GTO INTEGRAL CALCULATION
                           -- RI-GTO INTEGRALS CHOSEN --
------------------------------------------------------------------------------
------------------------------------------------------------------------------
                   ___                                                        
                  /   \      - P O W E R E D   B Y -                         
                 /     \                                                     
                 |  |  |   _    _      __       _____    __    __             
                 |  |  |  | |  | |    /  \     |  _  \  |  |  /  |          
                  \  \/   | |  | |   /    \    | | | |  |  | /  /          
                 / \  \   | |__| |  /  /\  \   | |_| |  |  |/  /          
                |  |  |   |  __  | /  /__\  \  |    /   |      \           
                |  |  |   | |  | | |   __   |  |    \   |  |\   \          
                \     /   | |  | | |  |  |  |  | |\  \  |  | \   \       
                 \___/    |_|  |_| |__|  |__|  |_| \__\ |__|  \__/        
                                                                              
                      - O R C A' S   B I G   F R I E N D -                    
                                      &                                       
                       - I N T E G R A L  F E E D E R -                       
                                                                              
 v1 FN, 2020, v2 2021                                                         
------------------------------------------------------------------------------


Reading SHARK input file ox_gs_F_orca0006.SHARKINP.tmp ... ok
----------------------
SHARK INTEGRAL PACKAGE
----------------------

Number of atoms                             ...      7
Number of basis functions                   ...    117
Number of shells                            ...     49
Maximum angular momentum                    ...      3
Integral batch strategy                     ... SHARK/LIBINT Hybrid
RI-J (if used) integral strategy            ... SPLIT-RIJ (Revised 2003 algorithm where possible)
Printlevel                                  ...      1
Contraction scheme used                     ... SEGMENTED contraction
Coulomb Range Separation                    ... NOT USED
Exchange Range Separation                   ... NOT USED
Finite Nucleus Model                        ... NOT USED
Auxiliary Coulomb fitting basis             ... AVAILABLE
   # of basis functions in Aux-J            ...    191
   # of shells in Aux-J                     ...     65
   Maximum angular momentum in Aux-J        ...      4
Auxiliary J/K fitting basis                 ... NOT available
Auxiliary Correlation fitting basis         ... NOT available
Auxiliary 'external' fitting basis          ... NOT available
Integral threshold                          ...     2.500000e-11
Primitive cut-off                           ...     2.500000e-12
Primitive pair pre-selection threshold      ...     2.500000e-12

Calculating pre-screening integrals         ... done (  0.0 sec) Dimension = 49
Organizing shell pair data                  ... done (  0.0 sec)
Shell pair information
Total number of shell pairs                 ...      1225
Shell pairs after pre-screening             ...      1212
Total number of primitive shell pairs       ...      3648
Primitive shell pairs kept                  ...      3076
          la=0 lb=0:    367 shell pairs
          la=1 lb=0:    350 shell pairs
          la=1 lb=1:     91 shell pairs
          la=2 lb=0:    161 shell pairs
          la=2 lb=1:     78 shell pairs
          la=2 lb=2:     21 shell pairs
          la=3 lb=0:     81 shell pairs
          la=3 lb=1:     39 shell pairs
          la=3 lb=2:     18 shell pairs
          la=3 lb=3:      6 shell pairs

Calculating one electron integrals          ... done (  0.0 sec)
Calculating RI/J V-Matrix + Cholesky decomp.... done (  0.0 sec)
Calculating Nuclear repulsion               ... done (  0.0 sec) ENN=     67.752802900279 Eh

SHARK setup successfully completed in   0.1 seconds

Maximum memory used throughout the entire GTOINT-calculation: 14.9 MB


           ************************************************************
           *        Program running with 8 parallel MPI-processes     *
           *              working on a common directory               *
           ************************************************************
-------------------------------------------------------------------------------
                                 ORCA SCF
-------------------------------------------------------------------------------

------------
SCF SETTINGS
------------
Hamiltonian:
 Density Functional     Method          .... DFT(GTOs)
 Exchange Functional    Exchange        .... PBE
   PBE kappa parameter   XKappa         ....  0.804000
   PBE mue parameter    XMuePBE         ....  0.219520
 Correlation Functional Correlation     .... PBE
   PBE beta parameter  CBetaPBE         ....  0.066725
 LDA part of GGA corr.  LDAOpt          .... PW91-LDA
 Gradients option       PostSCFGGA      .... off
 Hybrid DFT is turned on
   Fraction HF Exchange ScalHFX         ....  0.250000
   Scaling of DF-GGA-X  ScalDFX         ....  0.750000
   Scaling of DF-GGA-C  ScalDFC         ....  1.000000
   Scaling of DF-LDA-C  ScalLDAC        ....  1.000000
   Perturbative correction              ....  0.000000
   Density functional embedding theory  .... OFF
   NL short-range parameter             ....  6.900000
 RI-approximation to the Coulomb term is turned on
   Number of AuxJ basis functions       .... 191
   RIJ-COSX (HFX calculated with COS-X)).... on


General Settings:
 Integral files         IntName         .... ox_gs_F_orca0006
 Hartree-Fock type      HFTyp           .... RHF
 Total Charge           Charge          ....    0
 Multiplicity           Mult            ....    1
 Number of Electrons    NEL             ....   24
 Basis Dimension        Dim             ....  117
 Nuclear Repulsion      ENuc            ....     67.7528029003 Eh

Convergence Acceleration:
 DIIS                   CNVDIIS         .... on
   Start iteration      DIISMaxIt       ....    12
   Startup error        DIISStart       ....  0.200000
   # of expansion vecs  DIISMaxEq       ....     5
   Bias factor          DIISBfac        ....   1.050
   Max. coefficient     DIISMaxC        ....  10.000
 Trust-Rad. Augm. Hess. CNVTRAH         .... auto
   Auto Start mean grad. ratio tolernc. ....  1.125000
   Auto Start start iteration           ....    20
   Auto Start num. interpolation iter.  ....    10
   Max. Number of Micro iterations      ....    16
   Max. Number of Macro iterations      .... Maxiter - #DIIS iter
   Number of Davidson start vectors     ....     2
   Converg. threshold I  (grad. norm)   ....   1.000e-05
   Converg. threshold II (energy diff.) ....   1.000e-08
   Grad. Scal. Fac. for Micro threshold ....   0.100
   Minimum threshold for Micro iter.    ....   0.010
   NR start threshold (gradient norm)   ....   0.001
   Initial trust radius                 ....   0.400
   Minimum AH scaling param. (alpha)    ....   1.000
   Maximum AH scaling param. (alpha)    .... 1000.000
   Orbital update algorithm             .... Taylor
   White noise on init. David. guess    .... on
   Maximum white noise                  ....   0.010
   Quad. conv. algorithm                .... NR
 SOSCF                  CNVSOSCF        .... on
   Start iteration      SOSCFMaxIt      ....   150
   Startup grad/error   SOSCFStart      ....  0.003300
 Level Shifting         CNVShift        .... on
   Level shift para.    LevelShift      ....    0.2500
   Turn off err/grad.   ShiftErr        ....    0.0010
 Zerner damping         CNVZerner       .... off
 Static damping         CNVDamp         .... on
   Fraction old density DampFac         ....    0.7000
   Max. Damping (<1)    DampMax         ....    0.9800
   Min. Damping (>=0)   DampMin         ....    0.0000
   Turn off err/grad.   DampErr         ....    0.1000
 Fernandez-Rico         CNVRico         .... off

SCF Procedure:
 Maximum # iterations   MaxIter         ....   125
 SCF integral mode      SCFMode         .... Direct
   Integral package                     .... SHARK and LIBINT hybrid scheme
 Reset frequency        DirectResetFreq ....    20
 Integral Threshold     Thresh          ....  2.500e-11 Eh
 Primitive CutOff       TCut            ....  2.500e-12 Eh

Convergence Tolerance:
 Convergence Check Mode ConvCheckMode   .... Total+1el-Energy
 Convergence forced     ConvForced      .... 0
 Energy Change          TolE            ....  1.000e-08 Eh
 1-El. energy change                    ....  1.000e-05 Eh
 Orbital Gradient       TolG            ....  1.000e-05
 Orbital Rotation angle TolX            ....  1.000e-05
 DIIS Error             TolErr          ....  5.000e-07


Diagonalization of the overlap matrix:
Smallest eigenvalue                        ... 6.750e-04
Time for diagonalization                   ...    0.001 sec
Threshold for overlap eigenvalues          ... 1.000e-08
Number of eigenvalues below threshold      ... 0
Time for construction of square roots      ...    0.002 sec
Total time needed                          ...    0.003 sec

Time for model grid setup =    0.019 sec

------------------------------
INITIAL GUESS: MODEL POTENTIAL
------------------------------
Loading Hartree-Fock densities                     ... done
Calculating cut-offs                               ... done
Initializing the effective Hamiltonian             ... done
Setting up the integral package (SHARK)            ... done
Starting the Coulomb interaction                   ... done (   0.0 sec)
Reading the grid                                   ... done
Mapping shells                                     ... done
Starting the XC term evaluation                    ... done (   0.0 sec)
  promolecular density results
     # of electrons  =     23.997661837
     EX              =    -19.469725376
     EC              =     -0.766517190
     EX+EC           =    -20.236242565
Transforming the Hamiltonian                       ... done (   0.0 sec)
Diagonalizing the Hamiltonian                      ... done (   0.0 sec)
Back transforming the eigenvectors                 ... done (   0.0 sec)
Now organizing SCF variables                       ... done
                      ------------------
                      INITIAL GUESS DONE (   0.0 sec)
                      ------------------
-------------------
DFT GRID GENERATION
-------------------

General Integration Accuracy     IntAcc      ... 4.388
Radial Grid Type                 RadialGrid  ... OptM3 with GC (2021)
Angular Grid (max. ang.)         AngularGrid ... 4 (Lebedev-302)
Angular grid pruning method      GridPruning ... 4 (adaptive)
Weight generation scheme         WeightScheme... Becke
Basis function cutoff            BFCut       ... 1.0000e-11
Integration weight cutoff        WCut        ... 1.0000e-14
Angular grids for H and He will be reduced by one unit
Partially contracted basis set               ... off
Rotationally invariant grid construction     ... off

Total number of grid points                  ...    31333
Total number of batches                      ...      492
Average number of points per batch           ...       63
Average number of grid points per atom       ...     4476
Time for grid setup =    0.113 sec

--------------------
COSX GRID GENERATION
--------------------

GRIDX 1
-------
General Integration Accuracy     IntAcc      ... 3.816
Radial Grid Type                 RadialGrid  ... OptM3 with GC (2021)
Angular Grid (max. ang.)         AngularGrid ... 1 (Lebedev-50)
Angular grid pruning method      GridPruning ... 4 (adaptive)
Weight generation scheme         WeightScheme... Becke
Basis function cutoff            BFCut       ... 1.0000e-11
Integration weight cutoff        WCut        ... 1.0000e-14
Angular grids for H and He will be reduced by one unit
Partially contracted basis set               ... on
Rotationally invariant grid construction     ... off

Total number of grid points                  ...     4040
Total number of batches                      ...       67
Average number of points per batch           ...       60
Average number of grid points per atom       ...      577
UseSFitting                                  ... on

GRIDX 2
-------
General Integration Accuracy     IntAcc      ... 4.020
Radial Grid Type                 RadialGrid  ... OptM3 with GC (2021)
Angular Grid (max. ang.)         AngularGrid ... 2 (Lebedev-110)
Angular grid pruning method      GridPruning ... 4 (adaptive)
Weight generation scheme         WeightScheme... Becke
Basis function cutoff            BFCut       ... 1.0000e-11
Integration weight cutoff        WCut        ... 1.0000e-14
Angular grids for H and He will be reduced by one unit
Partially contracted basis set               ... on
Rotationally invariant grid construction     ... off

Total number of grid points                  ...     8729
Total number of batches                      ...      138
Average number of points per batch           ...       63
Average number of grid points per atom       ...     1247
UseSFitting                                  ... on

GRIDX 3
-------
General Integration Accuracy     IntAcc      ... 4.338
Radial Grid Type                 RadialGrid  ... OptM3 with GC (2021)
Angular Grid (max. ang.)         AngularGrid ... 3 (Lebedev-194)
Angular grid pruning method      GridPruning ... 4 (adaptive)
Weight generation scheme         WeightScheme... Becke
Basis function cutoff            BFCut       ... 1.0000e-11
Integration weight cutoff        WCut        ... 1.0000e-14
Angular grids for H and He will be reduced by one unit
Partially contracted basis set               ... on
Rotationally invariant grid construction     ... off

Total number of grid points                  ...    19278
Total number of batches                      ...      304
Average number of points per batch           ...       63
Average number of grid points per atom       ...     2754
UseSFitting                                  ... on

Time for X-Grid setup             =    0.073 sec

--------------
SCF ITERATIONS
--------------
ITER       Energy         Delta-E        Max-DP      RMS-DP      [F,P]     Damp
               ***  Starting incremental Fock matrix formation  ***
  0   -153.2186851612   0.000000000000 0.13541397  0.00441367  0.3902340 0.7000
  1   -153.3566725712  -0.137987410031 0.06096114  0.00203534  0.0893393 0.7000
                               ***Turning on DIIS***
  2   -153.3479568522   0.008715718956 0.03036828  0.00116475  0.1054846 0.7000
  3   -153.3912409166  -0.043284064417 0.09243075  0.00276640  0.0469249 0.0000
  4   -153.4617736912  -0.070532774511 0.01518232  0.00055993  0.0686917 0.0000
  5   -153.4691968147  -0.007423123529 0.00615961  0.00033772  0.0385627 0.0000
  6   -153.4720587822  -0.002861967507 0.00419636  0.00019298  0.0177411 0.0000
  7   -153.4728226019  -0.000763819666 0.00201887  0.00008516  0.0059904 0.0000
                      *** Initiating the SOSCF procedure ***
                           *** Shutting down DIIS ***
                      *** Re-Reading the Fockian *** 
                      *** Removing any level shift *** 
ITER      Energy       Delta-E        Grad      Rot      Max-DP    RMS-DP
  8   -153.47293043  -0.0001078299  0.001462  0.001462  0.000813  0.000042
               *** Restarting incremental Fock matrix formation ***
  9   -153.47295061  -0.0000201821  0.000906  0.004054  0.001603  0.000061
 10   -153.47294001   0.0000106023  0.001489  0.003834  0.002033  0.000077
 11   -153.47295294  -0.0000129297  0.000505  0.002466  0.001085  0.000051
 12   -153.47295727  -0.0000043247  0.000621  0.000401  0.000524  0.000019
 13   -153.47296130  -0.0000040357  0.000127  0.000652  0.000203  0.000011
 14   -153.47296156  -0.0000002600  0.000031  0.000156  0.000082  0.000003
 15   -153.47296160  -0.0000000367  0.000012  0.000071  0.000034  0.000001
 16   -153.47296160  -0.0000000058  0.000006  0.000075  0.000025  0.000001
 17   -153.47296161  -0.0000000029  0.000005  0.000172  0.000061  0.000002
                 **** Energy Check signals convergence ****
              ***Rediagonalizing the Fockian in SOSCF/NRSCF***

               *****************************************************
               *                     SUCCESS                       *
               *           SCF CONVERGED AFTER  18 CYCLES          *
               *****************************************************

Old exchange energy                            =     -4.958055582 Eh
New exchange energy                            =     -4.958062956 Eh
Exchange energy change after final integration =     -0.000007374 Eh
Total energy after final integration           =   -153.472968984 Eh
Final COS-X integration done in                =     0.243 sec

----------------
TOTAL SCF ENERGY
----------------

Total Energy       :         -153.47296898 Eh           -4176.21180 eV

Components:
Nuclear Repulsion  :           67.75280290 Eh            1843.64750 eV
Electronic Energy  :         -221.22577188 Eh           -6019.85930 eV
One Electron Energy:         -342.25714084 Eh           -9313.29028 eV
Two Electron Energy:          121.03136895 Eh            3293.43098 eV
Max COSX asymmetry :            0.00000136 Eh               0.00004 eV

Virial components:
Potential Energy   :         -306.49122151 Eh           -8340.05014 eV
Kinetic Energy     :          153.01825253 Eh            4163.83834 eV
Virial Ratio       :            2.00297165


DFT components:
N(Alpha)           :       11.999995162477 electrons
N(Beta)            :       11.999995162477 electrons
N(Total)           :       23.999990324954 electrons
E(X)               :      -14.905921948745 Eh       
E(C)               :       -0.771891768899 Eh       
E(XC)              :      -15.677813717644 Eh       
DFET-embed. en.    :        0.000000000000 Eh       

---------------
SCF CONVERGENCE
---------------

  Last Energy change         ...   -3.1972e-09  Tolerance :   1.0000e-08
  Last MAX-Density change    ...    1.1102e-15  Tolerance :   1.0000e-07
  Last RMS-Density change    ...    2.1072e-17  Tolerance :   5.0000e-09
  Last Orbital Gradient      ...    2.7715e-06  Tolerance :   1.0000e-05
  Last Orbital Rotation      ...    4.9135e-05  Tolerance :   1.0000e-05

             **** THE GBW FILE WAS UPDATED (ox_gs_F_orca0006.gbw) ****
             **** DENSITY ox_gs_F_orca0006.scfp WAS UPDATED ****
             **** ENERGY FILE WAS UPDATED (ox_gs_F_orca0006.en.tmp) ****
             **** THE GBW FILE WAS UPDATED (ox_gs_F_orca0006.gbw) ****
             **** DENSITY ox_gs_F_orca0006.scfp WAS UPDATED ****
----------------
ORBITAL ENERGIES
----------------

  NO   OCC          E(Eh)            E(eV) 
   0   2.0000     -19.183107      -521.9989 
   1   2.0000     -10.299136      -280.2537 
   2   2.0000     -10.279297      -279.7139 
   3   2.0000      -0.989227       -26.9182 
   4   2.0000      -0.785839       -21.3838 
   5   2.0000      -0.618521       -16.8308 
   6   2.0000      -0.552752       -15.0411 
   7   2.0000      -0.470082       -12.7916 
   8   2.0000      -0.446618       -12.1531 
   9   2.0000      -0.387937       -10.5563 
  10   2.0000      -0.253414        -6.8957 
  11   2.0000      -0.232734        -6.3330 
  12   0.0000      -0.163936        -4.4609 
  13   0.0000       0.051067         1.3896 
  14   0.0000       0.087709         2.3867 
  15   0.0000       0.090965         2.4753 
  16   0.0000       0.135142         3.6774 
  17   0.0000       0.141275         3.8443 
  18   0.0000       0.163174         4.4402 
  19   0.0000       0.210230         5.7206 
  20   0.0000       0.231840         6.3087 
  21   0.0000       0.251095         6.8326 
  22   0.0000       0.256154         6.9703 
  23   0.0000       0.339266         9.2319 
  24   0.0000       0.349443         9.5088 
  25   0.0000       0.379054        10.3146 
  26   0.0000       0.401995        10.9388 
  27   0.0000       0.431629        11.7452 
  28   0.0000       0.447238        12.1700 
  29   0.0000       0.452152        12.3037 
  30   0.0000       0.517594        14.0844 
  31   0.0000       0.546974        14.8839 
  32   0.0000       0.574629        15.6364 
  33   0.0000       0.595964        16.2170 
  34   0.0000       0.665794        18.1172 
  35   0.0000       0.744745        20.2655 
  36   0.0000       0.789679        21.4883 
  37   0.0000       0.822688        22.3865 
  38   0.0000       0.870498        23.6875 
  39   0.0000       0.907955        24.7067 
  40   0.0000       0.925912        25.1953 
  41   0.0000       1.019489        27.7417 
  42   0.0000       1.042206        28.3599 
  43   0.0000       1.105574        30.0842 
  44   0.0000       1.176034        32.0015 
  45   0.0000       1.329276        36.1714 
  46   0.0000       1.424107        38.7519 
  47   0.0000       1.437805        39.1247 
  48   0.0000       1.474080        40.1117 
  49   0.0000       1.525946        41.5231 
  50   0.0000       1.553752        42.2797 
  51   0.0000       1.589480        43.2519 
  52   0.0000       1.625322        44.2273 
  53   0.0000       1.690187        45.9923 
  54   0.0000       1.730917        47.1006 
  55   0.0000       1.778051        48.3832 
  56   0.0000       1.801453        49.0200 
  57   0.0000       1.868883        50.8549 
  58   0.0000       1.891839        51.4796 
  59   0.0000       1.931553        52.5602 
  60   0.0000       1.981810        53.9278 
  61   0.0000       2.103362        57.2354 
  62   0.0000       2.122268        57.7499 
  63   0.0000       2.254106        61.3373 
  64   0.0000       2.290621        62.3310 
  65   0.0000       2.334393        63.5221 
  66   0.0000       2.393995        65.1439 
  67   0.0000       2.501566        68.0711 
  68   0.0000       2.521502        68.6136 
  69   0.0000       2.536752        69.0285 
  70   0.0000       2.566180        69.8293 
  71   0.0000       2.608982        70.9940 
  72   0.0000       2.654876        72.2428 
  73   0.0000       2.718525        73.9748 
  74   0.0000       2.769569        75.3638 
  75   0.0000       2.792260        75.9812 
  76   0.0000       2.836370        77.1816 
  77   0.0000       2.988613        81.3243 
  78   0.0000       3.020704        82.1975 
  79   0.0000       3.025790        82.3359 
  80   0.0000       3.040339        82.7318 
  81   0.0000       3.069066        83.5135 
  82   0.0000       3.087372        84.0117 
  83   0.0000       3.167519        86.1926 
  84   0.0000       3.227600        87.8275 
  85   0.0000       3.306654        89.9786 
  86   0.0000       3.329349        90.5962 
  87   0.0000       3.387191        92.1702 
  88   0.0000       3.452990        93.9606 
  89   0.0000       3.474414        94.5436 
  90   0.0000       3.552398        96.6657 
  91   0.0000       3.615562        98.3844 
  92   0.0000       3.680573       100.1535 
  93   0.0000       3.876924       105.4965 
  94   0.0000       3.884833       105.7117 
  95   0.0000       3.997418       108.7753 
  96   0.0000       4.102274       111.6286 
  97   0.0000       4.309557       117.2690 
  98   0.0000       4.522790       123.0714 
  99   0.0000       4.577748       124.5669 
 100   0.0000       4.641393       126.2987 
 101   0.0000       4.737003       128.9004 
 102   0.0000       5.198304       141.4530 
 103   0.0000       5.225365       142.1894 
 104   0.0000       5.405793       147.0991 
 105   0.0000       5.428502       147.7170 
 106   0.0000       5.752788       156.5413 
 107   0.0000       5.798748       157.7920 
 108   0.0000       5.944599       161.7608 
 109   0.0000       6.367260       173.2620 
 110   0.0000       6.383220       173.6962 
 111   0.0000       6.797035       184.9567 
 112   0.0000       6.810500       185.3231 
 113   0.0000       6.967610       189.5983 
 114   0.0000      22.183652       603.6479 
 115   0.0000      22.375590       608.8708 
 116   0.0000      43.787286      1191.5126 

                    ********************************
                    * MULLIKEN POPULATION ANALYSIS *
                    ********************************

-----------------------
MULLIKEN ATOMIC CHARGES
-----------------------
   0 O :   -0.398391
   1 C :   -0.153454
   2 C :   -0.102022
   3 H :    0.138080
   4 H :    0.181201
   5 H :    0.177157
   6 H :    0.157428
Sum of atomic charges:   -0.0000000

--------------------------------
MULLIKEN REDUCED ORBITAL CHARGES
--------------------------------
  0 O s       :     3.901210  s :     3.901210
      pz      :     1.561588  p :     4.472023
      px      :     1.524680
      py      :     1.385755
      dz2     :     0.003027  d :     0.023930
      dxz     :     0.000602
      dyz     :     0.006237
      dx2y2   :     0.006995
      dxy     :     0.007068
      f0      :     0.000114  f :     0.001227
      f+1     :     0.000059
      f-1     :     0.000165
      f+2     :     0.000142
      f-2     :     0.000082
      f+3     :     0.000394
      f-3     :     0.000272
  1 C s       :     3.250167  s :     3.250167
      pz      :     1.047951  p :     2.738306
      px      :     0.889478
      py      :     0.800878
      dz2     :     0.016108  d :     0.154763
      dxz     :     0.024209
      dyz     :     0.033197
      dx2y2   :     0.030000
      dxy     :     0.051248
      f0      :     0.001322  f :     0.010217
      f+1     :     0.001508
      f-1     :     0.000500
      f+2     :     0.001467
      f-2     :     0.000804
      f+3     :     0.002378
      f-3     :     0.002238
  2 C s       :     3.268119  s :     3.268119
      pz      :     1.057754  p :     2.788916
      px      :     1.017682
      py      :     0.713480
      dz2     :     0.008394  d :     0.040931
      dxz     :     0.017392
      dyz     :     0.001451
      dx2y2   :     0.004807
      dxy     :     0.008887
      f0      :     0.001060  f :     0.004056
      f+1     :     0.000970
      f-1     :     0.000147
      f+2     :     0.000466
      f-2     :     0.000056
      f+3     :     0.000517
      f-3     :     0.000840
  3 H s       :     0.839083  s :     0.839083
      pz      :     0.009941  p :     0.022837
      px      :     0.007031
      py      :     0.005866
  4 H s       :     0.793976  s :     0.793976
      pz      :     0.010487  p :     0.024823
      px      :     0.006925
      py      :     0.007411
  5 H s       :     0.796645  s :     0.796645
      pz      :     0.012755  p :     0.026198
      px      :     0.007311
      py      :     0.006132
  6 H s       :     0.817338  s :     0.817338
      pz      :     0.013563  p :     0.025234
      px      :     0.006875
      py      :     0.004796


                     *******************************
                     * LOEWDIN POPULATION ANALYSIS *
                     *******************************

----------------------
LOEWDIN ATOMIC CHARGES
----------------------
   0 O :   -0.102332
   1 C :   -0.446440
   2 C :    0.029864
   3 H :    0.132623
   4 H :    0.174637
   5 H :    0.095959
   6 H :    0.115689

-------------------------------
LOEWDIN REDUCED ORBITAL CHARGES
-------------------------------
  0 O s       :     3.572728  s :     3.572728
      pz      :     1.508211  p :     4.467928
      px      :     1.481815
      py      :     1.477902
      dz2     :     0.006473  d :     0.058023
      dxz     :     0.001513
      dyz     :     0.016359
      dx2y2   :     0.018491
      dxy     :     0.015187
      f0      :     0.000412  f :     0.003654
      f+1     :     0.000134
      f-1     :     0.000484
      f+2     :     0.000459
      f-2     :     0.000280
      f+3     :     0.000896
      f-3     :     0.000989
  1 C s       :     2.849953  s :     2.849953
      pz      :     1.026901  p :     2.956716
      px      :     1.018822
      py      :     0.910994
      dz2     :     0.079493  d :     0.572417
      dxz     :     0.097212
      dyz     :     0.084861
      dx2y2   :     0.143250
      dxy     :     0.167602
      f0      :     0.008100  f :     0.067354
      f+1     :     0.007496
      f-1     :     0.006090
      f+2     :     0.008007
      f-2     :     0.005516
      f+3     :     0.018640
      f-3     :     0.013504
  2 C s       :     2.904544  s :     2.904544
      pz      :     1.083239  p :     2.862314
      px      :     1.123623
      py      :     0.655452
      dz2     :     0.038715  d :     0.182045
      dxz     :     0.076477
      dyz     :     0.004208
      dx2y2   :     0.033619
      dxy     :     0.029025
      f0      :     0.005674  f :     0.021233
      f+1     :     0.003566
      f-1     :     0.000933
      f+2     :     0.003108
      f-2     :     0.000505
      f+3     :     0.003565
      f-3     :     0.003881
  3 H s       :     0.804565  s :     0.804565
      pz      :     0.028582  p :     0.062812
      px      :     0.018780
      py      :     0.015450
  4 H s       :     0.759314  s :     0.759314
      pz      :     0.029442  p :     0.066050
      px      :     0.017689
      py      :     0.018918
  5 H s       :     0.816394  s :     0.816394
      pz      :     0.043651  p :     0.087647
      px      :     0.024383
      py      :     0.019613
  6 H s       :     0.806203  s :     0.806203
      pz      :     0.042485  p :     0.078108
      px      :     0.021508
      py      :     0.014115


                      *****************************
                      * MAYER POPULATION ANALYSIS *
                      *****************************

  NA   - Mulliken gross atomic population
  ZA   - Total nuclear charge
  QA   - Mulliken gross atomic charge
  VA   - Mayer's total valence
  BVA  - Mayer's bonded valence
  FA   - Mayer's free valence

  ATOM       NA         ZA         QA         VA         BVA        FA
  0 O      8.3984     8.0000    -0.3984     1.7404     1.7404     0.0000
  1 C      6.1535     6.0000    -0.1535     4.0549     4.0549    -0.0000
  2 C      6.1020     6.0000    -0.1020     3.7195     3.7195    -0.0000
  3 H      0.8619     1.0000     0.1381     0.9786     0.9786    -0.0000
  4 H      0.8188     1.0000     0.1812     0.9773     0.9773    -0.0000
  5 H      0.8228     1.0000     0.1772     0.9636     0.9636    -0.0000
  6 H      0.8426     1.0000     0.1574     0.9802     0.9802    -0.0000

  Mayer bond orders larger than 0.100000
B(  0-O ,  1-C ) :   1.0570 B(  0-O ,  2-C ) :   0.6607 B(  1-C ,  2-C ) :   1.1082 
B(  1-C ,  3-H ) :   0.9712 B(  1-C ,  4-H ) :   0.9168 B(  2-C ,  5-H ) :   0.9480 
B(  2-C ,  6-H ) :   0.9635 

-------
TIMINGS
-------

Total SCF time: 0 days 0 hours 0 min 3 sec 

Total time                  ....       3.674 sec
Sum of individual times     ....       3.405 sec  ( 92.7%)

Fock matrix formation       ....       3.120 sec  ( 84.9%)
  Split-RI-J                ....       0.306 sec  (  9.8% of F)
  Chain of spheres X        ....       2.146 sec  ( 68.8% of F)
  XC integration            ....       0.590 sec  ( 18.9% of F)
    Basis function eval.    ....       0.163 sec  ( 27.7% of XC)
    Density eval.           ....       0.121 sec  ( 20.4% of XC)
    XC-Functional eval.     ....       0.035 sec  (  5.9% of XC)
    XC-Potential eval.      ....       0.205 sec  ( 34.7% of XC)
Diagonalization             ....       0.020 sec  (  0.5%)
Density matrix formation    ....       0.002 sec  (  0.1%)
Population analysis         ....       0.003 sec  (  0.1%)
Initial guess               ....       0.016 sec  (  0.4%)
Orbital Transformation      ....       0.000 sec  (  0.0%)
Orbital Orthonormalization  ....       0.000 sec  (  0.0%)
DIIS solution               ....       0.017 sec  (  0.5%)
SOSCF solution              ....       0.021 sec  (  0.6%)
Grid generation             ....       0.206 sec  (  5.6%)

Maximum memory used throughout the entire SCF-calculation: 61.0 MB


-------------------------------------------------------------------------------
                          DFT DISPERSION CORRECTION                            
                                                                               
                              DFTD3 V3.1  Rev 1                                
                          USING Becke-Johnson damping                          
-------------------------------------------------------------------------------
The PBE0 functional is recognized
Active option DFTDOPT                   ...         4   

molecular C6(AA) [au] = 394.859116 


            DFT-D V3
 parameters
 s6 scaling factor         :     1.0000 
 a1 scaling factor         :     0.4145 
 s8 scaling factor         :     1.2177 
 a2 scaling factor         :     4.8593 
 ad hoc parameters k1-k3   :    16.0000     1.3333    -4.0000 

 Edisp/kcal,au: -1.645841738874  -0.002622815481 
 E6   /kcal   :  -1.073986655 
 E8   /kcal   :  -0.571855084 
 % E8         :  34.745447883 

-------------------------   ----------------
Dispersion correction           -0.002622815
-------------------------   ----------------


-------------------------   --------------------
FINAL SINGLE POINT ENERGY      -153.475591799563
-------------------------   --------------------



           ************************************************************
           *        Program running with 8 parallel MPI-processes     *
           *              working on a common directory               *
           ************************************************************
------------------------------------------------------------------------------
                         ORCA SCF GRADIENT CALCULATION
------------------------------------------------------------------------------

 ... reading COSX grid (gridx3)
Gradient of the Kohn-Sham DFT energy:
Kohn-Sham wavefunction type      ... RKS
Hartree-Fock exchange scaling    ...    0.250
Number of operators              ...    1
Number of atoms                  ...    7
Basis set dimensions             ...  117
Integral neglect threshold       ... 2.5e-11
Integral primitive cutoff        ... 2.5e-12
SHARK Integral package           ... ON

Nuc. rep. gradient       (SHARK) ... done (  0.0 sec)
HCore & Overlap gradient (SHARK) ... done (  0.0 sec)
RI-J gradient            (SHARK) ... done (  0.1 sec)
COSX-gradient                    ... done (  0.3 sec)
Exchange-correlation gradient    ... done
Dispersion correction            ... done

------------------
CARTESIAN GRADIENT
------------------

   1   O   :   -0.039126740   -0.039957065    0.018055706
   2   C   :    0.024553585   -0.034680693    0.001718802
   3   C   :    0.138390709   -0.009537796   -0.061743026
   4   H   :   -0.021589367    0.041936250   -0.001712556
   5   H   :   -0.012104204    0.038894232   -0.006748737
   6   H   :   -0.047841578    0.000743350    0.085844075
   7   H   :   -0.042307524    0.002606486   -0.035458354

Difference to translation invariance:
           :   -0.0000251185    0.0000047651   -0.0000440897

Difference to rotation invariance:
           :    0.0000570404    0.0000817425    0.0000569357

Norm of the cartesian gradient     ...    0.2120431815
RMS gradient                       ...    0.0462716157
MAX gradient                       ...    0.1383907095

-------
TIMINGS
-------

Total SCF gradient time            ...        0.658 sec

One electron gradient       ....       0.009 sec  (  1.4%)
RI-J Coulomb gradient       ....       0.071 sec  ( 10.8%)
COSX gradient               ....       0.291 sec  ( 44.2%)
XC gradient                 ....       0.149 sec  ( 22.6%)

Maximum memory used throughout the entire SCFGRAD-calculation: 35.8 MB

                            ***************************************
                            *     ORCA property calculations      *
                            ***************************************

                                    ---------------------
                                    Active property flags
                                    ---------------------
   (+) Dipole Moment


------------------------------------------------------------------------------
                       ORCA ELECTRIC PROPERTIES CALCULATION
------------------------------------------------------------------------------

Dipole Moment Calculation                       ... on
Quadrupole Moment Calculation                   ... off
Polarizability Calculation                      ... off
GBWName                                         ... ox_gs_F_orca0006.gbw
Electron density                                ... ox_gs_F_orca0006.scfp
The origin for moment calculation is the CENTER OF MASS  = (-0.817178, -0.024696 -0.053182)

-------------
DIPOLE MOMENT
-------------
                                X             Y             Z
Electronic contribution:     -0.49775       1.22142      -0.06408
Nuclear contribution   :      1.40784      -2.30207       0.18723
                        -----------------------------------------
Total Dipole Moment    :      0.91009      -1.08065       0.12315
                        -----------------------------------------
Magnitude (a.u.)       :      1.41818
Magnitude (Debye)      :      3.60473



--------------------
Rotational spectrum 
--------------------
 
Rotational constants in cm-1:     1.481934     0.334417     0.306864 
Rotational constants in MHz : 44427.271545 10025.568476  9199.554908 

 Dipole components along the rotational axes: 
x,y,z [a.u.] :    -1.336827    -0.473247    -0.013110 
x,y,z [Debye]:    -3.397944    -1.202899    -0.033323 

 

Timings for individual modules:

Sum of individual times         ...        5.017 sec (=   0.084 min)
GTO integral calculation        ...        0.308 sec (=   0.005 min)   6.1 %
SCF iterations                  ...        3.850 sec (=   0.064 min)  76.8 %
SCF Gradient evaluation         ...        0.858 sec (=   0.014 min)  17.1 %
                             ****ORCA TERMINATED NORMALLY****
TOTAL RUN TIME: 0 days 0 hours 0 minutes 5 seconds 277 msec
