
                                 *****************
                                 * O   R   C   A *
                                 *****************

                                            #,                                       
                                            ###                                      
                                            ####                                     
                                            #####                                    
                                            ######                                   
                                           ########,                                 
                                     ,,################,,,,,                         
                               ,,#################################,,                 
                          ,,##########################################,,             
                       ,#########################################, ''#####,          
                    ,#############################################,,   '####,        
                  ,##################################################,,,,####,       
                ,###########''''           ''''###############################       
              ,#####''   ,,,,##########,,,,          '''####'''          '####       
            ,##' ,,,,###########################,,,                        '##       
           ' ,,###''''                  '''############,,,                           
         ,,##''                                '''############,,,,        ,,,,,,###''
      ,#''                                            '''#######################'''  
     '                                                          ''''####''''         
             ,#######,   #######,   ,#######,      ##                                
            ,#'     '#,  ##    ##  ,#'     '#,    #''#        ######   ,####,        
            ##       ##  ##   ,#'  ##            #'  '#       #        #'  '#        
            ##       ##  #######   ##           ,######,      #####,   #    #        
            '#,     ,#'  ##    ##  '#,     ,#' ,#      #,         ##   #,  ,#        
             '#######'   ##     ##  '#######'  #'      '#     #####' # '####'        



                  #######################################################
                  #                        -***-                        #
                  #          Department of theory and spectroscopy      #
                  #    Directorship and core code : Frank Neese         #
                  #        Max Planck Institute fuer Kohlenforschung    #
                  #                Kaiser Wilhelm Platz 1               #
                  #                 D-45470 Muelheim/Ruhr               #
                  #                      Germany                        #
                  #                                                     #
                  #                  All rights reserved                #
                  #                        -***-                        #
                  #######################################################


                         Program Version 5.0.2 -  RELEASE  -


 With contributions from (in alphabetic order):
   Daniel Aravena         : Magnetic Suceptibility
   Michael Atanasov       : Ab Initio Ligand Field Theory (pilot matlab implementation)
   Alexander A. Auer      : GIAO ZORA, VPT2 properties, NMR spectrum
   Ute Becker             : Parallelization
   Giovanni Bistoni       : ED, misc. LED, open-shell LED, HFLD
   Martin Brehm           : Molecular dynamics
   Dmytro Bykov           : SCF Hessian
   Vijay G. Chilkuri      : MRCI spin determinant printing, contributions to CSF-ICE
   Dipayan Datta          : RHF DLPNO-CCSD density
   Achintya Kumar Dutta   : EOM-CC, STEOM-CC
   Dmitry Ganyushin       : Spin-Orbit,Spin-Spin,Magnetic field MRCI
   Miquel Garcia          : C-PCM and meta-GGA Hessian, CC/C-PCM, Gaussian charge scheme
   Yang Guo               : DLPNO-NEVPT2, F12-NEVPT2, CIM, IAO-localization
   Andreas Hansen         : Spin unrestricted coupled pair/coupled cluster methods
   Benjamin Helmich-Paris : MC-RPA, TRAH-SCF, COSX integrals
   Lee Huntington         : MR-EOM, pCC
   Robert Izsak           : Overlap fitted RIJCOSX, COSX-SCS-MP3, EOM
   Marcus Kettner         : VPT2
   Christian Kollmar      : KDIIS, OOCD, Brueckner-CCSD(T), CCSD density, CASPT2, CASPT2-K
   Simone Kossmann        : Meta GGA functionals, TD-DFT gradient, OOMP2, MP2 Hessian
   Martin Krupicka        : Initial AUTO-CI
   Lucas Lang             : DCDCAS
   Marvin Lechner         : AUTO-CI (C++ implementation), FIC-MRCC
   Dagmar Lenk            : GEPOL surface, SMD
   Dimitrios Liakos       : Extrapolation schemes; Compound Job, initial MDCI parallelization
   Dimitrios Manganas     : Further ROCIS development; embedding schemes
   Dimitrios Pantazis     : SARC Basis sets
   Anastasios Papadopoulos: AUTO-CI, single reference methods and gradients
   Taras Petrenko         : DFT Hessian,TD-DFT gradient, ASA, ECA, R-Raman, ABS, FL, XAS/XES, NRVS
   Peter Pinski           : DLPNO-MP2, DLPNO-MP2 Gradient
   Christoph Reimann      : Effective Core Potentials
   Marius Retegan         : Local ZFS, SOC
   Christoph Riplinger    : Optimizer, TS searches, QM/MM, DLPNO-CCSD(T), (RO)-DLPNO pert. Triples
   Tobias Risthaus        : Range-separated hybrids, TD-DFT gradient, RPA, STAB
   Michael Roemelt        : Original ROCIS implementation
   Masaaki Saitow         : Open-shell DLPNO-CCSD energy and density
   Barbara Sandhoefer     : DKH picture change effects
   Avijit Sen             : IP-ROCIS
   Kantharuban Sivalingam : CASSCF convergence, NEVPT2, FIC-MRCI
   Bernardo de Souza      : ESD, SOC TD-DFT
   Georgi Stoychev        : AutoAux, RI-MP2 NMR, DLPNO-MP2 response
   Willem Van den Heuvel  : Paramagnetic NMR
   Boris Wezisla          : Elementary symmetry handling
   Frank Wennmohs         : Technical directorship


 We gratefully acknowledge several colleagues who have allowed us to
 interface, adapt or use parts of their codes:
   Stefan Grimme, W. Hujo, H. Kruse, P. Pracht,  : VdW corrections, initial TS optimization,
                  C. Bannwarth, S. Ehlert          DFT functionals, gCP, sTDA/sTD-DF
   Ed Valeev, F. Pavosevic, A. Kumar             : LibInt (2-el integral package), F12 methods
   Garnet Chan, S. Sharma, J. Yang, R. Olivares  : DMRG
   Ulf Ekstrom                                   : XCFun DFT Library
   Mihaly Kallay                                 : mrcc  (arbitrary order and MRCC methods)
   Jiri Pittner, Ondrej Demel                    : Mk-CCSD
   Frank Weinhold                                : gennbo (NPA and NBO analysis)
   Christopher J. Cramer and Donald G. Truhlar   : smd solvation model
   Lars Goerigk                                  : TD-DFT with DH, B97 family of functionals
   V. Asgeirsson, H. Jonsson                     : NEB implementation
   FAccTs GmbH                                   : IRC, NEB, NEB-TS, DLPNO-Multilevel, CI-OPT
                                                   MM, QMMM, 2- and 3-layer-ONIOM, Crystal-QMMM,
                                                   LR-CPCM, SF, NACMEs, symmetry and pop. for TD-DFT,
                                                   nearIR, NL-DFT gradient (VV10), updates on ESD,
                                                   ML-optimized integration grids
   S Lehtola, MJT Oliveira, MAL Marques          : LibXC Library
   Liviu Ungur et al                             : ANISO software


 Your calculation uses the libint2 library for the computation of 2-el integrals
 For citations please refer to: http://libint.valeyev.net

 Your ORCA version has been built with support for libXC version: 5.1.0
 For citations please refer to: https://tddft.org/programs/libxc/

 This ORCA versions uses:
   CBLAS   interface :  Fast vector & matrix operations
   LAPACKE interface :  Fast linear algebra routines
   SCALAPACK package :  Parallel linear algebra routines
   Shared memory     :  Shared parallel matrices
   BLAS/LAPACK       :  OpenBLAS 0.3.15  USE64BITINT DYNAMIC_ARCH NO_AFFINITY SkylakeX SINGLE_THREADED
        Core in use  :  SkylakeX
   Copyright (c) 2011-2014, The OpenBLAS Project


Your calculation utilizes the atom-pairwise dispersion correction
with the Becke-Johnson damping scheme (D3BJ)
Cite in your paper:
S.Grimme, S.Ehrlich, L.Goerigk, J Comput Chem, (2011), 32, 1456–1465 
S.Grimme, J.Antony, S.Ehrlich and H.Krieg, J.Chem.Phys., 132, (2010), 154104 
   

================================================================================

----- Orbital basis set information -----
Your calculation utilizes the basis: def2-TZVP
   F. Weigend and R. Ahlrichs, Phys. Chem. Chem. Phys. 7, 3297 (2005).

----- AuxJ basis set information -----
Your calculation utilizes the auxiliary basis: def2/J
   F. Weigend, Phys. Chem. Chem. Phys. 8, 1057 (2006).

================================================================================
                                        WARNINGS
                       Please study these warnings very carefully!
================================================================================


INFO   : the flag for use of the SHARK integral package has been found!

================================================================================
                                       INPUT FILE
================================================================================
NAME = ox_gs_C_orca0008.inp
|  1> ! engrad PBE0 D3BJ def2-TZVP  
|  2> %pal nprocs 8 end
|  3> %maxcore 3000
|  4>  
|  5> *xyz 0 1 
|  6> O   -0.46430289815404746 0.973537165352685 -0.031209473125896902
|  7> C   -0.7939272974355485 -0.41247106442901516 -0.04014381412657148
|  8> C   0.8072150884372953 -0.4964285973461756 -0.04629932584482809
|  9> H   -1.2825963845722257 -0.6630972534391893 0.8519164071621523
| 10> H   -1.3567817987694006 -0.6179948631810166 -0.8133580655965585
| 11> H   1.376200905951856 -0.6267438778291547 -0.9775896169205007
| 12> H   1.2945288943013684 -0.6481060376858524 0.902351037289904
| 13> *
| 14> 
| 15>                          ****END OF INPUT****
================================================================================

                     *******************************
                     * Energy+Gradient Calculation *
                     *******************************

---------------------------------
CARTESIAN COORDINATES (ANGSTROEM)
---------------------------------
  O     -0.464303    0.973537   -0.031209
  C     -0.793927   -0.412471   -0.040144
  C      0.807215   -0.496429   -0.046299
  H     -1.282596   -0.663097    0.851916
  H     -1.356782   -0.617995   -0.813358
  H      1.376201   -0.626744   -0.977590
  H      1.294529   -0.648106    0.902351

----------------------------
CARTESIAN COORDINATES (A.U.)
----------------------------
  NO LB      ZA    FRAG     MASS         X           Y           Z
   0 O     8.0000    0    15.999   -0.877405    1.839719   -0.058977
   1 C     6.0000    0    12.011   -1.500305   -0.779457   -0.075861
   2 C     6.0000    0    12.011    1.525415   -0.938114   -0.087493
   3 H     1.0000    0     1.008   -2.423756   -1.253072    1.609889
   4 H     1.0000    0     1.008   -2.563946   -1.167841   -1.537024
   5 H     1.0000    0     1.008    2.600643   -1.184374   -1.847377
   6 H     1.0000    0     1.008    2.446305   -1.224743    1.705196

--------------------------------
INTERNAL COORDINATES (ANGSTROEM)
--------------------------------
 O      0   0   0     0.000000000000     0.00000000     0.00000000
 C      1   0   0     1.424693258240     0.00000000     0.00000000
 C      2   1   0     1.603353890286    79.62557322     0.00000000
 H      2   1   3     1.047560213900   109.59314927   115.31109814
 H      2   1   3     0.978215467165   110.02789996   237.32845148
 H      3   2   1     1.099103516104   121.76450507   263.43027897
 H      3   2   1     1.077227136109   117.11294816    97.14245505

---------------------------
INTERNAL COORDINATES (A.U.)
---------------------------
 O      0   0   0     0.000000000000     0.00000000     0.00000000
 C      1   0   0     2.692280082917     0.00000000     0.00000000
 C      2   1   0     3.029899748399    79.62557322     0.00000000
 H      2   1   3     1.979601913063   109.59314927   115.31109814
 H      2   1   3     1.848559332908   110.02789996   237.32845148
 H      3   2   1     2.077004638266   121.76450507   263.43027897
 H      3   2   1     2.035664271274   117.11294816    97.14245505

---------------------
BASIS SET INFORMATION
---------------------
There are 3 groups of distinct atoms

 Group   1 Type O   : 11s6p2d1f contracted to 5s3p2d1f pattern {62111/411/11/1}
 Group   2 Type C   : 11s6p2d1f contracted to 5s3p2d1f pattern {62111/411/11/1}
 Group   3 Type H   : 5s1p contracted to 3s1p pattern {311/1}

Atom   0O    basis set group =>   1
Atom   1C    basis set group =>   2
Atom   2C    basis set group =>   2
Atom   3H    basis set group =>   3
Atom   4H    basis set group =>   3
Atom   5H    basis set group =>   3
Atom   6H    basis set group =>   3
---------------------------------
AUXILIARY/J BASIS SET INFORMATION
---------------------------------
There are 3 groups of distinct atoms

 Group   1 Type O   : 12s5p4d2f1g contracted to 6s4p3d1f1g pattern {711111/2111/211/2/1}
 Group   2 Type C   : 12s5p4d2f1g contracted to 6s4p3d1f1g pattern {711111/2111/211/2/1}
 Group   3 Type H   : 5s2p1d contracted to 3s1p1d pattern {311/2/1}

Atom   0O    basis set group =>   1
Atom   1C    basis set group =>   2
Atom   2C    basis set group =>   2
Atom   3H    basis set group =>   3
Atom   4H    basis set group =>   3
Atom   5H    basis set group =>   3
Atom   6H    basis set group =>   3


           ************************************************************
           *        Program running with 8 parallel MPI-processes     *
           *              working on a common directory               *
           ************************************************************
------------------------------------------------------------------------------
                           ORCA GTO INTEGRAL CALCULATION
                           -- RI-GTO INTEGRALS CHOSEN --
------------------------------------------------------------------------------
------------------------------------------------------------------------------
                   ___                                                        
                  /   \      - P O W E R E D   B Y -                         
                 /     \                                                     
                 |  |  |   _    _      __       _____    __    __             
                 |  |  |  | |  | |    /  \     |  _  \  |  |  /  |          
                  \  \/   | |  | |   /    \    | | | |  |  | /  /          
                 / \  \   | |__| |  /  /\  \   | |_| |  |  |/  /          
                |  |  |   |  __  | /  /__\  \  |    /   |      \           
                |  |  |   | |  | | |   __   |  |    \   |  |\   \          
                \     /   | |  | | |  |  |  |  | |\  \  |  | \   \       
                 \___/    |_|  |_| |__|  |__|  |_| \__\ |__|  \__/        
                                                                              
                      - O R C A' S   B I G   F R I E N D -                    
                                      &                                       
                       - I N T E G R A L  F E E D E R -                       
                                                                              
 v1 FN, 2020, v2 2021                                                         
------------------------------------------------------------------------------


Reading SHARK input file ox_gs_C_orca0008.SHARKINP.tmp ... ok
----------------------
SHARK INTEGRAL PACKAGE
----------------------

Number of atoms                             ...      7
Number of basis functions                   ...    117
Number of shells                            ...     49
Maximum angular momentum                    ...      3
Integral batch strategy                     ... SHARK/LIBINT Hybrid
RI-J (if used) integral strategy            ... SPLIT-RIJ (Revised 2003 algorithm where possible)
Printlevel                                  ...      1
Contraction scheme used                     ... SEGMENTED contraction
Coulomb Range Separation                    ... NOT USED
Exchange Range Separation                   ... NOT USED
Finite Nucleus Model                        ... NOT USED
Auxiliary Coulomb fitting basis             ... AVAILABLE
   # of basis functions in Aux-J            ...    191
   # of shells in Aux-J                     ...     65
   Maximum angular momentum in Aux-J        ...      4
Auxiliary J/K fitting basis                 ... NOT available
Auxiliary Correlation fitting basis         ... NOT available
Auxiliary 'external' fitting basis          ... NOT available
Integral threshold                          ...     2.500000e-11
Primitive cut-off                           ...     2.500000e-12
Primitive pair pre-selection threshold      ...     2.500000e-12

Calculating pre-screening integrals         ... done (  0.0 sec) Dimension = 49
Organizing shell pair data                  ... done (  0.0 sec)
Shell pair information
Total number of shell pairs                 ...      1225
Shell pairs after pre-screening             ...      1217
Total number of primitive shell pairs       ...      3648
Primitive shell pairs kept                  ...      3103
          la=0 lb=0:    370 shell pairs
          la=1 lb=0:    351 shell pairs
          la=1 lb=1:     91 shell pairs
          la=2 lb=0:    162 shell pairs
          la=2 lb=1:     78 shell pairs
          la=2 lb=2:     21 shell pairs
          la=3 lb=0:     81 shell pairs
          la=3 lb=1:     39 shell pairs
          la=3 lb=2:     18 shell pairs
          la=3 lb=3:      6 shell pairs

Calculating one electron integrals          ... done (  0.0 sec)
Calculating RI/J V-Matrix + Cholesky decomp.... done (  0.0 sec)
Calculating Nuclear repulsion               ... done (  0.0 sec) ENN=     69.192231090628 Eh

SHARK setup successfully completed in   0.1 seconds

Maximum memory used throughout the entire GTOINT-calculation: 14.9 MB


           ************************************************************
           *        Program running with 8 parallel MPI-processes     *
           *              working on a common directory               *
           ************************************************************
-------------------------------------------------------------------------------
                                 ORCA SCF
-------------------------------------------------------------------------------

------------
SCF SETTINGS
------------
Hamiltonian:
 Density Functional     Method          .... DFT(GTOs)
 Exchange Functional    Exchange        .... PBE
   PBE kappa parameter   XKappa         ....  0.804000
   PBE mue parameter    XMuePBE         ....  0.219520
 Correlation Functional Correlation     .... PBE
   PBE beta parameter  CBetaPBE         ....  0.066725
 LDA part of GGA corr.  LDAOpt          .... PW91-LDA
 Gradients option       PostSCFGGA      .... off
 Hybrid DFT is turned on
   Fraction HF Exchange ScalHFX         ....  0.250000
   Scaling of DF-GGA-X  ScalDFX         ....  0.750000
   Scaling of DF-GGA-C  ScalDFC         ....  1.000000
   Scaling of DF-LDA-C  ScalLDAC        ....  1.000000
   Perturbative correction              ....  0.000000
   Density functional embedding theory  .... OFF
   NL short-range parameter             ....  6.900000
 RI-approximation to the Coulomb term is turned on
   Number of AuxJ basis functions       .... 191
   RIJ-COSX (HFX calculated with COS-X)).... on


General Settings:
 Integral files         IntName         .... ox_gs_C_orca0008
 Hartree-Fock type      HFTyp           .... RHF
 Total Charge           Charge          ....    0
 Multiplicity           Mult            ....    1
 Number of Electrons    NEL             ....   24
 Basis Dimension        Dim             ....  117
 Nuclear Repulsion      ENuc            ....     69.1922310906 Eh

Convergence Acceleration:
 DIIS                   CNVDIIS         .... on
   Start iteration      DIISMaxIt       ....    12
   Startup error        DIISStart       ....  0.200000
   # of expansion vecs  DIISMaxEq       ....     5
   Bias factor          DIISBfac        ....   1.050
   Max. coefficient     DIISMaxC        ....  10.000
 Trust-Rad. Augm. Hess. CNVTRAH         .... auto
   Auto Start mean grad. ratio tolernc. ....  1.125000
   Auto Start start iteration           ....    20
   Auto Start num. interpolation iter.  ....    10
   Max. Number of Micro iterations      ....    16
   Max. Number of Macro iterations      .... Maxiter - #DIIS iter
   Number of Davidson start vectors     ....     2
   Converg. threshold I  (grad. norm)   ....   1.000e-05
   Converg. threshold II (energy diff.) ....   1.000e-08
   Grad. Scal. Fac. for Micro threshold ....   0.100
   Minimum threshold for Micro iter.    ....   0.010
   NR start threshold (gradient norm)   ....   0.001
   Initial trust radius                 ....   0.400
   Minimum AH scaling param. (alpha)    ....   1.000
   Maximum AH scaling param. (alpha)    .... 1000.000
   Orbital update algorithm             .... Taylor
   White noise on init. David. guess    .... on
   Maximum white noise                  ....   0.010
   Quad. conv. algorithm                .... NR
 SOSCF                  CNVSOSCF        .... on
   Start iteration      SOSCFMaxIt      ....   150
   Startup grad/error   SOSCFStart      ....  0.003300
 Level Shifting         CNVShift        .... on
   Level shift para.    LevelShift      ....    0.2500
   Turn off err/grad.   ShiftErr        ....    0.0010
 Zerner damping         CNVZerner       .... off
 Static damping         CNVDamp         .... on
   Fraction old density DampFac         ....    0.7000
   Max. Damping (<1)    DampMax         ....    0.9800
   Min. Damping (>=0)   DampMin         ....    0.0000
   Turn off err/grad.   DampErr         ....    0.1000
 Fernandez-Rico         CNVRico         .... off

SCF Procedure:
 Maximum # iterations   MaxIter         ....   125
 SCF integral mode      SCFMode         .... Direct
   Integral package                     .... SHARK and LIBINT hybrid scheme
 Reset frequency        DirectResetFreq ....    20
 Integral Threshold     Thresh          ....  2.500e-11 Eh
 Primitive CutOff       TCut            ....  2.500e-12 Eh

Convergence Tolerance:
 Convergence Check Mode ConvCheckMode   .... Total+1el-Energy
 Convergence forced     ConvForced      .... 0
 Energy Change          TolE            ....  1.000e-08 Eh
 1-El. energy change                    ....  1.000e-05 Eh
 Orbital Gradient       TolG            ....  1.000e-05
 Orbital Rotation angle TolX            ....  1.000e-05
 DIIS Error             TolErr          ....  5.000e-07


Diagonalization of the overlap matrix:
Smallest eigenvalue                        ... 9.325e-04
Time for diagonalization                   ...    0.001 sec
Threshold for overlap eigenvalues          ... 1.000e-08
Number of eigenvalues below threshold      ... 0
Time for construction of square roots      ...    0.001 sec
Total time needed                          ...    0.003 sec

Time for model grid setup =    0.020 sec

------------------------------
INITIAL GUESS: MODEL POTENTIAL
------------------------------
Loading Hartree-Fock densities                     ... done
Calculating cut-offs                               ... done
Initializing the effective Hamiltonian             ... done
Setting up the integral package (SHARK)            ... done
Starting the Coulomb interaction                   ... done (   0.0 sec)
Reading the grid                                   ... done
Mapping shells                                     ... done
Starting the XC term evaluation                    ... done (   0.0 sec)
  promolecular density results
     # of electrons  =     23.997628138
     EX              =    -19.457934214
     EC              =     -0.765792678
     EX+EC           =    -20.223726893
Transforming the Hamiltonian                       ... done (   0.0 sec)
Diagonalizing the Hamiltonian                      ... done (   0.0 sec)
Back transforming the eigenvectors                 ... done (   0.0 sec)
Now organizing SCF variables                       ... done
                      ------------------
                      INITIAL GUESS DONE (   0.0 sec)
                      ------------------
-------------------
DFT GRID GENERATION
-------------------

General Integration Accuracy     IntAcc      ... 4.388
Radial Grid Type                 RadialGrid  ... OptM3 with GC (2021)
Angular Grid (max. ang.)         AngularGrid ... 4 (Lebedev-302)
Angular grid pruning method      GridPruning ... 4 (adaptive)
Weight generation scheme         WeightScheme... Becke
Basis function cutoff            BFCut       ... 1.0000e-11
Integration weight cutoff        WCut        ... 1.0000e-14
Angular grids for H and He will be reduced by one unit
Partially contracted basis set               ... off
Rotationally invariant grid construction     ... off

Total number of grid points                  ...    31330
Total number of batches                      ...      494
Average number of points per batch           ...       63
Average number of grid points per atom       ...     4476
Time for grid setup =    0.113 sec

--------------------
COSX GRID GENERATION
--------------------

GRIDX 1
-------
General Integration Accuracy     IntAcc      ... 3.816
Radial Grid Type                 RadialGrid  ... OptM3 with GC (2021)
Angular Grid (max. ang.)         AngularGrid ... 1 (Lebedev-50)
Angular grid pruning method      GridPruning ... 4 (adaptive)
Weight generation scheme         WeightScheme... Becke
Basis function cutoff            BFCut       ... 1.0000e-11
Integration weight cutoff        WCut        ... 1.0000e-14
Angular grids for H and He will be reduced by one unit
Partially contracted basis set               ... on
Rotationally invariant grid construction     ... off

Total number of grid points                  ...     4037
Total number of batches                      ...       67
Average number of points per batch           ...       60
Average number of grid points per atom       ...      577
UseSFitting                                  ... on

GRIDX 2
-------
General Integration Accuracy     IntAcc      ... 4.020
Radial Grid Type                 RadialGrid  ... OptM3 with GC (2021)
Angular Grid (max. ang.)         AngularGrid ... 2 (Lebedev-110)
Angular grid pruning method      GridPruning ... 4 (adaptive)
Weight generation scheme         WeightScheme... Becke
Basis function cutoff            BFCut       ... 1.0000e-11
Integration weight cutoff        WCut        ... 1.0000e-14
Angular grids for H and He will be reduced by one unit
Partially contracted basis set               ... on
Rotationally invariant grid construction     ... off

Total number of grid points                  ...     8738
Total number of batches                      ...      139
Average number of points per batch           ...       62
Average number of grid points per atom       ...     1248
UseSFitting                                  ... on

GRIDX 3
-------
General Integration Accuracy     IntAcc      ... 4.338
Radial Grid Type                 RadialGrid  ... OptM3 with GC (2021)
Angular Grid (max. ang.)         AngularGrid ... 3 (Lebedev-194)
Angular grid pruning method      GridPruning ... 4 (adaptive)
Weight generation scheme         WeightScheme... Becke
Basis function cutoff            BFCut       ... 1.0000e-11
Integration weight cutoff        WCut        ... 1.0000e-14
Angular grids for H and He will be reduced by one unit
Partially contracted basis set               ... on
Rotationally invariant grid construction     ... off

Total number of grid points                  ...    19268
Total number of batches                      ...      305
Average number of points per batch           ...       63
Average number of grid points per atom       ...     2753
UseSFitting                                  ... on

Time for X-Grid setup             =    0.072 sec

--------------
SCF ITERATIONS
--------------
ITER       Energy         Delta-E        Max-DP      RMS-DP      [F,P]     Damp
               ***  Starting incremental Fock matrix formation  ***
  0   -153.4861858793   0.000000000000 0.05846999  0.00165849  0.2621515 0.7000
  1   -153.5398558289  -0.053669949596 0.03280130  0.00102518  0.0821223 0.7000
                               ***Turning on DIIS***
  2   -153.5530671395  -0.013211310557 0.03126661  0.00137633  0.0414343 0.0000
  3   -153.5861460741  -0.033078934644 0.02268219  0.00084677  0.0376344 0.0000
  4   -153.5884101149  -0.002264040817 0.00894299  0.00027769  0.0375370 0.0000
  5   -153.5902495207  -0.001839405813 0.00234870  0.00007196  0.0061535 0.0000
                      *** Initiating the SOSCF procedure ***
                           *** Shutting down DIIS ***
                      *** Re-Reading the Fockian *** 
                      *** Removing any level shift *** 
ITER      Energy       Delta-E        Grad      Rot      Max-DP    RMS-DP
  6   -153.59032208  -0.0000725607  0.000620  0.000620  0.000873  0.000029
               *** Restarting incremental Fock matrix formation ***
  7   -153.59034797  -0.0000258934  0.000387  0.001715  0.000733  0.000023
  8   -153.59034653   0.0000014408  0.000680  0.000711  0.000452  0.000013
  9   -153.59034894  -0.0000024092  0.000098  0.000159  0.000219  0.000008
 10   -153.59034878   0.0000001645  0.000141  0.000094  0.000133  0.000005
 11   -153.59034914  -0.0000003615  0.000003  0.000012  0.000008  0.000000
 12   -153.59034914  -0.0000000007  0.000003  0.000004  0.000003  0.000000
                 **** Energy Check signals convergence ****
              ***Rediagonalizing the Fockian in SOSCF/NRSCF***

               *****************************************************
               *                     SUCCESS                       *
               *           SCF CONVERGED AFTER  13 CYCLES          *
               *****************************************************

Old exchange energy                            =     -4.962906079 Eh
New exchange energy                            =     -4.962912606 Eh
Exchange energy change after final integration =     -0.000006527 Eh
Total energy after final integration           =   -153.590355669 Eh
Final COS-X integration done in                =     0.258 sec

----------------
TOTAL SCF ENERGY
----------------

Total Energy       :         -153.59035567 Eh           -4179.40605 eV

Components:
Nuclear Repulsion  :           69.19223109 Eh            1882.81633 eV
Electronic Energy  :         -222.78258676 Eh           -6062.22238 eV
One Electron Energy:         -345.22622194 Eh           -9394.08308 eV
Two Electron Energy:          122.44363518 Eh            3331.86070 eV
Max COSX asymmetry :            0.00000129 Eh               0.00004 eV

Virial components:
Potential Energy   :         -306.30153300 Eh           -8334.88845 eV
Kinetic Energy     :          152.71117733 Eh            4155.48240 eV
Virial Ratio       :            2.00575713


DFT components:
N(Alpha)           :       11.999999047075 electrons
N(Beta)            :       11.999999047075 electrons
N(Total)           :       23.999998094149 electrons
E(X)               :      -14.889516138292 Eh       
E(C)               :       -0.773752144132 Eh       
E(XC)              :      -15.663268282424 Eh       
DFET-embed. en.    :        0.000000000000 Eh       

---------------
SCF CONVERGENCE
---------------

  Last Energy change         ...   -9.4684e-10  Tolerance :   1.0000e-08
  Last MAX-Density change    ...    1.1102e-15  Tolerance :   1.0000e-07
  Last RMS-Density change    ...    2.6610e-17  Tolerance :   5.0000e-09
  Last Orbital Gradient      ...    5.4423e-07  Tolerance :   1.0000e-05
  Last Orbital Rotation      ...    1.8463e-06  Tolerance :   1.0000e-05

             **** THE GBW FILE WAS UPDATED (ox_gs_C_orca0008.gbw) ****
             **** DENSITY ox_gs_C_orca0008.scfp WAS UPDATED ****
             **** ENERGY FILE WAS UPDATED (ox_gs_C_orca0008.en.tmp) ****
             **** THE GBW FILE WAS UPDATED (ox_gs_C_orca0008.gbw) ****
             **** DENSITY ox_gs_C_orca0008.scfp WAS UPDATED ****
----------------
ORBITAL ENERGIES
----------------

  NO   OCC          E(Eh)            E(eV) 
   0   2.0000     -19.210980      -522.7573 
   1   2.0000     -10.314906      -280.6829 
   2   2.0000     -10.271172      -279.4928 
   3   2.0000      -1.007070       -27.4038 
   4   2.0000      -0.730089       -19.8667 
   5   2.0000      -0.659756       -17.9529 
   6   2.0000      -0.512739       -13.9523 
   7   2.0000      -0.474186       -12.9033 
   8   2.0000      -0.433443       -11.7946 
   9   2.0000      -0.390748       -10.6328 
  10   2.0000      -0.298277        -8.1165 
  11   2.0000      -0.272494        -7.4150 
  12   0.0000      -0.072811        -1.9813 
  13   0.0000       0.061575         1.6755 
  14   0.0000       0.073890         2.0106 
  15   0.0000       0.100641         2.7386 
  16   0.0000       0.109971         2.9925 
  17   0.0000       0.151562         4.1242 
  18   0.0000       0.186002         5.0614 
  19   0.0000       0.188275         5.1232 
  20   0.0000       0.245881         6.6908 
  21   0.0000       0.254185         6.9167 
  22   0.0000       0.266840         7.2611 
  23   0.0000       0.304385         8.2828 
  24   0.0000       0.355777         9.6812 
  25   0.0000       0.401308        10.9201 
  26   0.0000       0.421835        11.4787 
  27   0.0000       0.431084        11.7304 
  28   0.0000       0.447195        12.1688 
  29   0.0000       0.484526        13.1846 
  30   0.0000       0.497890        13.5483 
  31   0.0000       0.534578        14.5466 
  32   0.0000       0.562177        15.2976 
  33   0.0000       0.649780        17.6814 
  34   0.0000       0.662194        18.0192 
  35   0.0000       0.740966        20.1627 
  36   0.0000       0.810744        22.0615 
  37   0.0000       0.814538        22.1647 
  38   0.0000       0.867051        23.5937 
  39   0.0000       0.912502        24.8304 
  40   0.0000       0.959716        26.1152 
  41   0.0000       1.007944        27.4275 
  42   0.0000       1.038224        28.2515 
  43   0.0000       1.063763        28.9465 
  44   0.0000       1.150696        31.3120 
  45   0.0000       1.333806        36.2947 
  46   0.0000       1.387112        37.7452 
  47   0.0000       1.454974        39.5919 
  48   0.0000       1.507387        41.0181 
  49   0.0000       1.514278        41.2056 
  50   0.0000       1.597666        43.4747 
  51   0.0000       1.613903        43.9165 
  52   0.0000       1.645243        44.7693 
  53   0.0000       1.673424        45.5362 
  54   0.0000       1.727251        47.0009 
  55   0.0000       1.756443        47.7953 
  56   0.0000       1.829001        49.7697 
  57   0.0000       1.852234        50.4019 
  58   0.0000       1.898934        51.6726 
  59   0.0000       1.969685        53.5979 
  60   0.0000       1.987747        54.0894 
  61   0.0000       2.102100        57.2011 
  62   0.0000       2.121933        57.7407 
  63   0.0000       2.213722        60.2384 
  64   0.0000       2.250557        61.2408 
  65   0.0000       2.345698        63.8297 
  66   0.0000       2.390862        65.0586 
  67   0.0000       2.478039        67.4309 
  68   0.0000       2.505678        68.1830 
  69   0.0000       2.536452        69.0204 
  70   0.0000       2.599645        70.7399 
  71   0.0000       2.609459        71.0070 
  72   0.0000       2.640549        71.8530 
  73   0.0000       2.698749        73.4367 
  74   0.0000       2.768242        75.3277 
  75   0.0000       2.797410        76.1214 
  76   0.0000       2.860589        77.8406 
  77   0.0000       2.937789        79.9413 
  78   0.0000       2.979987        81.0896 
  79   0.0000       3.014418        82.0265 
  80   0.0000       3.022305        82.2411 
  81   0.0000       3.079682        83.8024 
  82   0.0000       3.095142        84.2231 
  83   0.0000       3.135184        85.3127 
  84   0.0000       3.182998        86.6138 
  85   0.0000       3.233974        88.0009 
  86   0.0000       3.289147        89.5022 
  87   0.0000       3.369699        91.6942 
  88   0.0000       3.419023        93.0364 
  89   0.0000       3.539368        96.3111 
  90   0.0000       3.553014        96.6824 
  91   0.0000       3.656512        99.4987 
  92   0.0000       3.696821       100.5956 
  93   0.0000       3.759480       102.3007 
  94   0.0000       3.897791       106.0643 
  95   0.0000       4.061601       110.5218 
  96   0.0000       4.144497       112.7775 
  97   0.0000       4.253058       115.7316 
  98   0.0000       4.351318       118.4054 
  99   0.0000       4.513142       122.8088 
 100   0.0000       4.586211       124.7972 
 101   0.0000       4.797590       130.5491 
 102   0.0000       5.234330       142.4334 
 103   0.0000       5.269065       143.3786 
 104   0.0000       5.370970       146.1515 
 105   0.0000       5.395838       146.8282 
 106   0.0000       5.752090       156.5223 
 107   0.0000       5.783311       157.3719 
 108   0.0000       5.942997       161.7172 
 109   0.0000       6.408118       174.3738 
 110   0.0000       6.496503       176.7788 
 111   0.0000       6.757571       183.8829 
 112   0.0000       6.895196       187.6278 
 113   0.0000       6.985205       190.0771 
 114   0.0000      22.057919       600.2265 
 115   0.0000      22.557226       613.8133 
 116   0.0000      43.670271      1188.3285 

                    ********************************
                    * MULLIKEN POPULATION ANALYSIS *
                    ********************************

-----------------------
MULLIKEN ATOMIC CHARGES
-----------------------
   0 O :   -0.368980
   1 C :   -0.005863
   2 C :   -0.174192
   3 H :    0.102680
   4 H :    0.117793
   5 H :    0.166142
   6 H :    0.162420
Sum of atomic charges:    0.0000000

--------------------------------
MULLIKEN REDUCED ORBITAL CHARGES
--------------------------------
  0 O s       :     3.904445  s :     3.904445
      pz      :     1.903511  p :     4.437632
      px      :     1.315695
      py      :     1.218426
      dz2     :     0.003585  d :     0.025639
      dxz     :     0.000697
      dyz     :     0.004729
      dx2y2   :     0.007819
      dxy     :     0.008810
      f0      :     0.000148  f :     0.001264
      f+1     :     0.000084
      f-1     :     0.000320
      f+2     :     0.000111
      f-2     :     0.000054
      f+3     :     0.000306
      f-3     :     0.000241
  1 C s       :     3.184465  s :     3.184465
      pz      :     1.066197  p :     2.678314
      px      :     0.890566
      py      :     0.721552
      dz2     :     0.007615  d :     0.133087
      dxz     :     0.018376
      dyz     :     0.041701
      dx2y2   :     0.027743
      dxy     :     0.037653
      f0      :     0.001467  f :     0.009996
      f+1     :     0.001167
      f-1     :     0.000780
      f+2     :     0.002157
      f-2     :     0.000483
      f+3     :     0.001628
      f-3     :     0.002314
  2 C s       :     3.319787  s :     3.319787
      pz      :     1.052569  p :     2.794876
      px      :     0.959783
      py      :     0.782524
      dz2     :     0.008502  d :     0.054389
      dxz     :     0.017687
      dyz     :     0.007210
      dx2y2   :     0.008967
      dxy     :     0.012022
      f0      :     0.000568  f :     0.005141
      f+1     :     0.001173
      f-1     :     0.000106
      f+2     :     0.000551
      f-2     :     0.000371
      f+3     :     0.001304
      f-3     :     0.001067
  3 H s       :     0.875268  s :     0.875268
      pz      :     0.011107  p :     0.022052
      px      :     0.006585
      py      :     0.004360
  4 H s       :     0.858382  s :     0.858382
      pz      :     0.010351  p :     0.023825
      px      :     0.008293
      py      :     0.005181
  5 H s       :     0.811451  s :     0.811451
      pz      :     0.011394  p :     0.022408
      px      :     0.006924
      py      :     0.004089
  6 H s       :     0.814518  s :     0.814518
      pz      :     0.012208  p :     0.023062
      px      :     0.006425
      py      :     0.004429


                     *******************************
                     * LOEWDIN POPULATION ANALYSIS *
                     *******************************

----------------------
LOEWDIN ATOMIC CHARGES
----------------------
   0 O :   -0.045850
   1 C :   -0.332219
   2 C :   -0.051616
   3 H :    0.102576
   4 H :    0.080057
   5 H :    0.126450
   6 H :    0.120602

-------------------------------
LOEWDIN REDUCED ORBITAL CHARGES
-------------------------------
  0 O s       :     3.545667  s :     3.545667
      pz      :     1.823828  p :     4.440634
      px      :     1.280206
      py      :     1.336600
      dz2     :     0.007616  d :     0.055961
      dxz     :     0.001670
      dyz     :     0.012089
      dx2y2   :     0.018201
      dxy     :     0.016386
      f0      :     0.000363  f :     0.003587
      f+1     :     0.000122
      f-1     :     0.000600
      f+2     :     0.000498
      f-2     :     0.000218
      f+3     :     0.000920
      f-3     :     0.000866
  1 C s       :     2.820823  s :     2.820823
      pz      :     1.094366  p :     2.920584
      px      :     0.991845
      py      :     0.834374
      dz2     :     0.057345  d :     0.523516
      dxz     :     0.093994
      dyz     :     0.117228
      dx2y2   :     0.130742
      dxy     :     0.124207
      f0      :     0.008343  f :     0.067297
      f+1     :     0.005103
      f-1     :     0.007480
      f+2     :     0.013630
      f-2     :     0.002745
      f+3     :     0.011496
      f-3     :     0.018501
  2 C s       :     2.938812  s :     2.938812
      pz      :     1.094869  p :     2.885540
      px      :     1.042147
      py      :     0.748524
      dz2     :     0.035699  d :     0.207000
      dxz     :     0.081502
      dyz     :     0.014609
      dx2y2   :     0.037609
      dxy     :     0.037580
      f0      :     0.002838  f :     0.020264
      f+1     :     0.003125
      f-1     :     0.001079
      f+2     :     0.003083
      f-2     :     0.001007
      f+3     :     0.004554
      f-3     :     0.004577
  3 H s       :     0.830186  s :     0.830186
      pz      :     0.034789  p :     0.067238
      px      :     0.018991
      py      :     0.013459
  4 H s       :     0.839307  s :     0.839307
      pz      :     0.036869  p :     0.080636
      px      :     0.026448
      py      :     0.017320
  5 H s       :     0.807773  s :     0.807773
      pz      :     0.034598  p :     0.065777
      px      :     0.019735
      py      :     0.011443
  6 H s       :     0.810317  s :     0.810317
      pz      :     0.037610  p :     0.069081
      px      :     0.018761
      py      :     0.012710


                      *****************************
                      * MAYER POPULATION ANALYSIS *
                      *****************************

  NA   - Mulliken gross atomic population
  ZA   - Total nuclear charge
  QA   - Mulliken gross atomic charge
  VA   - Mayer's total valence
  BVA  - Mayer's bonded valence
  FA   - Mayer's free valence

  ATOM       NA         ZA         QA         VA         BVA        FA
  0 O      8.3690     8.0000    -0.3690     1.9170     1.9170     0.0000
  1 C      6.0059     6.0000    -0.0059     4.0190     4.0190     0.0000
  2 C      6.1742     6.0000    -0.1742     3.8117     3.8117    -0.0000
  3 H      0.8973     1.0000     0.1027     0.9545     0.9545     0.0000
  4 H      0.8822     1.0000     0.1178     0.9518     0.9518     0.0000
  5 H      0.8339     1.0000     0.1661     0.9581     0.9581    -0.0000
  6 H      0.8376     1.0000     0.1624     0.9577     0.9577    -0.0000

  Mayer bond orders larger than 0.100000
B(  0-O ,  1-C ) :   1.0431 B(  0-O ,  2-C ) :   0.8761 B(  1-C ,  2-C ) :   1.0353 
B(  1-C ,  3-H ) :   0.9639 B(  1-C ,  4-H ) :   0.9683 B(  2-C ,  5-H ) :   0.9440 
B(  2-C ,  6-H ) :   0.9467 

-------
TIMINGS
-------

Total SCF time: 0 days 0 hours 0 min 3 sec 

Total time                  ....       3.013 sec
Sum of individual times     ....       2.696 sec  ( 89.5%)

Fock matrix formation       ....       2.427 sec  ( 80.6%)
  Split-RI-J                ....       0.252 sec  ( 10.4% of F)
  Chain of spheres X        ....       1.657 sec  ( 68.2% of F)
  XC integration            ....       0.449 sec  ( 18.5% of F)
    Basis function eval.    ....       0.120 sec  ( 26.8% of XC)
    Density eval.           ....       0.089 sec  ( 19.8% of XC)
    XC-Functional eval.     ....       0.026 sec  (  5.8% of XC)
    XC-Potential eval.      ....       0.150 sec  ( 33.5% of XC)
Diagonalization             ....       0.016 sec  (  0.5%)
Density matrix formation    ....       0.002 sec  (  0.1%)
Population analysis         ....       0.003 sec  (  0.1%)
Initial guess               ....       0.016 sec  (  0.5%)
Orbital Transformation      ....       0.000 sec  (  0.0%)
Orbital Orthonormalization  ....       0.000 sec  (  0.0%)
DIIS solution               ....       0.013 sec  (  0.4%)
SOSCF solution              ....       0.015 sec  (  0.5%)
Grid generation             ....       0.205 sec  (  6.8%)

Maximum memory used throughout the entire SCF-calculation: 61.0 MB


-------------------------------------------------------------------------------
                          DFT DISPERSION CORRECTION                            
                                                                               
                              DFTD3 V3.1  Rev 1                                
                          USING Becke-Johnson damping                          
-------------------------------------------------------------------------------
The PBE0 functional is recognized
Active option DFTDOPT                   ...         4   

molecular C6(AA) [au] = 388.312432 


            DFT-D V3
 parameters
 s6 scaling factor         :     1.0000 
 a1 scaling factor         :     0.4145 
 s8 scaling factor         :     1.2177 
 a2 scaling factor         :     4.8593 
 ad hoc parameters k1-k3   :    16.0000     1.3333    -4.0000 

 Edisp/kcal,au: -1.631011475731  -0.002599181955 
 E6   /kcal   :  -1.064473018 
 E8   /kcal   :  -0.566538458 
 % E8         :  34.735406000 

-------------------------   ----------------
Dispersion correction           -0.002599182
-------------------------   ----------------


-------------------------   --------------------
FINAL SINGLE POINT ENERGY      -153.592954850921
-------------------------   --------------------



           ************************************************************
           *        Program running with 8 parallel MPI-processes     *
           *              working on a common directory               *
           ************************************************************
------------------------------------------------------------------------------
                         ORCA SCF GRADIENT CALCULATION
------------------------------------------------------------------------------

 ... reading COSX grid (gridx3)
Gradient of the Kohn-Sham DFT energy:
Kohn-Sham wavefunction type      ... RKS
Hartree-Fock exchange scaling    ...    0.250
Number of operators              ...    1
Number of atoms                  ...    7
Basis set dimensions             ...  117
Integral neglect threshold       ... 2.5e-11
Integral primitive cutoff        ... 2.5e-12
SHARK Integral package           ... ON

Nuc. rep. gradient       (SHARK) ... done (  0.0 sec)
HCore & Overlap gradient (SHARK) ... done (  0.0 sec)
RI-J gradient            (SHARK) ... done (  0.1 sec)
COSX-gradient                    ... done (  0.3 sec)
Exchange-correlation gradient    ... done
Dispersion correction            ... done

------------------
CARTESIAN GRADIENT
------------------

   1   O   :   -0.058763980    0.055547381    0.000607458
   2   C   :   -0.108284458   -0.055976535   -0.057735930
   3   C   :    0.101909120   -0.027537951    0.011832802
   4   H   :    0.007609483    0.017719630   -0.030645727
   5   H   :    0.045934100    0.033928706    0.087343156
   6   H   :    0.010920910   -0.012831008   -0.007530321
   7   H   :    0.000773516   -0.010795373   -0.003828229

Difference to translation invariance:
           :    0.0000986898    0.0000548507    0.0000432098

Difference to rotation invariance:
           :   -0.0000272072    0.0000321273   -0.0001103574

Norm of the cartesian gradient     ...    0.2206549766
RMS gradient                       ...    0.0481508635
MAX gradient                       ...    0.1082844582

-------
TIMINGS
-------

Total SCF gradient time            ...        0.686 sec

One electron gradient       ....       0.010 sec  (  1.4%)
RI-J Coulomb gradient       ....       0.074 sec  ( 10.8%)
COSX gradient               ....       0.307 sec  ( 44.8%)
XC gradient                 ....       0.145 sec  ( 21.2%)

Maximum memory used throughout the entire SCFGRAD-calculation: 35.9 MB

                            ***************************************
                            *     ORCA property calculations      *
                            ***************************************

                                    ---------------------
                                    Active property flags
                                    ---------------------
   (+) Dipole Moment


------------------------------------------------------------------------------
                       ORCA ELECTRIC PROPERTIES CALCULATION
------------------------------------------------------------------------------

Dipole Moment Calculation                       ... on
Quadrupole Moment Calculation                   ... off
Polarizability Calculation                      ... off
GBWName                                         ... ox_gs_C_orca0008.gbw
Electron density                                ... ox_gs_C_orca0008.scfp
The origin for moment calculation is the CENTER OF MASS  = (-0.310451,  0.089330 -0.067543)

-------------
DIPOLE MOMENT
-------------
                                X             Y             Z
Electronic contribution:     -0.33391       1.46834      -0.10954
Nuclear contribution   :      0.64148      -2.56162       0.09979
                        -----------------------------------------
Total Dipole Moment    :      0.30757      -1.09328      -0.00976
                        -----------------------------------------
Magnitude (a.u.)       :      1.13576
Magnitude (Debye)      :      2.88688



--------------------
Rotational spectrum 
--------------------
 
Rotational constants in cm-1:     0.911357     0.490642     0.362618 
Rotational constants in MHz : 27321.782476 14709.075819 10871.019038 

 Dipole components along the rotational axes: 
x,y,z [a.u.] :    -0.932186    -0.648758    -0.010125 
x,y,z [Debye]:    -2.369429    -1.649011    -0.025736 

 

Timings for individual modules:

Sum of individual times         ...        4.370 sec (=   0.073 min)
GTO integral calculation        ...        0.302 sec (=   0.005 min)   6.9 %
SCF iterations                  ...        3.192 sec (=   0.053 min)  73.0 %
SCF Gradient evaluation         ...        0.876 sec (=   0.015 min)  20.0 %
                             ****ORCA TERMINATED NORMALLY****
TOTAL RUN TIME: 0 days 0 hours 0 minutes 4 seconds 684 msec
