
                                 *****************
                                 * O   R   C   A *
                                 *****************

                                            #,                                       
                                            ###                                      
                                            ####                                     
                                            #####                                    
                                            ######                                   
                                           ########,                                 
                                     ,,################,,,,,                         
                               ,,#################################,,                 
                          ,,##########################################,,             
                       ,#########################################, ''#####,          
                    ,#############################################,,   '####,        
                  ,##################################################,,,,####,       
                ,###########''''           ''''###############################       
              ,#####''   ,,,,##########,,,,          '''####'''          '####       
            ,##' ,,,,###########################,,,                        '##       
           ' ,,###''''                  '''############,,,                           
         ,,##''                                '''############,,,,        ,,,,,,###''
      ,#''                                            '''#######################'''  
     '                                                          ''''####''''         
             ,#######,   #######,   ,#######,      ##                                
            ,#'     '#,  ##    ##  ,#'     '#,    #''#        ######   ,####,        
            ##       ##  ##   ,#'  ##            #'  '#       #        #'  '#        
            ##       ##  #######   ##           ,######,      #####,   #    #        
            '#,     ,#'  ##    ##  '#,     ,#' ,#      #,         ##   #,  ,#        
             '#######'   ##     ##  '#######'  #'      '#     #####' # '####'        



                  #######################################################
                  #                        -***-                        #
                  #          Department of theory and spectroscopy      #
                  #    Directorship and core code : Frank Neese         #
                  #        Max Planck Institute fuer Kohlenforschung    #
                  #                Kaiser Wilhelm Platz 1               #
                  #                 D-45470 Muelheim/Ruhr               #
                  #                      Germany                        #
                  #                                                     #
                  #                  All rights reserved                #
                  #                        -***-                        #
                  #######################################################


                         Program Version 5.0.2 -  RELEASE  -


 With contributions from (in alphabetic order):
   Daniel Aravena         : Magnetic Suceptibility
   Michael Atanasov       : Ab Initio Ligand Field Theory (pilot matlab implementation)
   Alexander A. Auer      : GIAO ZORA, VPT2 properties, NMR spectrum
   Ute Becker             : Parallelization
   Giovanni Bistoni       : ED, misc. LED, open-shell LED, HFLD
   Martin Brehm           : Molecular dynamics
   Dmytro Bykov           : SCF Hessian
   Vijay G. Chilkuri      : MRCI spin determinant printing, contributions to CSF-ICE
   Dipayan Datta          : RHF DLPNO-CCSD density
   Achintya Kumar Dutta   : EOM-CC, STEOM-CC
   Dmitry Ganyushin       : Spin-Orbit,Spin-Spin,Magnetic field MRCI
   Miquel Garcia          : C-PCM and meta-GGA Hessian, CC/C-PCM, Gaussian charge scheme
   Yang Guo               : DLPNO-NEVPT2, F12-NEVPT2, CIM, IAO-localization
   Andreas Hansen         : Spin unrestricted coupled pair/coupled cluster methods
   Benjamin Helmich-Paris : MC-RPA, TRAH-SCF, COSX integrals
   Lee Huntington         : MR-EOM, pCC
   Robert Izsak           : Overlap fitted RIJCOSX, COSX-SCS-MP3, EOM
   Marcus Kettner         : VPT2
   Christian Kollmar      : KDIIS, OOCD, Brueckner-CCSD(T), CCSD density, CASPT2, CASPT2-K
   Simone Kossmann        : Meta GGA functionals, TD-DFT gradient, OOMP2, MP2 Hessian
   Martin Krupicka        : Initial AUTO-CI
   Lucas Lang             : DCDCAS
   Marvin Lechner         : AUTO-CI (C++ implementation), FIC-MRCC
   Dagmar Lenk            : GEPOL surface, SMD
   Dimitrios Liakos       : Extrapolation schemes; Compound Job, initial MDCI parallelization
   Dimitrios Manganas     : Further ROCIS development; embedding schemes
   Dimitrios Pantazis     : SARC Basis sets
   Anastasios Papadopoulos: AUTO-CI, single reference methods and gradients
   Taras Petrenko         : DFT Hessian,TD-DFT gradient, ASA, ECA, R-Raman, ABS, FL, XAS/XES, NRVS
   Peter Pinski           : DLPNO-MP2, DLPNO-MP2 Gradient
   Christoph Reimann      : Effective Core Potentials
   Marius Retegan         : Local ZFS, SOC
   Christoph Riplinger    : Optimizer, TS searches, QM/MM, DLPNO-CCSD(T), (RO)-DLPNO pert. Triples
   Tobias Risthaus        : Range-separated hybrids, TD-DFT gradient, RPA, STAB
   Michael Roemelt        : Original ROCIS implementation
   Masaaki Saitow         : Open-shell DLPNO-CCSD energy and density
   Barbara Sandhoefer     : DKH picture change effects
   Avijit Sen             : IP-ROCIS
   Kantharuban Sivalingam : CASSCF convergence, NEVPT2, FIC-MRCI
   Bernardo de Souza      : ESD, SOC TD-DFT
   Georgi Stoychev        : AutoAux, RI-MP2 NMR, DLPNO-MP2 response
   Willem Van den Heuvel  : Paramagnetic NMR
   Boris Wezisla          : Elementary symmetry handling
   Frank Wennmohs         : Technical directorship


 We gratefully acknowledge several colleagues who have allowed us to
 interface, adapt or use parts of their codes:
   Stefan Grimme, W. Hujo, H. Kruse, P. Pracht,  : VdW corrections, initial TS optimization,
                  C. Bannwarth, S. Ehlert          DFT functionals, gCP, sTDA/sTD-DF
   Ed Valeev, F. Pavosevic, A. Kumar             : LibInt (2-el integral package), F12 methods
   Garnet Chan, S. Sharma, J. Yang, R. Olivares  : DMRG
   Ulf Ekstrom                                   : XCFun DFT Library
   Mihaly Kallay                                 : mrcc  (arbitrary order and MRCC methods)
   Jiri Pittner, Ondrej Demel                    : Mk-CCSD
   Frank Weinhold                                : gennbo (NPA and NBO analysis)
   Christopher J. Cramer and Donald G. Truhlar   : smd solvation model
   Lars Goerigk                                  : TD-DFT with DH, B97 family of functionals
   V. Asgeirsson, H. Jonsson                     : NEB implementation
   FAccTs GmbH                                   : IRC, NEB, NEB-TS, DLPNO-Multilevel, CI-OPT
                                                   MM, QMMM, 2- and 3-layer-ONIOM, Crystal-QMMM,
                                                   LR-CPCM, SF, NACMEs, symmetry and pop. for TD-DFT,
                                                   nearIR, NL-DFT gradient (VV10), updates on ESD,
                                                   ML-optimized integration grids
   S Lehtola, MJT Oliveira, MAL Marques          : LibXC Library
   Liviu Ungur et al                             : ANISO software


 Your calculation uses the libint2 library for the computation of 2-el integrals
 For citations please refer to: http://libint.valeyev.net

 Your ORCA version has been built with support for libXC version: 5.1.0
 For citations please refer to: https://tddft.org/programs/libxc/

 This ORCA versions uses:
   CBLAS   interface :  Fast vector & matrix operations
   LAPACKE interface :  Fast linear algebra routines
   SCALAPACK package :  Parallel linear algebra routines
   Shared memory     :  Shared parallel matrices
   BLAS/LAPACK       :  OpenBLAS 0.3.15  USE64BITINT DYNAMIC_ARCH NO_AFFINITY SkylakeX SINGLE_THREADED
        Core in use  :  SkylakeX
   Copyright (c) 2011-2014, The OpenBLAS Project


Your calculation utilizes the atom-pairwise dispersion correction
with the Becke-Johnson damping scheme (D3BJ)
Cite in your paper:
S.Grimme, S.Ehrlich, L.Goerigk, J Comput Chem, (2011), 32, 1456–1465 
S.Grimme, J.Antony, S.Ehrlich and H.Krieg, J.Chem.Phys., 132, (2010), 154104 
   

================================================================================

----- Orbital basis set information -----
Your calculation utilizes the basis: def2-TZVP
   F. Weigend and R. Ahlrichs, Phys. Chem. Chem. Phys. 7, 3297 (2005).

----- AuxJ basis set information -----
Your calculation utilizes the auxiliary basis: def2/J
   F. Weigend, Phys. Chem. Chem. Phys. 8, 1057 (2006).

================================================================================
                                        WARNINGS
                       Please study these warnings very carefully!
================================================================================


INFO   : the flag for use of the SHARK integral package has been found!

================================================================================
                                       INPUT FILE
================================================================================
NAME = ox_gs_A_orca0018.inp
|  1> ! engrad PBE0 D3BJ def2-TZVP  
|  2> %pal nprocs 8 end
|  3> %maxcore 3000
|  4>  
|  5> *xyz 0 1 
|  6> O   0.10949019666088362 0.7265093957322425 -0.04198598210903881
|  7> C   -0.758859222272201 -0.5532152762154904 -0.026287751084038052
|  8> C   0.690932906922315 -0.43950080067618963 0.017087798788857973
|  9> H   -1.1700143880392055 -0.6207496180906975 0.8911310372168798
| 10> H   -1.308743503567418 -0.6436749514246748 -0.9859878803510321
| 11> H   1.3553957582927176 -0.6092988539639357 -0.9434350026052353
| 12> H   1.1781661435454562 -0.6005771912917294 0.9142491777373691
| 13> *
| 14> 
| 15>                          ****END OF INPUT****
================================================================================

                     *******************************
                     * Energy+Gradient Calculation *
                     *******************************

---------------------------------
CARTESIAN COORDINATES (ANGSTROEM)
---------------------------------
  O      0.109490    0.726509   -0.041986
  C     -0.758859   -0.553215   -0.026288
  C      0.690933   -0.439501    0.017088
  H     -1.170014   -0.620750    0.891131
  H     -1.308744   -0.643675   -0.985988
  H      1.355396   -0.609299   -0.943435
  H      1.178166   -0.600577    0.914249

----------------------------
CARTESIAN COORDINATES (A.U.)
----------------------------
  NO LB      ZA    FRAG     MASS         X           Y           Z
   0 O     8.0000    0    15.999    0.206906    1.372904   -0.079342
   1 C     6.0000    0    12.011   -1.434036   -1.045425   -0.049677
   2 C     6.0000    0    12.011    1.305674   -0.830536    0.032291
   3 H     1.0000    0     1.008   -2.211007   -1.173047    1.683994
   4 H     1.0000    0     1.008   -2.473167   -1.216369   -1.863247
   5 H     1.0000    0     1.008    2.561327   -1.151408   -1.782834
   6 H     1.0000    0     1.008    2.226411   -1.134926    1.727681

--------------------------------
INTERNAL COORDINATES (ANGSTROEM)
--------------------------------
 O      0   0   0     0.000000000000     0.00000000     0.00000000
 C      1   0   0     1.546600266329     0.00000000     0.00000000
 C      1   2   0     1.304279538686    60.66670444     0.00000000
 H      2   1   3     1.007604431708   107.08586409   105.64203460
 H      2   1   3     1.109765747250   109.68622235   244.58978796
 H      3   1   2     1.180231465328   110.04366846   117.11052226
 H      3   1   2     1.033557144216   112.87952030   246.72491958

---------------------------
INTERNAL COORDINATES (A.U.)
---------------------------
 O      0   0   0     0.000000000000     0.00000000     0.00000000
 C      1   0   0     2.922650942012     0.00000000     0.00000000
 C      1   2   0     2.464731130193    60.66670444     0.00000000
 H      2   1   3     1.904096427253   107.08586409   105.64203460
 H      2   1   3     2.097153335109   109.68622235   244.58978796
 H      3   1   2     2.230314244106   110.04366846   117.11052226
 H      3   1   2     1.953139946327   112.87952030   246.72491958

---------------------
BASIS SET INFORMATION
---------------------
There are 3 groups of distinct atoms

 Group   1 Type O   : 11s6p2d1f contracted to 5s3p2d1f pattern {62111/411/11/1}
 Group   2 Type C   : 11s6p2d1f contracted to 5s3p2d1f pattern {62111/411/11/1}
 Group   3 Type H   : 5s1p contracted to 3s1p pattern {311/1}

Atom   0O    basis set group =>   1
Atom   1C    basis set group =>   2
Atom   2C    basis set group =>   2
Atom   3H    basis set group =>   3
Atom   4H    basis set group =>   3
Atom   5H    basis set group =>   3
Atom   6H    basis set group =>   3
---------------------------------
AUXILIARY/J BASIS SET INFORMATION
---------------------------------
There are 3 groups of distinct atoms

 Group   1 Type O   : 12s5p4d2f1g contracted to 6s4p3d1f1g pattern {711111/2111/211/2/1}
 Group   2 Type C   : 12s5p4d2f1g contracted to 6s4p3d1f1g pattern {711111/2111/211/2/1}
 Group   3 Type H   : 5s2p1d contracted to 3s1p1d pattern {311/2/1}

Atom   0O    basis set group =>   1
Atom   1C    basis set group =>   2
Atom   2C    basis set group =>   2
Atom   3H    basis set group =>   3
Atom   4H    basis set group =>   3
Atom   5H    basis set group =>   3
Atom   6H    basis set group =>   3


           ************************************************************
           *        Program running with 8 parallel MPI-processes     *
           *              working on a common directory               *
           ************************************************************
------------------------------------------------------------------------------
                           ORCA GTO INTEGRAL CALCULATION
                           -- RI-GTO INTEGRALS CHOSEN --
------------------------------------------------------------------------------
------------------------------------------------------------------------------
                   ___                                                        
                  /   \      - P O W E R E D   B Y -                         
                 /     \                                                     
                 |  |  |   _    _      __       _____    __    __             
                 |  |  |  | |  | |    /  \     |  _  \  |  |  /  |          
                  \  \/   | |  | |   /    \    | | | |  |  | /  /          
                 / \  \   | |__| |  /  /\  \   | |_| |  |  |/  /          
                |  |  |   |  __  | /  /__\  \  |    /   |      \           
                |  |  |   | |  | | |   __   |  |    \   |  |\   \          
                \     /   | |  | | |  |  |  |  | |\  \  |  | \   \       
                 \___/    |_|  |_| |__|  |__|  |_| \__\ |__|  \__/        
                                                                              
                      - O R C A' S   B I G   F R I E N D -                    
                                      &                                       
                       - I N T E G R A L  F E E D E R -                       
                                                                              
 v1 FN, 2020, v2 2021                                                         
------------------------------------------------------------------------------


Reading SHARK input file ox_gs_A_orca0018.SHARKINP.tmp ... ok
----------------------
SHARK INTEGRAL PACKAGE
----------------------

Number of atoms                             ...      7
Number of basis functions                   ...    117
Number of shells                            ...     49
Maximum angular momentum                    ...      3
Integral batch strategy                     ... SHARK/LIBINT Hybrid
RI-J (if used) integral strategy            ... SPLIT-RIJ (Revised 2003 algorithm where possible)
Printlevel                                  ...      1
Contraction scheme used                     ... SEGMENTED contraction
Coulomb Range Separation                    ... NOT USED
Exchange Range Separation                   ... NOT USED
Finite Nucleus Model                        ... NOT USED
Auxiliary Coulomb fitting basis             ... AVAILABLE
   # of basis functions in Aux-J            ...    191
   # of shells in Aux-J                     ...     65
   Maximum angular momentum in Aux-J        ...      4
Auxiliary J/K fitting basis                 ... NOT available
Auxiliary Correlation fitting basis         ... NOT available
Auxiliary 'external' fitting basis          ... NOT available
Integral threshold                          ...     2.500000e-11
Primitive cut-off                           ...     2.500000e-12
Primitive pair pre-selection threshold      ...     2.500000e-12

Calculating pre-screening integrals         ... done (  0.0 sec) Dimension = 49
Organizing shell pair data                  ... done (  0.0 sec)
Shell pair information
Total number of shell pairs                 ...      1225
Shell pairs after pre-screening             ...      1221
Total number of primitive shell pairs       ...      3648
Primitive shell pairs kept                  ...      3156
          la=0 lb=0:    374 shell pairs
          la=1 lb=0:    351 shell pairs
          la=1 lb=1:     91 shell pairs
          la=2 lb=0:    162 shell pairs
          la=2 lb=1:     78 shell pairs
          la=2 lb=2:     21 shell pairs
          la=3 lb=0:     81 shell pairs
          la=3 lb=1:     39 shell pairs
          la=3 lb=2:     18 shell pairs
          la=3 lb=3:      6 shell pairs

Calculating one electron integrals          ... done (  0.0 sec)
Calculating RI/J V-Matrix + Cholesky decomp.... done (  0.0 sec)
Calculating Nuclear repulsion               ... done (  0.0 sec) ENN=     76.114277477210 Eh

SHARK setup successfully completed in   0.1 seconds

Maximum memory used throughout the entire GTOINT-calculation: 14.9 MB


           ************************************************************
           *        Program running with 8 parallel MPI-processes     *
           *              working on a common directory               *
           ************************************************************
-------------------------------------------------------------------------------
                                 ORCA SCF
-------------------------------------------------------------------------------

------------
SCF SETTINGS
------------
Hamiltonian:
 Density Functional     Method          .... DFT(GTOs)
 Exchange Functional    Exchange        .... PBE
   PBE kappa parameter   XKappa         ....  0.804000
   PBE mue parameter    XMuePBE         ....  0.219520
 Correlation Functional Correlation     .... PBE
   PBE beta parameter  CBetaPBE         ....  0.066725
 LDA part of GGA corr.  LDAOpt          .... PW91-LDA
 Gradients option       PostSCFGGA      .... off
 Hybrid DFT is turned on
   Fraction HF Exchange ScalHFX         ....  0.250000
   Scaling of DF-GGA-X  ScalDFX         ....  0.750000
   Scaling of DF-GGA-C  ScalDFC         ....  1.000000
   Scaling of DF-LDA-C  ScalLDAC        ....  1.000000
   Perturbative correction              ....  0.000000
   Density functional embedding theory  .... OFF
   NL short-range parameter             ....  6.900000
 RI-approximation to the Coulomb term is turned on
   Number of AuxJ basis functions       .... 191
   RIJ-COSX (HFX calculated with COS-X)).... on


General Settings:
 Integral files         IntName         .... ox_gs_A_orca0018
 Hartree-Fock type      HFTyp           .... RHF
 Total Charge           Charge          ....    0
 Multiplicity           Mult            ....    1
 Number of Electrons    NEL             ....   24
 Basis Dimension        Dim             ....  117
 Nuclear Repulsion      ENuc            ....     76.1142774772 Eh

Convergence Acceleration:
 DIIS                   CNVDIIS         .... on
   Start iteration      DIISMaxIt       ....    12
   Startup error        DIISStart       ....  0.200000
   # of expansion vecs  DIISMaxEq       ....     5
   Bias factor          DIISBfac        ....   1.050
   Max. coefficient     DIISMaxC        ....  10.000
 Trust-Rad. Augm. Hess. CNVTRAH         .... auto
   Auto Start mean grad. ratio tolernc. ....  1.125000
   Auto Start start iteration           ....    20
   Auto Start num. interpolation iter.  ....    10
   Max. Number of Micro iterations      ....    16
   Max. Number of Macro iterations      .... Maxiter - #DIIS iter
   Number of Davidson start vectors     ....     2
   Converg. threshold I  (grad. norm)   ....   1.000e-05
   Converg. threshold II (energy diff.) ....   1.000e-08
   Grad. Scal. Fac. for Micro threshold ....   0.100
   Minimum threshold for Micro iter.    ....   0.010
   NR start threshold (gradient norm)   ....   0.001
   Initial trust radius                 ....   0.400
   Minimum AH scaling param. (alpha)    ....   1.000
   Maximum AH scaling param. (alpha)    .... 1000.000
   Orbital update algorithm             .... Taylor
   White noise on init. David. guess    .... on
   Maximum white noise                  ....   0.010
   Quad. conv. algorithm                .... NR
 SOSCF                  CNVSOSCF        .... on
   Start iteration      SOSCFMaxIt      ....   150
   Startup grad/error   SOSCFStart      ....  0.003300
 Level Shifting         CNVShift        .... on
   Level shift para.    LevelShift      ....    0.2500
   Turn off err/grad.   ShiftErr        ....    0.0010
 Zerner damping         CNVZerner       .... off
 Static damping         CNVDamp         .... on
   Fraction old density DampFac         ....    0.7000
   Max. Damping (<1)    DampMax         ....    0.9800
   Min. Damping (>=0)   DampMin         ....    0.0000
   Turn off err/grad.   DampErr         ....    0.1000
 Fernandez-Rico         CNVRico         .... off

SCF Procedure:
 Maximum # iterations   MaxIter         ....   125
 SCF integral mode      SCFMode         .... Direct
   Integral package                     .... SHARK and LIBINT hybrid scheme
 Reset frequency        DirectResetFreq ....    20
 Integral Threshold     Thresh          ....  2.500e-11 Eh
 Primitive CutOff       TCut            ....  2.500e-12 Eh

Convergence Tolerance:
 Convergence Check Mode ConvCheckMode   .... Total+1el-Energy
 Convergence forced     ConvForced      .... 0
 Energy Change          TolE            ....  1.000e-08 Eh
 1-El. energy change                    ....  1.000e-05 Eh
 Orbital Gradient       TolG            ....  1.000e-05
 Orbital Rotation angle TolX            ....  1.000e-05
 DIIS Error             TolErr          ....  5.000e-07


Diagonalization of the overlap matrix:
Smallest eigenvalue                        ... 3.531e-04
Time for diagonalization                   ...    0.001 sec
Threshold for overlap eigenvalues          ... 1.000e-08
Number of eigenvalues below threshold      ... 0
Time for construction of square roots      ...    0.001 sec
Total time needed                          ...    0.003 sec

Time for model grid setup =    0.022 sec

------------------------------
INITIAL GUESS: MODEL POTENTIAL
------------------------------
Loading Hartree-Fock densities                     ... done
Calculating cut-offs                               ... done
Initializing the effective Hamiltonian             ... done
Setting up the integral package (SHARK)            ... done
Starting the Coulomb interaction                   ... done (   0.0 sec)
Reading the grid                                   ... done
Mapping shells                                     ... done
Starting the XC term evaluation                    ... done (   0.0 sec)
  promolecular density results
     # of electrons  =     23.998016304
     EX              =    -19.563396828
     EC              =     -0.784409178
     EX+EC           =    -20.347806006
Transforming the Hamiltonian                       ... done (   0.0 sec)
Diagonalizing the Hamiltonian                      ... done (   0.0 sec)
Back transforming the eigenvectors                 ... done (   0.0 sec)
Now organizing SCF variables                       ... done
                      ------------------
                      INITIAL GUESS DONE (   0.0 sec)
                      ------------------
-------------------
DFT GRID GENERATION
-------------------

General Integration Accuracy     IntAcc      ... 4.388
Radial Grid Type                 RadialGrid  ... OptM3 with GC (2021)
Angular Grid (max. ang.)         AngularGrid ... 4 (Lebedev-302)
Angular grid pruning method      GridPruning ... 4 (adaptive)
Weight generation scheme         WeightScheme... Becke
Basis function cutoff            BFCut       ... 1.0000e-11
Integration weight cutoff        WCut        ... 1.0000e-14
Angular grids for H and He will be reduced by one unit
Partially contracted basis set               ... off
Rotationally invariant grid construction     ... off

Total number of grid points                  ...    31296
Total number of batches                      ...      493
Average number of points per batch           ...       63
Average number of grid points per atom       ...     4471
Time for grid setup =    0.112 sec

--------------------
COSX GRID GENERATION
--------------------

GRIDX 1
-------
General Integration Accuracy     IntAcc      ... 3.816
Radial Grid Type                 RadialGrid  ... OptM3 with GC (2021)
Angular Grid (max. ang.)         AngularGrid ... 1 (Lebedev-50)
Angular grid pruning method      GridPruning ... 4 (adaptive)
Weight generation scheme         WeightScheme... Becke
Basis function cutoff            BFCut       ... 1.0000e-11
Integration weight cutoff        WCut        ... 1.0000e-14
Angular grids for H and He will be reduced by one unit
Partially contracted basis set               ... on
Rotationally invariant grid construction     ... off

Total number of grid points                  ...     4035
Total number of batches                      ...       67
Average number of points per batch           ...       60
Average number of grid points per atom       ...      576
UseSFitting                                  ... on

GRIDX 2
-------
General Integration Accuracy     IntAcc      ... 4.020
Radial Grid Type                 RadialGrid  ... OptM3 with GC (2021)
Angular Grid (max. ang.)         AngularGrid ... 2 (Lebedev-110)
Angular grid pruning method      GridPruning ... 4 (adaptive)
Weight generation scheme         WeightScheme... Becke
Basis function cutoff            BFCut       ... 1.0000e-11
Integration weight cutoff        WCut        ... 1.0000e-14
Angular grids for H and He will be reduced by one unit
Partially contracted basis set               ... on
Rotationally invariant grid construction     ... off

Total number of grid points                  ...     8708
Total number of batches                      ...      140
Average number of points per batch           ...       62
Average number of grid points per atom       ...     1244
UseSFitting                                  ... on

GRIDX 3
-------
General Integration Accuracy     IntAcc      ... 4.338
Radial Grid Type                 RadialGrid  ... OptM3 with GC (2021)
Angular Grid (max. ang.)         AngularGrid ... 3 (Lebedev-194)
Angular grid pruning method      GridPruning ... 4 (adaptive)
Weight generation scheme         WeightScheme... Becke
Basis function cutoff            BFCut       ... 1.0000e-11
Integration weight cutoff        WCut        ... 1.0000e-14
Angular grids for H and He will be reduced by one unit
Partially contracted basis set               ... on
Rotationally invariant grid construction     ... off

Total number of grid points                  ...    19223
Total number of batches                      ...      302
Average number of points per batch           ...       63
Average number of grid points per atom       ...     2746
UseSFitting                                  ... on

Time for X-Grid setup             =    0.072 sec

--------------
SCF ITERATIONS
--------------
ITER       Energy         Delta-E        Max-DP      RMS-DP      [F,P]     Damp
               ***  Starting incremental Fock matrix formation  ***
  0   -153.5710193099   0.000000000000 0.03627731  0.00127920  0.1886686 0.7000
  1   -153.6046586376  -0.033639327724 0.02021536  0.00093639  0.0773902 0.7000
                               ***Turning on DIIS***
  2   -153.6179051280  -0.013246490447 0.03022769  0.00153413  0.0350676 0.0000
  3   -153.6395843439  -0.021679215875 0.01619602  0.00071378  0.0427155 0.0000
  4   -153.6438328263  -0.004248482404 0.00404740  0.00020609  0.0097650 0.0000
  5   -153.6440761268  -0.000243300512 0.00161428  0.00007048  0.0039345 0.0000
                      *** Initiating the SOSCF procedure ***
                           *** Shutting down DIIS ***
                      *** Re-Reading the Fockian *** 
                      *** Removing any level shift *** 
ITER      Energy       Delta-E        Grad      Rot      Max-DP    RMS-DP
  6   -153.64410216  -0.0000260378  0.000132  0.000132  0.001134  0.000035
               *** Restarting incremental Fock matrix formation ***
  7   -153.64408970   0.0000124671  0.000102  0.000272  0.000200  0.000008
  8   -153.64408952   0.0000001741  0.000184  0.000191  0.000126  0.000005
  9   -153.64408985  -0.0000003246  0.000017  0.000024  0.000046  0.000002
 10   -153.64408984   0.0000000078  0.000023  0.000014  0.000028  0.000001
                  ***Gradient check signals convergence***
              ***Rediagonalizing the Fockian in SOSCF/NRSCF***

               *****************************************************
               *                     SUCCESS                       *
               *           SCF CONVERGED AFTER  11 CYCLES          *
               *****************************************************

Old exchange energy                            =     -5.006639095 Eh
New exchange energy                            =     -5.006631980 Eh
Exchange energy change after final integration =      0.000007115 Eh
Total energy after final integration           =   -153.644082740 Eh
Final COS-X integration done in                =     0.263 sec

----------------
TOTAL SCF ENERGY
----------------

Total Energy       :         -153.64408274 Eh           -4180.86804 eV

Components:
Nuclear Repulsion  :           76.11427748 Eh            2071.17479 eV
Electronic Energy  :         -229.75836022 Eh           -6252.04283 eV
One Electron Energy:         -358.80895998 Eh           -9763.68818 eV
Two Electron Energy:          129.05059976 Eh            3511.64535 eV
Max COSX asymmetry :            0.00000267 Eh               0.00007 eV

Virial components:
Potential Energy   :         -306.82647418 Eh           -8349.17283 eV
Kinetic Energy     :          153.18239144 Eh            4168.30478 eV
Virial Ratio       :            2.00301400


DFT components:
N(Alpha)           :       12.000003417192 electrons
N(Beta)            :       12.000003417192 electrons
N(Total)           :       24.000006834383 electrons
E(X)               :      -14.988336096039 Eh       
E(C)               :       -0.791792631454 Eh       
E(XC)              :      -15.780128727494 Eh       
DFET-embed. en.    :        0.000000000000 Eh       

---------------
SCF CONVERGENCE
---------------

  Last Energy change         ...   -1.4588e-08  Tolerance :   1.0000e-08
  Last MAX-Density change    ...    6.6613e-16  Tolerance :   1.0000e-07
  Last RMS-Density change    ...    2.0844e-17  Tolerance :   5.0000e-09
  Last Orbital Gradient      ...    6.3997e-07  Tolerance :   1.0000e-05
  Last Orbital Rotation      ...    8.6735e-07  Tolerance :   1.0000e-05

             **** THE GBW FILE WAS UPDATED (ox_gs_A_orca0018.gbw) ****
             **** DENSITY ox_gs_A_orca0018.scfp WAS UPDATED ****
             **** ENERGY FILE WAS UPDATED (ox_gs_A_orca0018.en.tmp) ****
             **** THE GBW FILE WAS UPDATED (ox_gs_A_orca0018.gbw) ****
             **** DENSITY ox_gs_A_orca0018.scfp WAS UPDATED ****
----------------
ORBITAL ENERGIES
----------------

  NO   OCC          E(Eh)            E(eV) 
   0   2.0000     -19.214282      -522.8472 
   1   2.0000     -10.276725      -279.6439 
   2   2.0000     -10.271804      -279.5100 
   3   2.0000      -1.119456       -30.4619 
   4   2.0000      -0.713082       -19.4039 
   5   2.0000      -0.648224       -17.6391 
   6   2.0000      -0.544142       -14.8068 
   7   2.0000      -0.499734       -13.5985 
   8   2.0000      -0.420439       -11.4407 
   9   2.0000      -0.406583       -11.0637 
  10   2.0000      -0.327813        -8.9202 
  11   2.0000      -0.279236        -7.5984 
  12   0.0000       0.045242         1.2311 
  13   0.0000       0.062261         1.6942 
  14   0.0000       0.084411         2.2969 
  15   0.0000       0.097552         2.6545 
  16   0.0000       0.126190         3.4338 
  17   0.0000       0.152139         4.1399 
  18   0.0000       0.187523         5.1028 
  19   0.0000       0.207732         5.6527 
  20   0.0000       0.260395         7.0857 
  21   0.0000       0.270724         7.3668 
  22   0.0000       0.291920         7.9435 
  23   0.0000       0.342569         9.3218 
  24   0.0000       0.396085        10.7780 
  25   0.0000       0.401867        10.9354 
  26   0.0000       0.425176        11.5696 
  27   0.0000       0.445685        12.1277 
  28   0.0000       0.463438        12.6108 
  29   0.0000       0.485580        13.2133 
  30   0.0000       0.507730        13.8160 
  31   0.0000       0.525098        14.2886 
  32   0.0000       0.565501        15.3881 
  33   0.0000       0.686880        18.6910 
  34   0.0000       0.697018        18.9668 
  35   0.0000       0.748935        20.3796 
  36   0.0000       0.815350        22.1868 
  37   0.0000       0.831823        22.6351 
  38   0.0000       0.880149        23.9501 
  39   0.0000       0.929814        25.3015 
  40   0.0000       1.015438        27.6315 
  41   0.0000       1.046559        28.4783 
  42   0.0000       1.067305        29.0429 
  43   0.0000       1.078817        29.3561 
  44   0.0000       1.197545        32.5869 
  45   0.0000       1.353961        36.8431 
  46   0.0000       1.439086        39.1595 
  47   0.0000       1.495437        40.6929 
  48   0.0000       1.518889        41.3311 
  49   0.0000       1.536466        41.8094 
  50   0.0000       1.606172        43.7062 
  51   0.0000       1.639492        44.6128 
  52   0.0000       1.666577        45.3499 
  53   0.0000       1.680708        45.7344 
  54   0.0000       1.762881        47.9704 
  55   0.0000       1.797980        48.9255 
  56   0.0000       1.825915        49.6857 
  57   0.0000       1.860426        50.6248 
  58   0.0000       1.953688        53.1626 
  59   0.0000       2.044366        55.6300 
  60   0.0000       2.098198        57.0949 
  61   0.0000       2.139711        58.2245 
  62   0.0000       2.221004        60.4366 
  63   0.0000       2.255297        61.3697 
  64   0.0000       2.301397        62.6242 
  65   0.0000       2.400042        65.3085 
  66   0.0000       2.445081        66.5340 
  67   0.0000       2.481194        67.5167 
  68   0.0000       2.572039        69.9887 
  69   0.0000       2.610440        71.0337 
  70   0.0000       2.619461        71.2791 
  71   0.0000       2.651296        72.1454 
  72   0.0000       2.698111        73.4193 
  73   0.0000       2.770359        75.3853 
  74   0.0000       2.807590        76.3984 
  75   0.0000       2.868090        78.0447 
  76   0.0000       2.926104        79.6233 
  77   0.0000       2.959713        80.5379 
  78   0.0000       2.966468        80.7217 
  79   0.0000       3.044675        82.8498 
  80   0.0000       3.074174        83.6525 
  81   0.0000       3.099583        84.3439 
  82   0.0000       3.149199        85.6941 
  83   0.0000       3.287539        89.4585 
  84   0.0000       3.307335        89.9972 
  85   0.0000       3.331253        90.6480 
  86   0.0000       3.387428        92.1766 
  87   0.0000       3.425660        93.2170 
  88   0.0000       3.552467        96.6675 
  89   0.0000       3.603551        98.0576 
  90   0.0000       3.664215        99.7083 
  91   0.0000       3.744406       101.8905 
  92   0.0000       3.895021       105.9889 
  93   0.0000       3.994398       108.6931 
  94   0.0000       4.067775       110.6898 
  95   0.0000       4.110736       111.8588 
  96   0.0000       4.139905       112.6525 
  97   0.0000       4.345840       118.2563 
  98   0.0000       4.389511       119.4447 
  99   0.0000       4.565625       124.2370 
 100   0.0000       4.718772       128.4043 
 101   0.0000       4.921010       133.9075 
 102   0.0000       5.350027       145.5816 
 103   0.0000       5.404893       147.0746 
 104   0.0000       5.585415       151.9869 
 105   0.0000       5.790076       157.5560 
 106   0.0000       5.925767       161.2483 
 107   0.0000       5.987586       162.9305 
 108   0.0000       6.147237       167.2748 
 109   0.0000       6.628351       180.3666 
 110   0.0000       6.632315       180.4745 
 111   0.0000       6.845404       186.2729 
 112   0.0000       6.981583       189.9785 
 113   0.0000       7.189364       195.6325 
 114   0.0000      22.280146       606.2736 
 115   0.0000      22.628311       615.7476 
 116   0.0000      43.876829      1193.9492 

                    ********************************
                    * MULLIKEN POPULATION ANALYSIS *
                    ********************************

-----------------------
MULLIKEN ATOMIC CHARGES
-----------------------
   0 O :   -0.309292
   1 C :   -0.147567
   2 C :   -0.007721
   3 H :    0.137252
   4 H :    0.148691
   5 H :    0.084373
   6 H :    0.094264
Sum of atomic charges:    0.0000000

--------------------------------
MULLIKEN REDUCED ORBITAL CHARGES
--------------------------------
  0 O s       :     3.851236  s :     3.851236
      pz      :     1.837035  p :     4.412410
      px      :     1.312098
      py      :     1.263277
      dz2     :     0.005368  d :     0.043352
      dxz     :     0.002991
      dyz     :     0.007368
      dx2y2   :     0.012305
      dxy     :     0.015319
      f0      :     0.000284  f :     0.002295
      f+1     :     0.000189
      f-1     :     0.000467
      f+2     :     0.000114
      f-2     :     0.000235
      f+3     :     0.000406
      f-3     :     0.000600
  1 C s       :     3.258940  s :     3.258940
      pz      :     1.060343  p :     2.786704
      px      :     0.916638
      py      :     0.809724
      dz2     :     0.009423  d :     0.092004
      dxz     :     0.022792
      dyz     :     0.020506
      dx2y2   :     0.021811
      dxy     :     0.017472
      f0      :     0.001457  f :     0.009919
      f+1     :     0.001373
      f-1     :     0.000296
      f+2     :     0.001058
      f-2     :     0.001259
      f+3     :     0.002067
      f-3     :     0.002410
  2 C s       :     3.194368  s :     3.194368
      pz      :     1.024744  p :     2.656765
      px      :     0.878575
      py      :     0.753446
      dz2     :     0.005852  d :     0.142311
      dxz     :     0.030759
      dyz     :     0.040853
      dx2y2   :     0.037684
      dxy     :     0.027163
      f0      :     0.002052  f :     0.014278
      f+1     :     0.001520
      f-1     :     0.000789
      f+2     :     0.002154
      f-2     :     0.001849
      f+3     :     0.001884
      f-3     :     0.004030
  3 H s       :     0.838460  s :     0.838460
      pz      :     0.012648  p :     0.024288
      px      :     0.006236
      py      :     0.005404
  4 H s       :     0.830202  s :     0.830202
      pz      :     0.011322  p :     0.021106
      px      :     0.005938
      py      :     0.003846
  5 H s       :     0.898010  s :     0.898010
      pz      :     0.008946  p :     0.017617
      px      :     0.005878
      py      :     0.002793
  6 H s       :     0.883045  s :     0.883045
      pz      :     0.011481  p :     0.022691
      px      :     0.006704
      py      :     0.004506


                     *******************************
                     * LOEWDIN POPULATION ANALYSIS *
                     *******************************

----------------------
LOEWDIN ATOMIC CHARGES
----------------------
   0 O :    0.146967
   1 C :   -0.185262
   2 C :   -0.426238
   3 H :    0.105217
   4 H :    0.134766
   5 H :    0.124465
   6 H :    0.100084

-------------------------------
LOEWDIN REDUCED ORBITAL CHARGES
-------------------------------
  0 O s       :     3.364908  s :     3.364908
      pz      :     1.709553  p :     4.380373
      px      :     1.288575
      py      :     1.382244
      dz2     :     0.011392  d :     0.100046
      dxz     :     0.008570
      dyz     :     0.018860
      dx2y2   :     0.033666
      dxy     :     0.027558
      f0      :     0.000803  f :     0.007706
      f+1     :     0.000291
      f-1     :     0.000957
      f+2     :     0.000351
      f-2     :     0.001125
      f+3     :     0.001411
      f-3     :     0.002767
  1 C s       :     2.844446  s :     2.844446
      pz      :     1.060090  p :     2.914201
      px      :     1.041490
      py      :     0.812621
      dz2     :     0.054746  d :     0.370655
      dxz     :     0.114823
      dyz     :     0.047737
      dx2y2   :     0.078090
      dxy     :     0.075258
      f0      :     0.008861  f :     0.055960
      f+1     :     0.005431
      f-1     :     0.004103
      f+2     :     0.006220
      f-2     :     0.004255
      f+3     :     0.011820
      f-3     :     0.015269
  2 C s       :     2.806277  s :     2.806277
      pz      :     1.030631  p :     2.904190
      px      :     1.010849
      py      :     0.862710
      dz2     :     0.062429  d :     0.613003
      dxz     :     0.151366
      dyz     :     0.121933
      dx2y2   :     0.143540
      dxy     :     0.133734
      f0      :     0.014826  f :     0.102768
      f+1     :     0.006814
      f-1     :     0.007551
      f+2     :     0.014864
      f-2     :     0.010204
      f+3     :     0.016630
      f-3     :     0.031880
  3 H s       :     0.817705  s :     0.817705
      pz      :     0.040367  p :     0.077077
      px      :     0.019737
      py      :     0.016973
  4 H s       :     0.805548  s :     0.805548
      pz      :     0.032565  p :     0.059686
      px      :     0.016048
      py      :     0.011074
  5 H s       :     0.829097  s :     0.829097
      pz      :     0.025003  p :     0.046438
      px      :     0.014135
      py      :     0.007299
  6 H s       :     0.831433  s :     0.831433
      pz      :     0.035891  p :     0.068483
      px      :     0.018965
      py      :     0.013627


                      *****************************
                      * MAYER POPULATION ANALYSIS *
                      *****************************

  NA   - Mulliken gross atomic population
  ZA   - Total nuclear charge
  QA   - Mulliken gross atomic charge
  VA   - Mayer's total valence
  BVA  - Mayer's bonded valence
  FA   - Mayer's free valence

  ATOM       NA         ZA         QA         VA         BVA        FA
  0 O      8.3093     8.0000    -0.3093     1.9807     1.9807     0.0000
  1 C      6.1476     6.0000    -0.1476     3.9378     3.9378    -0.0000
  2 C      6.0077     6.0000    -0.0077     4.0227     4.0227     0.0000
  3 H      0.8627     1.0000     0.1373     0.9685     0.9685     0.0000
  4 H      0.8513     1.0000     0.1487     0.9659     0.9659     0.0000
  5 H      0.9156     1.0000     0.0844     0.9633     0.9633     0.0000
  6 H      0.9057     1.0000     0.0943     0.9523     0.9523    -0.0000

  Mayer bond orders larger than 0.100000
B(  0-O ,  1-C ) :   0.9218 B(  0-O ,  2-C ) :   1.0513 B(  1-C ,  2-C ) :   1.0681 
B(  1-C ,  3-H ) :   0.9670 B(  1-C ,  4-H ) :   0.9521 B(  2-C ,  5-H ) :   0.9444 
B(  2-C ,  6-H ) :   0.9519 

-------
TIMINGS
-------

Total SCF time: 0 days 0 hours 0 min 2 sec 

Total time                  ....       2.565 sec
Sum of individual times     ....       2.374 sec  ( 92.5%)

Fock matrix formation       ....       2.105 sec  ( 82.1%)
  Split-RI-J                ....       0.233 sec  ( 11.1% of F)
  Chain of spheres X        ....       1.449 sec  ( 68.8% of F)
  XC integration            ....       0.403 sec  ( 19.2% of F)
    Basis function eval.    ....       0.103 sec  ( 25.5% of XC)
    Density eval.           ....       0.076 sec  ( 18.9% of XC)
    XC-Functional eval.     ....       0.023 sec  (  5.6% of XC)
    XC-Potential eval.      ....       0.137 sec  ( 34.0% of XC)
Diagonalization             ....       0.016 sec  (  0.6%)
Density matrix formation    ....       0.001 sec  (  0.1%)
Population analysis         ....       0.004 sec  (  0.2%)
Initial guess               ....       0.017 sec  (  0.7%)
Orbital Transformation      ....       0.000 sec  (  0.0%)
Orbital Orthonormalization  ....       0.000 sec  (  0.0%)
DIIS solution               ....       0.013 sec  (  0.5%)
SOSCF solution              ....       0.011 sec  (  0.4%)
Grid generation             ....       0.207 sec  (  8.1%)

Maximum memory used throughout the entire SCF-calculation: 61.1 MB


-------------------------------------------------------------------------------
                          DFT DISPERSION CORRECTION                            
                                                                               
                              DFTD3 V3.1  Rev 1                                
                          USING Becke-Johnson damping                          
-------------------------------------------------------------------------------
The PBE0 functional is recognized
Active option DFTDOPT                   ...         4   

molecular C6(AA) [au] = 351.177721 


            DFT-D V3
 parameters
 s6 scaling factor         :     1.0000 
 a1 scaling factor         :     0.4145 
 s8 scaling factor         :     1.2177 
 a2 scaling factor         :     4.8593 
 ad hoc parameters k1-k3   :    16.0000     1.3333    -4.0000 

 Edisp/kcal,au: -1.513594245030  -0.002412065708 
 E6   /kcal   :  -0.992799688 
 E8   /kcal   :  -0.520794557 
 % E8         :  34.407805036 

-------------------------   ----------------
Dispersion correction           -0.002412066
-------------------------   ----------------


-------------------------   --------------------
FINAL SINGLE POINT ENERGY      -153.646494805450
-------------------------   --------------------



           ************************************************************
           *        Program running with 8 parallel MPI-processes     *
           *              working on a common directory               *
           ************************************************************
------------------------------------------------------------------------------
                         ORCA SCF GRADIENT CALCULATION
------------------------------------------------------------------------------

 ... reading COSX grid (gridx3)
Gradient of the Kohn-Sham DFT energy:
Kohn-Sham wavefunction type      ... RKS
Hartree-Fock exchange scaling    ...    0.250
Number of operators              ...    1
Number of atoms                  ...    7
Basis set dimensions             ...  117
Integral neglect threshold       ... 2.5e-11
Integral primitive cutoff        ... 2.5e-12
SHARK Integral package           ... ON

Nuc. rep. gradient       (SHARK) ... done (  0.0 sec)
HCore & Overlap gradient (SHARK) ... done (  0.0 sec)
RI-J gradient            (SHARK) ... done (  0.1 sec)
COSX-gradient                    ... done (  0.3 sec)
Exchange-correlation gradient    ... done
Dispersion correction            ... done

------------------
CARTESIAN GRADIENT
------------------

   1   O   :    0.068892127   -0.043014690   -0.000990668
   2   C   :   -0.043558351   -0.044107032    0.067734258
   3   C   :   -0.054417315    0.044764318    0.076733013
   4   H   :    0.038322164    0.008870472   -0.051439690
   5   H   :   -0.008215178    0.004091815   -0.019696795
   6   H   :    0.022968348    0.009643322   -0.035551421
   7   H   :   -0.024076758    0.019646010   -0.036815922

Difference to translation invariance:
           :   -0.0000849641   -0.0001057865   -0.0000272246

Difference to rotation invariance:
           :    0.0000037455   -0.0000346382    0.0002728224

Norm of the cartesian gradient     ...    0.1864192180
RMS gradient                       ...    0.0406800085
MAX gradient                       ...    0.0767330127

-------
TIMINGS
-------

Total SCF gradient time            ...        0.708 sec

One electron gradient       ....       0.010 sec  (  1.4%)
RI-J Coulomb gradient       ....       0.076 sec  ( 10.7%)
COSX gradient               ....       0.316 sec  ( 44.6%)
XC gradient                 ....       0.153 sec  ( 21.6%)

Maximum memory used throughout the entire SCFGRAD-calculation: 35.9 MB

                            ***************************************
                            *     ORCA property calculations      *
                            ***************************************

                                    ---------------------
                                    Active property flags
                                    ---------------------
   (+) Dipole Moment


------------------------------------------------------------------------------
                       ORCA ELECTRIC PROPERTIES CALCULATION
------------------------------------------------------------------------------

Dipole Moment Calculation                       ... on
Quadrupole Moment Calculation                   ... off
Polarizability Calculation                      ... off
GBWName                                         ... ox_gs_A_orca0018.gbw
Electron density                                ... ox_gs_A_orca0018.scfp
The origin for moment calculation is the CENTER OF MASS  = ( 0.042515, -0.119861 -0.038919)

-------------
DIPOLE MOMENT
-------------
                                X             Y             Z
Electronic contribution:     -0.11523       1.40154       0.10440
Nuclear contribution   :     -0.03173      -2.07162      -0.03940
                        -----------------------------------------
Total Dipole Moment    :     -0.14695      -0.67008       0.06499
                        -----------------------------------------
Magnitude (a.u.)       :      0.68908
Magnitude (Debye)      :      1.75150



--------------------
Rotational spectrum 
--------------------
 
Rotational constants in cm-1:     0.947410     0.695151     0.481530 
Rotational constants in MHz : 28402.647529 20840.103659 14435.903137 

 Dipole components along the rotational axes: 
x,y,z [a.u.] :    -0.455349    -0.515178     0.045579 
x,y,z [Debye]:    -1.157405    -1.309478     0.115851 

 

Timings for individual modules:

Sum of individual times         ...        3.990 sec (=   0.067 min)
GTO integral calculation        ...        0.302 sec (=   0.005 min)   7.6 %
SCF iterations                  ...        2.768 sec (=   0.046 min)  69.4 %
SCF Gradient evaluation         ...        0.920 sec (=   0.015 min)  23.1 %
                             ****ORCA TERMINATED NORMALLY****
TOTAL RUN TIME: 0 days 0 hours 0 minutes 4 seconds 269 msec
