
                                 *****************
                                 * O   R   C   A *
                                 *****************

                                            #,                                       
                                            ###                                      
                                            ####                                     
                                            #####                                    
                                            ######                                   
                                           ########,                                 
                                     ,,################,,,,,                         
                               ,,#################################,,                 
                          ,,##########################################,,             
                       ,#########################################, ''#####,          
                    ,#############################################,,   '####,        
                  ,##################################################,,,,####,       
                ,###########''''           ''''###############################       
              ,#####''   ,,,,##########,,,,          '''####'''          '####       
            ,##' ,,,,###########################,,,                        '##       
           ' ,,###''''                  '''############,,,                           
         ,,##''                                '''############,,,,        ,,,,,,###''
      ,#''                                            '''#######################'''  
     '                                                          ''''####''''         
             ,#######,   #######,   ,#######,      ##                                
            ,#'     '#,  ##    ##  ,#'     '#,    #''#        ######   ,####,        
            ##       ##  ##   ,#'  ##            #'  '#       #        #'  '#        
            ##       ##  #######   ##           ,######,      #####,   #    #        
            '#,     ,#'  ##    ##  '#,     ,#' ,#      #,         ##   #,  ,#        
             '#######'   ##     ##  '#######'  #'      '#     #####' # '####'        



                  #######################################################
                  #                        -***-                        #
                  #          Department of theory and spectroscopy      #
                  #    Directorship and core code : Frank Neese         #
                  #        Max Planck Institute fuer Kohlenforschung    #
                  #                Kaiser Wilhelm Platz 1               #
                  #                 D-45470 Muelheim/Ruhr               #
                  #                      Germany                        #
                  #                                                     #
                  #                  All rights reserved                #
                  #                        -***-                        #
                  #######################################################


                         Program Version 5.0.2 -  RELEASE  -


 With contributions from (in alphabetic order):
   Daniel Aravena         : Magnetic Suceptibility
   Michael Atanasov       : Ab Initio Ligand Field Theory (pilot matlab implementation)
   Alexander A. Auer      : GIAO ZORA, VPT2 properties, NMR spectrum
   Ute Becker             : Parallelization
   Giovanni Bistoni       : ED, misc. LED, open-shell LED, HFLD
   Martin Brehm           : Molecular dynamics
   Dmytro Bykov           : SCF Hessian
   Vijay G. Chilkuri      : MRCI spin determinant printing, contributions to CSF-ICE
   Dipayan Datta          : RHF DLPNO-CCSD density
   Achintya Kumar Dutta   : EOM-CC, STEOM-CC
   Dmitry Ganyushin       : Spin-Orbit,Spin-Spin,Magnetic field MRCI
   Miquel Garcia          : C-PCM and meta-GGA Hessian, CC/C-PCM, Gaussian charge scheme
   Yang Guo               : DLPNO-NEVPT2, F12-NEVPT2, CIM, IAO-localization
   Andreas Hansen         : Spin unrestricted coupled pair/coupled cluster methods
   Benjamin Helmich-Paris : MC-RPA, TRAH-SCF, COSX integrals
   Lee Huntington         : MR-EOM, pCC
   Robert Izsak           : Overlap fitted RIJCOSX, COSX-SCS-MP3, EOM
   Marcus Kettner         : VPT2
   Christian Kollmar      : KDIIS, OOCD, Brueckner-CCSD(T), CCSD density, CASPT2, CASPT2-K
   Simone Kossmann        : Meta GGA functionals, TD-DFT gradient, OOMP2, MP2 Hessian
   Martin Krupicka        : Initial AUTO-CI
   Lucas Lang             : DCDCAS
   Marvin Lechner         : AUTO-CI (C++ implementation), FIC-MRCC
   Dagmar Lenk            : GEPOL surface, SMD
   Dimitrios Liakos       : Extrapolation schemes; Compound Job, initial MDCI parallelization
   Dimitrios Manganas     : Further ROCIS development; embedding schemes
   Dimitrios Pantazis     : SARC Basis sets
   Anastasios Papadopoulos: AUTO-CI, single reference methods and gradients
   Taras Petrenko         : DFT Hessian,TD-DFT gradient, ASA, ECA, R-Raman, ABS, FL, XAS/XES, NRVS
   Peter Pinski           : DLPNO-MP2, DLPNO-MP2 Gradient
   Christoph Reimann      : Effective Core Potentials
   Marius Retegan         : Local ZFS, SOC
   Christoph Riplinger    : Optimizer, TS searches, QM/MM, DLPNO-CCSD(T), (RO)-DLPNO pert. Triples
   Tobias Risthaus        : Range-separated hybrids, TD-DFT gradient, RPA, STAB
   Michael Roemelt        : Original ROCIS implementation
   Masaaki Saitow         : Open-shell DLPNO-CCSD energy and density
   Barbara Sandhoefer     : DKH picture change effects
   Avijit Sen             : IP-ROCIS
   Kantharuban Sivalingam : CASSCF convergence, NEVPT2, FIC-MRCI
   Bernardo de Souza      : ESD, SOC TD-DFT
   Georgi Stoychev        : AutoAux, RI-MP2 NMR, DLPNO-MP2 response
   Willem Van den Heuvel  : Paramagnetic NMR
   Boris Wezisla          : Elementary symmetry handling
   Frank Wennmohs         : Technical directorship


 We gratefully acknowledge several colleagues who have allowed us to
 interface, adapt or use parts of their codes:
   Stefan Grimme, W. Hujo, H. Kruse, P. Pracht,  : VdW corrections, initial TS optimization,
                  C. Bannwarth, S. Ehlert          DFT functionals, gCP, sTDA/sTD-DF
   Ed Valeev, F. Pavosevic, A. Kumar             : LibInt (2-el integral package), F12 methods
   Garnet Chan, S. Sharma, J. Yang, R. Olivares  : DMRG
   Ulf Ekstrom                                   : XCFun DFT Library
   Mihaly Kallay                                 : mrcc  (arbitrary order and MRCC methods)
   Jiri Pittner, Ondrej Demel                    : Mk-CCSD
   Frank Weinhold                                : gennbo (NPA and NBO analysis)
   Christopher J. Cramer and Donald G. Truhlar   : smd solvation model
   Lars Goerigk                                  : TD-DFT with DH, B97 family of functionals
   V. Asgeirsson, H. Jonsson                     : NEB implementation
   FAccTs GmbH                                   : IRC, NEB, NEB-TS, DLPNO-Multilevel, CI-OPT
                                                   MM, QMMM, 2- and 3-layer-ONIOM, Crystal-QMMM,
                                                   LR-CPCM, SF, NACMEs, symmetry and pop. for TD-DFT,
                                                   nearIR, NL-DFT gradient (VV10), updates on ESD,
                                                   ML-optimized integration grids
   S Lehtola, MJT Oliveira, MAL Marques          : LibXC Library
   Liviu Ungur et al                             : ANISO software


 Your calculation uses the libint2 library for the computation of 2-el integrals
 For citations please refer to: http://libint.valeyev.net

 Your ORCA version has been built with support for libXC version: 5.1.0
 For citations please refer to: https://tddft.org/programs/libxc/

 This ORCA versions uses:
   CBLAS   interface :  Fast vector & matrix operations
   LAPACKE interface :  Fast linear algebra routines
   SCALAPACK package :  Parallel linear algebra routines
   Shared memory     :  Shared parallel matrices
   BLAS/LAPACK       :  OpenBLAS 0.3.15  USE64BITINT DYNAMIC_ARCH NO_AFFINITY SkylakeX SINGLE_THREADED
        Core in use  :  SkylakeX
   Copyright (c) 2011-2014, The OpenBLAS Project


Your calculation utilizes the atom-pairwise dispersion correction
with the Becke-Johnson damping scheme (D3BJ)
Cite in your paper:
S.Grimme, S.Ehrlich, L.Goerigk, J Comput Chem, (2011), 32, 1456–1465 
S.Grimme, J.Antony, S.Ehrlich and H.Krieg, J.Chem.Phys., 132, (2010), 154104 
   

================================================================================

----- Orbital basis set information -----
Your calculation utilizes the basis: def2-TZVP
   F. Weigend and R. Ahlrichs, Phys. Chem. Chem. Phys. 7, 3297 (2005).

----- AuxJ basis set information -----
Your calculation utilizes the auxiliary basis: def2/J
   F. Weigend, Phys. Chem. Chem. Phys. 8, 1057 (2006).

================================================================================
                                        WARNINGS
                       Please study these warnings very carefully!
================================================================================


INFO   : the flag for use of the SHARK integral package has been found!

================================================================================
                                       INPUT FILE
================================================================================
NAME = ox_gs_A_orca0010.inp
|  1> ! engrad PBE0 D3BJ def2-TZVP  
|  2> %pal nprocs 8 end
|  3> %maxcore 3000
|  4>  
|  5> *xyz 0 1 
|  6> O   0.02854457553465835 0.82370259200903 0.04770019817466012
|  7> C   -0.6963200274347101 -0.4627839522320173 0.03794846102466337
|  8> C   0.6902482792731214 -0.45886142033700045 -0.024268177391455176
|  9> H   -1.2597292230306838 -0.5525378816663246 0.8266129603704127
| 10> H   -1.2295097604812744 -0.7489067035594826 -0.9435728132894717
| 11> H   1.318270349848368 -0.6650568590452269 -0.9738634588964653
| 12> H   1.2280576845370017 -0.6342909225532662 0.8834578384141432
| 13> *
| 14> 
| 15>                          ****END OF INPUT****
================================================================================

                     *******************************
                     * Energy+Gradient Calculation *
                     *******************************

---------------------------------
CARTESIAN COORDINATES (ANGSTROEM)
---------------------------------
  O      0.028545    0.823703    0.047700
  C     -0.696320   -0.462784    0.037948
  C      0.690248   -0.458861   -0.024268
  H     -1.259729   -0.552538    0.826613
  H     -1.229510   -0.748907   -0.943573
  H      1.318270   -0.665057   -0.973863
  H      1.228058   -0.634291    0.883458

----------------------------
CARTESIAN COORDINATES (A.U.)
----------------------------
  NO LB      ZA    FRAG     MASS         X           Y           Z
   0 O     8.0000    0    15.999    0.053941    1.556572    0.090140
   1 C     6.0000    0    12.011   -1.315854   -0.874535    0.071712
   2 C     6.0000    0    12.011    1.304380   -0.867122   -0.045860
   3 H     1.0000    0     1.008   -2.380543   -1.044145    1.562072
   4 H     1.0000    0     1.008   -2.323437   -1.415229   -1.783094
   5 H     1.0000    0     1.008    2.491170   -1.256775   -1.840335
   6 H     1.0000    0     1.008    2.320693   -1.198636    1.669493

--------------------------------
INTERNAL COORDINATES (ANGSTROEM)
--------------------------------
 O      0   0   0     0.000000000000     0.00000000     0.00000000
 C      1   0   0     1.476675799737     0.00000000     0.00000000
 C      2   1   0     1.387969007406    60.49189772     0.00000000
 H      2   1   3     0.973384498571   111.04540373   122.62718539
 H      2   1   3     1.153057471328   116.66622116   254.83582293
 H      3   2   1     1.157004528397   125.34782246   255.37838096
 H      3   2   1     1.069570468183   117.63347498    98.87210898

---------------------------
INTERNAL COORDINATES (A.U.)
---------------------------
 O      0   0   0     0.000000000000     0.00000000     0.00000000
 C      1   0   0     2.790512850092     0.00000000     0.00000000
 C      2   1   0     2.622881306367    60.49189772     0.00000000
 H      2   1   3     1.839430125304   111.04540373   122.62718539
 H      2   1   3     2.178962837481   116.66622116   254.83582293
 H      3   2   1     2.186421694376   125.34782246   255.37838096
 H      3   2   1     2.021195265795   117.63347498    98.87210898

---------------------
BASIS SET INFORMATION
---------------------
There are 3 groups of distinct atoms

 Group   1 Type O   : 11s6p2d1f contracted to 5s3p2d1f pattern {62111/411/11/1}
 Group   2 Type C   : 11s6p2d1f contracted to 5s3p2d1f pattern {62111/411/11/1}
 Group   3 Type H   : 5s1p contracted to 3s1p pattern {311/1}

Atom   0O    basis set group =>   1
Atom   1C    basis set group =>   2
Atom   2C    basis set group =>   2
Atom   3H    basis set group =>   3
Atom   4H    basis set group =>   3
Atom   5H    basis set group =>   3
Atom   6H    basis set group =>   3
---------------------------------
AUXILIARY/J BASIS SET INFORMATION
---------------------------------
There are 3 groups of distinct atoms

 Group   1 Type O   : 12s5p4d2f1g contracted to 6s4p3d1f1g pattern {711111/2111/211/2/1}
 Group   2 Type C   : 12s5p4d2f1g contracted to 6s4p3d1f1g pattern {711111/2111/211/2/1}
 Group   3 Type H   : 5s2p1d contracted to 3s1p1d pattern {311/2/1}

Atom   0O    basis set group =>   1
Atom   1C    basis set group =>   2
Atom   2C    basis set group =>   2
Atom   3H    basis set group =>   3
Atom   4H    basis set group =>   3
Atom   5H    basis set group =>   3
Atom   6H    basis set group =>   3


           ************************************************************
           *        Program running with 8 parallel MPI-processes     *
           *              working on a common directory               *
           ************************************************************
------------------------------------------------------------------------------
                           ORCA GTO INTEGRAL CALCULATION
                           -- RI-GTO INTEGRALS CHOSEN --
------------------------------------------------------------------------------
------------------------------------------------------------------------------
                   ___                                                        
                  /   \      - P O W E R E D   B Y -                         
                 /     \                                                     
                 |  |  |   _    _      __       _____    __    __             
                 |  |  |  | |  | |    /  \     |  _  \  |  |  /  |          
                  \  \/   | |  | |   /    \    | | | |  |  | /  /          
                 / \  \   | |__| |  /  /\  \   | |_| |  |  |/  /          
                |  |  |   |  __  | /  /__\  \  |    /   |      \           
                |  |  |   | |  | | |   __   |  |    \   |  |\   \          
                \     /   | |  | | |  |  |  |  | |\  \  |  | \   \       
                 \___/    |_|  |_| |__|  |__|  |_| \__\ |__|  \__/        
                                                                              
                      - O R C A' S   B I G   F R I E N D -                    
                                      &                                       
                       - I N T E G R A L  F E E D E R -                       
                                                                              
 v1 FN, 2020, v2 2021                                                         
------------------------------------------------------------------------------


Reading SHARK input file ox_gs_A_orca0010.SHARKINP.tmp ... ok
----------------------
SHARK INTEGRAL PACKAGE
----------------------

Number of atoms                             ...      7
Number of basis functions                   ...    117
Number of shells                            ...     49
Maximum angular momentum                    ...      3
Integral batch strategy                     ... SHARK/LIBINT Hybrid
RI-J (if used) integral strategy            ... SPLIT-RIJ (Revised 2003 algorithm where possible)
Printlevel                                  ...      1
Contraction scheme used                     ... SEGMENTED contraction
Coulomb Range Separation                    ... NOT USED
Exchange Range Separation                   ... NOT USED
Finite Nucleus Model                        ... NOT USED
Auxiliary Coulomb fitting basis             ... AVAILABLE
   # of basis functions in Aux-J            ...    191
   # of shells in Aux-J                     ...     65
   Maximum angular momentum in Aux-J        ...      4
Auxiliary J/K fitting basis                 ... NOT available
Auxiliary Correlation fitting basis         ... NOT available
Auxiliary 'external' fitting basis          ... NOT available
Integral threshold                          ...     2.500000e-11
Primitive cut-off                           ...     2.500000e-12
Primitive pair pre-selection threshold      ...     2.500000e-12

Calculating pre-screening integrals         ... done (  0.0 sec) Dimension = 49
Organizing shell pair data                  ... done (  0.0 sec)
Shell pair information
Total number of shell pairs                 ...      1225
Shell pairs after pre-screening             ...      1220
Total number of primitive shell pairs       ...      3648
Primitive shell pairs kept                  ...      3152
          la=0 lb=0:    373 shell pairs
          la=1 lb=0:    351 shell pairs
          la=1 lb=1:     91 shell pairs
          la=2 lb=0:    162 shell pairs
          la=2 lb=1:     78 shell pairs
          la=2 lb=2:     21 shell pairs
          la=3 lb=0:     81 shell pairs
          la=3 lb=1:     39 shell pairs
          la=3 lb=2:     18 shell pairs
          la=3 lb=3:      6 shell pairs

Calculating one electron integrals          ... done (  0.0 sec)
Calculating RI/J V-Matrix + Cholesky decomp.... done (  0.0 sec)
Calculating Nuclear repulsion               ... done (  0.0 sec) ENN=     75.372648897652 Eh

SHARK setup successfully completed in   0.2 seconds

Maximum memory used throughout the entire GTOINT-calculation: 14.9 MB


           ************************************************************
           *        Program running with 8 parallel MPI-processes     *
           *              working on a common directory               *
           ************************************************************
-------------------------------------------------------------------------------
                                 ORCA SCF
-------------------------------------------------------------------------------

------------
SCF SETTINGS
------------
Hamiltonian:
 Density Functional     Method          .... DFT(GTOs)
 Exchange Functional    Exchange        .... PBE
   PBE kappa parameter   XKappa         ....  0.804000
   PBE mue parameter    XMuePBE         ....  0.219520
 Correlation Functional Correlation     .... PBE
   PBE beta parameter  CBetaPBE         ....  0.066725
 LDA part of GGA corr.  LDAOpt          .... PW91-LDA
 Gradients option       PostSCFGGA      .... off
 Hybrid DFT is turned on
   Fraction HF Exchange ScalHFX         ....  0.250000
   Scaling of DF-GGA-X  ScalDFX         ....  0.750000
   Scaling of DF-GGA-C  ScalDFC         ....  1.000000
   Scaling of DF-LDA-C  ScalLDAC        ....  1.000000
   Perturbative correction              ....  0.000000
   Density functional embedding theory  .... OFF
   NL short-range parameter             ....  6.900000
 RI-approximation to the Coulomb term is turned on
   Number of AuxJ basis functions       .... 191
   RIJ-COSX (HFX calculated with COS-X)).... on


General Settings:
 Integral files         IntName         .... ox_gs_A_orca0010
 Hartree-Fock type      HFTyp           .... RHF
 Total Charge           Charge          ....    0
 Multiplicity           Mult            ....    1
 Number of Electrons    NEL             ....   24
 Basis Dimension        Dim             ....  117
 Nuclear Repulsion      ENuc            ....     75.3726488977 Eh

Convergence Acceleration:
 DIIS                   CNVDIIS         .... on
   Start iteration      DIISMaxIt       ....    12
   Startup error        DIISStart       ....  0.200000
   # of expansion vecs  DIISMaxEq       ....     5
   Bias factor          DIISBfac        ....   1.050
   Max. coefficient     DIISMaxC        ....  10.000
 Trust-Rad. Augm. Hess. CNVTRAH         .... auto
   Auto Start mean grad. ratio tolernc. ....  1.125000
   Auto Start start iteration           ....    20
   Auto Start num. interpolation iter.  ....    10
   Max. Number of Micro iterations      ....    16
   Max. Number of Macro iterations      .... Maxiter - #DIIS iter
   Number of Davidson start vectors     ....     2
   Converg. threshold I  (grad. norm)   ....   1.000e-05
   Converg. threshold II (energy diff.) ....   1.000e-08
   Grad. Scal. Fac. for Micro threshold ....   0.100
   Minimum threshold for Micro iter.    ....   0.010
   NR start threshold (gradient norm)   ....   0.001
   Initial trust radius                 ....   0.400
   Minimum AH scaling param. (alpha)    ....   1.000
   Maximum AH scaling param. (alpha)    .... 1000.000
   Orbital update algorithm             .... Taylor
   White noise on init. David. guess    .... on
   Maximum white noise                  ....   0.010
   Quad. conv. algorithm                .... NR
 SOSCF                  CNVSOSCF        .... on
   Start iteration      SOSCFMaxIt      ....   150
   Startup grad/error   SOSCFStart      ....  0.003300
 Level Shifting         CNVShift        .... on
   Level shift para.    LevelShift      ....    0.2500
   Turn off err/grad.   ShiftErr        ....    0.0010
 Zerner damping         CNVZerner       .... off
 Static damping         CNVDamp         .... on
   Fraction old density DampFac         ....    0.7000
   Max. Damping (<1)    DampMax         ....    0.9800
   Min. Damping (>=0)   DampMin         ....    0.0000
   Turn off err/grad.   DampErr         ....    0.1000
 Fernandez-Rico         CNVRico         .... off

SCF Procedure:
 Maximum # iterations   MaxIter         ....   125
 SCF integral mode      SCFMode         .... Direct
   Integral package                     .... SHARK and LIBINT hybrid scheme
 Reset frequency        DirectResetFreq ....    20
 Integral Threshold     Thresh          ....  2.500e-11 Eh
 Primitive CutOff       TCut            ....  2.500e-12 Eh

Convergence Tolerance:
 Convergence Check Mode ConvCheckMode   .... Total+1el-Energy
 Convergence forced     ConvForced      .... 0
 Energy Change          TolE            ....  1.000e-08 Eh
 1-El. energy change                    ....  1.000e-05 Eh
 Orbital Gradient       TolG            ....  1.000e-05
 Orbital Rotation angle TolX            ....  1.000e-05
 DIIS Error             TolErr          ....  5.000e-07


Diagonalization of the overlap matrix:
Smallest eigenvalue                        ... 2.430e-04
Time for diagonalization                   ...    0.001 sec
Threshold for overlap eigenvalues          ... 1.000e-08
Number of eigenvalues below threshold      ... 0
Time for construction of square roots      ...    0.001 sec
Total time needed                          ...    0.003 sec

Time for model grid setup =    0.021 sec

------------------------------
INITIAL GUESS: MODEL POTENTIAL
------------------------------
Loading Hartree-Fock densities                     ... done
Calculating cut-offs                               ... done
Initializing the effective Hamiltonian             ... done
Setting up the integral package (SHARK)            ... done
Starting the Coulomb interaction                   ... done (   0.0 sec)
Reading the grid                                   ... done
Mapping shells                                     ... done
Starting the XC term evaluation                    ... done (   0.0 sec)
  promolecular density results
     # of electrons  =     23.996727712
     EX              =    -19.548363030
     EC              =     -0.782591814
     EX+EC           =    -20.330954845
Transforming the Hamiltonian                       ... done (   0.0 sec)
Diagonalizing the Hamiltonian                      ... done (   0.0 sec)
Back transforming the eigenvectors                 ... done (   0.0 sec)
Now organizing SCF variables                       ... done
                      ------------------
                      INITIAL GUESS DONE (   0.0 sec)
                      ------------------
-------------------
DFT GRID GENERATION
-------------------

General Integration Accuracy     IntAcc      ... 4.388
Radial Grid Type                 RadialGrid  ... OptM3 with GC (2021)
Angular Grid (max. ang.)         AngularGrid ... 4 (Lebedev-302)
Angular grid pruning method      GridPruning ... 4 (adaptive)
Weight generation scheme         WeightScheme... Becke
Basis function cutoff            BFCut       ... 1.0000e-11
Integration weight cutoff        WCut        ... 1.0000e-14
Angular grids for H and He will be reduced by one unit
Partially contracted basis set               ... off
Rotationally invariant grid construction     ... off

Total number of grid points                  ...    31303
Total number of batches                      ...      494
Average number of points per batch           ...       63
Average number of grid points per atom       ...     4472
Time for grid setup =    0.112 sec

--------------------
COSX GRID GENERATION
--------------------

GRIDX 1
-------
General Integration Accuracy     IntAcc      ... 3.816
Radial Grid Type                 RadialGrid  ... OptM3 with GC (2021)
Angular Grid (max. ang.)         AngularGrid ... 1 (Lebedev-50)
Angular grid pruning method      GridPruning ... 4 (adaptive)
Weight generation scheme         WeightScheme... Becke
Basis function cutoff            BFCut       ... 1.0000e-11
Integration weight cutoff        WCut        ... 1.0000e-14
Angular grids for H and He will be reduced by one unit
Partially contracted basis set               ... on
Rotationally invariant grid construction     ... off

Total number of grid points                  ...     4034
Total number of batches                      ...       67
Average number of points per batch           ...       60
Average number of grid points per atom       ...      576
UseSFitting                                  ... on

GRIDX 2
-------
General Integration Accuracy     IntAcc      ... 4.020
Radial Grid Type                 RadialGrid  ... OptM3 with GC (2021)
Angular Grid (max. ang.)         AngularGrid ... 2 (Lebedev-110)
Angular grid pruning method      GridPruning ... 4 (adaptive)
Weight generation scheme         WeightScheme... Becke
Basis function cutoff            BFCut       ... 1.0000e-11
Integration weight cutoff        WCut        ... 1.0000e-14
Angular grids for H and He will be reduced by one unit
Partially contracted basis set               ... on
Rotationally invariant grid construction     ... off

Total number of grid points                  ...     8710
Total number of batches                      ...      141
Average number of points per batch           ...       61
Average number of grid points per atom       ...     1244
UseSFitting                                  ... on

GRIDX 3
-------
General Integration Accuracy     IntAcc      ... 4.338
Radial Grid Type                 RadialGrid  ... OptM3 with GC (2021)
Angular Grid (max. ang.)         AngularGrid ... 3 (Lebedev-194)
Angular grid pruning method      GridPruning ... 4 (adaptive)
Weight generation scheme         WeightScheme... Becke
Basis function cutoff            BFCut       ... 1.0000e-11
Integration weight cutoff        WCut        ... 1.0000e-14
Angular grids for H and He will be reduced by one unit
Partially contracted basis set               ... on
Rotationally invariant grid construction     ... off

Total number of grid points                  ...    19243
Total number of batches                      ...      305
Average number of points per batch           ...       63
Average number of grid points per atom       ...     2749
UseSFitting                                  ... on

Time for X-Grid setup             =    0.075 sec

--------------
SCF ITERATIONS
--------------
ITER       Energy         Delta-E        Max-DP      RMS-DP      [F,P]     Damp
               ***  Starting incremental Fock matrix formation  ***
  0   -153.5810970429   0.000000000000 0.03231636  0.00119262  0.1730366 0.7000
  1   -153.6119093651  -0.030812322177 0.01761890  0.00089024  0.0731217 0.7000
                               ***Turning on DIIS***
  2   -153.6246677123  -0.012758347150 0.02947051  0.00150726  0.0350107 0.0000
  3   -153.6448207562  -0.020153043993 0.01429697  0.00068090  0.0393181 0.0000
  4   -153.6490038371  -0.004183080805 0.00411547  0.00018712  0.0080440 0.0000
  5   -153.6491799290  -0.000176091958 0.00162428  0.00007187  0.0048537 0.0000
                      *** Initiating the SOSCF procedure ***
                           *** Shutting down DIIS ***
                      *** Re-Reading the Fockian *** 
                      *** Removing any level shift *** 
ITER      Energy       Delta-E        Grad      Rot      Max-DP    RMS-DP
  6   -153.64921251  -0.0000325824  0.000122  0.000122  0.000983  0.000034
               *** Restarting incremental Fock matrix formation ***
  7   -153.64920325   0.0000092630  0.000075  0.000093  0.000130  0.000005
  8   -153.64920318   0.0000000682  0.000129  0.000060  0.000090  0.000003
  9   -153.64920330  -0.0000001242  0.000010  0.000016  0.000023  0.000001
 10   -153.64920330   0.0000000009  0.000012  0.000009  0.000013  0.000001
                 **** Energy Check signals convergence ****
              ***Rediagonalizing the Fockian in SOSCF/NRSCF***

               *****************************************************
               *                     SUCCESS                       *
               *           SCF CONVERGED AFTER  11 CYCLES          *
               *****************************************************

Old exchange energy                            =     -5.000263105 Eh
New exchange energy                            =     -5.000253094 Eh
Exchange energy change after final integration =      0.000010011 Eh
Total energy after final integration           =   -153.649193296 Eh
Final COS-X integration done in                =     0.257 sec

----------------
TOTAL SCF ENERGY
----------------

Total Energy       :         -153.64919330 Eh           -4181.00711 eV

Components:
Nuclear Repulsion  :           75.37264890 Eh            2050.99405 eV
Electronic Energy  :         -229.02184219 Eh           -6232.00115 eV
One Electron Energy:         -357.41147722 Eh           -9725.66074 eV
Two Electron Energy:          128.38963503 Eh            3493.65958 eV
Max COSX asymmetry :            0.00000219 Eh               0.00006 eV

Virial components:
Potential Energy   :         -306.73076083 Eh           -8346.56833 eV
Kinetic Energy     :          153.08156753 Eh            4165.56123 eV
Virial Ratio       :            2.00370800


DFT components:
N(Alpha)           :       12.000000090428 electrons
N(Beta)            :       12.000000090428 electrons
N(Total)           :       24.000000180855 electrons
E(X)               :      -14.972275832796 Eh       
E(C)               :       -0.790398686991 Eh       
E(XC)              :      -15.762674519787 Eh       
DFET-embed. en.    :        0.000000000000 Eh       

---------------
SCF CONVERGENCE
---------------

  Last Energy change         ...   -3.5627e-09  Tolerance :   1.0000e-08
  Last MAX-Density change    ...    6.6613e-16  Tolerance :   1.0000e-07
  Last RMS-Density change    ...    1.7701e-17  Tolerance :   5.0000e-09
  Last Orbital Gradient      ...    4.9996e-07  Tolerance :   1.0000e-05
  Last Orbital Rotation      ...    6.3971e-07  Tolerance :   1.0000e-05

             **** THE GBW FILE WAS UPDATED (ox_gs_A_orca0010.gbw) ****
             **** DENSITY ox_gs_A_orca0010.scfp WAS UPDATED ****
             **** ENERGY FILE WAS UPDATED (ox_gs_A_orca0010.en.tmp) ****
             **** THE GBW FILE WAS UPDATED (ox_gs_A_orca0010.gbw) ****
             **** DENSITY ox_gs_A_orca0010.scfp WAS UPDATED ****
----------------
ORBITAL ENERGIES
----------------

  NO   OCC          E(Eh)            E(eV) 
   0   2.0000     -19.219255      -522.9825 
   1   2.0000     -10.276959      -279.6503 
   2   2.0000     -10.268905      -279.4311 
   3   2.0000      -1.091781       -29.7089 
   4   2.0000      -0.719358       -19.5747 
   5   2.0000      -0.652878       -17.7657 
   6   2.0000      -0.535807       -14.5800 
   7   2.0000      -0.503029       -13.6881 
   8   2.0000      -0.392309       -10.6753 
   9   2.0000      -0.392024       -10.6675 
  10   2.0000      -0.349948        -9.5226 
  11   2.0000      -0.287271        -7.8170 
  12   0.0000       0.056617         1.5406 
  13   0.0000       0.068043         1.8515 
  14   0.0000       0.086382         2.3506 
  15   0.0000       0.095394         2.5958 
  16   0.0000       0.102639         2.7929 
  17   0.0000       0.152175         4.1409 
  18   0.0000       0.189162         5.1474 
  19   0.0000       0.220891         6.0107 
  20   0.0000       0.269357         7.3296 
  21   0.0000       0.273193         7.4339 
  22   0.0000       0.289231         7.8704 
  23   0.0000       0.309741         8.4285 
  24   0.0000       0.387021        10.5314 
  25   0.0000       0.401410        10.9229 
  26   0.0000       0.423695        11.5293 
  27   0.0000       0.450007        12.2453 
  28   0.0000       0.457281        12.4433 
  29   0.0000       0.468516        12.7490 
  30   0.0000       0.502617        13.6769 
  31   0.0000       0.517788        14.0897 
  32   0.0000       0.564237        15.3537 
  33   0.0000       0.685012        18.6401 
  34   0.0000       0.714510        19.4428 
  35   0.0000       0.733518        19.9600 
  36   0.0000       0.816296        22.2125 
  37   0.0000       0.844257        22.9734 
  38   0.0000       0.880641        23.9635 
  39   0.0000       0.957113        26.0444 
  40   0.0000       1.015028        27.6203 
  41   0.0000       1.041738        28.3471 
  42   0.0000       1.086989        29.5785 
  43   0.0000       1.097940        29.8765 
  44   0.0000       1.195221        32.5236 
  45   0.0000       1.356764        36.9194 
  46   0.0000       1.476903        40.1886 
  47   0.0000       1.496671        40.7265 
  48   0.0000       1.515734        41.2452 
  49   0.0000       1.533288        41.7229 
  50   0.0000       1.580107        42.9969 
  51   0.0000       1.620417        44.0938 
  52   0.0000       1.661018        45.1986 
  53   0.0000       1.685900        45.8757 
  54   0.0000       1.776267        48.3347 
  55   0.0000       1.810910        49.2774 
  56   0.0000       1.840221        50.0750 
  57   0.0000       1.882849        51.2349 
  58   0.0000       1.911841        52.0238 
  59   0.0000       1.995838        54.3095 
  60   0.0000       2.125971        57.8506 
  61   0.0000       2.166480        58.9529 
  62   0.0000       2.228770        60.6479 
  63   0.0000       2.258709        61.4626 
  64   0.0000       2.265964        61.6600 
  65   0.0000       2.375607        64.6436 
  66   0.0000       2.396301        65.2067 
  67   0.0000       2.506925        68.2169 
  68   0.0000       2.532810        68.9213 
  69   0.0000       2.564935        69.7954 
  70   0.0000       2.626616        71.4739 
  71   0.0000       2.682392        72.9916 
  72   0.0000       2.725035        74.1520 
  73   0.0000       2.749310        74.8125 
  74   0.0000       2.767714        75.3133 
  75   0.0000       2.804379        76.3110 
  76   0.0000       2.918804        79.4247 
  77   0.0000       2.948951        80.2450 
  78   0.0000       2.972577        80.8879 
  79   0.0000       3.011448        81.9457 
  80   0.0000       3.040584        82.7385 
  81   0.0000       3.072142        83.5972 
  82   0.0000       3.179250        86.5118 
  83   0.0000       3.255900        88.5975 
  84   0.0000       3.318745        90.3076 
  85   0.0000       3.367163        91.6252 
  86   0.0000       3.384128        92.0868 
  87   0.0000       3.396364        92.4198 
  88   0.0000       3.576416        97.3192 
  89   0.0000       3.598152        97.9107 
  90   0.0000       3.694579       100.5346 
  91   0.0000       3.701438       100.7212 
  92   0.0000       3.955653       107.6388 
  93   0.0000       4.113918       111.9454 
  94   0.0000       4.199836       114.2833 
  95   0.0000       4.207906       114.5029 
  96   0.0000       4.244269       115.4924 
  97   0.0000       4.303501       117.1042 
  98   0.0000       4.501098       122.4811 
  99   0.0000       4.562001       124.1384 
 100   0.0000       4.789247       130.3220 
 101   0.0000       4.881840       132.8416 
 102   0.0000       5.273980       143.5123 
 103   0.0000       5.412640       147.2854 
 104   0.0000       5.658191       153.9672 
 105   0.0000       5.697067       155.0251 
 106   0.0000       5.723596       155.7470 
 107   0.0000       5.859363       159.4414 
 108   0.0000       6.005530       163.4188 
 109   0.0000       6.549231       178.2136 
 110   0.0000       6.600873       179.6189 
 111   0.0000       6.785087       184.6316 
 112   0.0000       6.970301       189.6715 
 113   0.0000       7.170327       195.1145 
 114   0.0000      22.277072       606.1900 
 115   0.0000      22.562032       613.9441 
 116   0.0000      43.833501      1192.7702 

                    ********************************
                    * MULLIKEN POPULATION ANALYSIS *
                    ********************************

-----------------------
MULLIKEN ATOMIC CHARGES
-----------------------
   0 O :   -0.332938
   1 C :   -0.078134
   2 C :   -0.053557
   3 H :    0.129739
   4 H :    0.104116
   5 H :    0.122176
   6 H :    0.108599
Sum of atomic charges:   -0.0000000

--------------------------------
MULLIKEN REDUCED ORBITAL CHARGES
--------------------------------
  0 O s       :     3.872575  s :     3.872575
      pz      :     1.852216  p :     4.418908
      px      :     1.356478
      py      :     1.210214
      dz2     :     0.005607  d :     0.039381
      dxz     :     0.002241
      dyz     :     0.006354
      dx2y2   :     0.011603
      dxy     :     0.013577
      f0      :     0.000233  f :     0.002074
      f+1     :     0.000161
      f-1     :     0.000464
      f+2     :     0.000102
      f-2     :     0.000173
      f+3     :     0.000400
      f-3     :     0.000541
  1 C s       :     3.212021  s :     3.212021
      pz      :     1.052162  p :     2.743617
      px      :     0.927159
      py      :     0.764296
      dz2     :     0.005634  d :     0.111246
      dxz     :     0.026684
      dyz     :     0.028092
      dx2y2   :     0.029158
      dxy     :     0.021678
      f0      :     0.001465  f :     0.011250
      f+1     :     0.001299
      f-1     :     0.000586
      f+2     :     0.001623
      f-2     :     0.001407
      f+3     :     0.001860
      f-3     :     0.003010
  2 C s       :     3.211974  s :     3.211974
      pz      :     1.043322  p :     2.711850
      px      :     0.914934
      py      :     0.753594
      dz2     :     0.005607  d :     0.118150
      dxz     :     0.027337
      dyz     :     0.031460
      dx2y2   :     0.030917
      dxy     :     0.022829
      f0      :     0.001501  f :     0.011584
      f+1     :     0.001305
      f-1     :     0.000636
      f+2     :     0.001773
      f-2     :     0.001400
      f+3     :     0.001776
      f-3     :     0.003192
  3 H s       :     0.845951  s :     0.845951
      pz      :     0.010718  p :     0.024310
      px      :     0.008418
      py      :     0.005173
  4 H s       :     0.877117  s :     0.877117
      pz      :     0.010064  p :     0.018767
      px      :     0.005332
      py      :     0.003372
  5 H s       :     0.859293  s :     0.859293
      pz      :     0.009551  p :     0.018531
      px      :     0.006134
      py      :     0.002846
  6 H s       :     0.869520  s :     0.869520
      pz      :     0.011076  p :     0.021881
      px      :     0.006624
      py      :     0.004181


                     *******************************
                     * LOEWDIN POPULATION ANALYSIS *
                     *******************************

----------------------
LOEWDIN ATOMIC CHARGES
----------------------
   0 O :    0.089817
   1 C :   -0.260910
   2 C :   -0.306293
   3 H :    0.089064
   4 H :    0.136611
   5 H :    0.135015
   6 H :    0.116695

-------------------------------
LOEWDIN REDUCED ORBITAL CHARGES
-------------------------------
  0 O s       :     3.423528  s :     3.423528
      pz      :     1.745926  p :     4.399563
      px      :     1.336132
      py      :     1.317506
      dz2     :     0.011428  d :     0.081347
      dxz     :     0.006265
      dyz     :     0.013500
      dx2y2   :     0.028823
      dxy     :     0.021330
      f0      :     0.000540  f :     0.005745
      f+1     :     0.000189
      f-1     :     0.000924
      f+2     :     0.000207
      f-2     :     0.000728
      f+3     :     0.001025
      f-3     :     0.002133
  1 C s       :     2.802021  s :     2.802021
      pz      :     1.047131  p :     2.905035
      px      :     1.064588
      py      :     0.793316
      dz2     :     0.051096  d :     0.481845
      dxz     :     0.145179
      dyz     :     0.074686
      dx2y2   :     0.108185
      dxy     :     0.102699
      f0      :     0.008966  f :     0.072009
      f+1     :     0.006168
      f-1     :     0.005809
      f+2     :     0.009845
      f-2     :     0.005376
      f+3     :     0.014365
      f-3     :     0.021480
  2 C s       :     2.817425  s :     2.817425
      pz      :     1.036754  p :     2.899964
      px      :     1.060583
      py      :     0.802627
      dz2     :     0.052745  d :     0.511708
      dxz     :     0.149927
      dyz     :     0.084077
      dx2y2   :     0.116253
      dxy     :     0.108706
      f0      :     0.010035  f :     0.077196
      f+1     :     0.006017
      f-1     :     0.006047
      f+2     :     0.011126
      f-2     :     0.005690
      f+3     :     0.014728
      f-3     :     0.023552
  3 H s       :     0.829458  s :     0.829458
      pz      :     0.037984  p :     0.081478
      px      :     0.025939
      py      :     0.017555
  4 H s       :     0.813056  s :     0.813056
      pz      :     0.027905  p :     0.050333
      px      :     0.013224
      py      :     0.009204
  5 H s       :     0.814259  s :     0.814259
      pz      :     0.027471  p :     0.050725
      px      :     0.015207
      py      :     0.008048
  6 H s       :     0.819839  s :     0.819839
      pz      :     0.033324  p :     0.063466
      px      :     0.017827
      py      :     0.012314


                      *****************************
                      * MAYER POPULATION ANALYSIS *
                      *****************************

  NA   - Mulliken gross atomic population
  ZA   - Total nuclear charge
  QA   - Mulliken gross atomic charge
  VA   - Mayer's total valence
  BVA  - Mayer's bonded valence
  FA   - Mayer's free valence

  ATOM       NA         ZA         QA         VA         BVA        FA
  0 O      8.3329     8.0000    -0.3329     1.9808     1.9808     0.0000
  1 C      6.0781     6.0000    -0.0781     3.9978     3.9978    -0.0000
  2 C      6.0536     6.0000    -0.0536     3.9944     3.9944    -0.0000
  3 H      0.8703     1.0000     0.1297     0.9602     0.9602     0.0000
  4 H      0.8959     1.0000     0.1041     0.9621     0.9621    -0.0000
  5 H      0.8778     1.0000     0.1222     0.9592     0.9592    -0.0000
  6 H      0.8914     1.0000     0.1086     0.9609     0.9609    -0.0000

  Mayer bond orders larger than 0.100000
B(  0-O ,  1-C ) :   0.9742 B(  0-O ,  2-C ) :   0.9855 B(  1-C ,  2-C ) :   1.0990 
B(  1-C ,  3-H ) :   0.9639 B(  1-C ,  4-H ) :   0.9417 B(  2-C ,  5-H ) :   0.9386 
B(  2-C ,  6-H ) :   0.9568 

-------
TIMINGS
-------

Total SCF time: 0 days 0 hours 0 min 2 sec 

Total time                  ....       2.589 sec
Sum of individual times     ....       2.381 sec  ( 91.9%)

Fock matrix formation       ....       2.114 sec  ( 81.7%)
  Split-RI-J                ....       0.233 sec  ( 11.0% of F)
  Chain of spheres X        ....       1.467 sec  ( 69.4% of F)
  XC integration            ....       0.391 sec  ( 18.5% of F)
    Basis function eval.    ....       0.101 sec  ( 25.9% of XC)
    Density eval.           ....       0.076 sec  ( 19.4% of XC)
    XC-Functional eval.     ....       0.023 sec  (  5.8% of XC)
    XC-Potential eval.      ....       0.134 sec  ( 34.3% of XC)
Diagonalization             ....       0.015 sec  (  0.6%)
Density matrix formation    ....       0.001 sec  (  0.1%)
Population analysis         ....       0.003 sec  (  0.1%)
Initial guess               ....       0.017 sec  (  0.7%)
Orbital Transformation      ....       0.000 sec  (  0.0%)
Orbital Orthonormalization  ....       0.000 sec  (  0.0%)
DIIS solution               ....       0.013 sec  (  0.5%)
SOSCF solution              ....       0.011 sec  (  0.4%)
Grid generation             ....       0.207 sec  (  8.0%)

Maximum memory used throughout the entire SCF-calculation: 61.1 MB


-------------------------------------------------------------------------------
                          DFT DISPERSION CORRECTION                            
                                                                               
                              DFTD3 V3.1  Rev 1                                
                          USING Becke-Johnson damping                          
-------------------------------------------------------------------------------
The PBE0 functional is recognized
Active option DFTDOPT                   ...         4   

molecular C6(AA) [au] = 351.059230 


            DFT-D V3
 parameters
 s6 scaling factor         :     1.0000 
 a1 scaling factor         :     0.4145 
 s8 scaling factor         :     1.2177 
 a2 scaling factor         :     4.8593 
 ad hoc parameters k1-k3   :    16.0000     1.3333    -4.0000 

 Edisp/kcal,au: -1.513421145086  -0.002411789855 
 E6   /kcal   :  -0.992549077 
 E8   /kcal   :  -0.520872068 
 % E8         :  34.416862100 

-------------------------   ----------------
Dispersion correction           -0.002411790
-------------------------   ----------------


-------------------------   --------------------
FINAL SINGLE POINT ENERGY      -153.651605085749
-------------------------   --------------------



           ************************************************************
           *        Program running with 8 parallel MPI-processes     *
           *              working on a common directory               *
           ************************************************************
------------------------------------------------------------------------------
                         ORCA SCF GRADIENT CALCULATION
------------------------------------------------------------------------------

 ... reading COSX grid (gridx3)
Gradient of the Kohn-Sham DFT energy:
Kohn-Sham wavefunction type      ... RKS
Hartree-Fock exchange scaling    ...    0.250
Number of operators              ...    1
Number of atoms                  ...    7
Basis set dimensions             ...  117
Integral neglect threshold       ... 2.5e-11
Integral primitive cutoff        ... 2.5e-12
SHARK Integral package           ... ON

Nuc. rep. gradient       (SHARK) ... done (  0.0 sec)
HCore & Overlap gradient (SHARK) ... done (  0.0 sec)
RI-J gradient            (SHARK) ... done (  0.1 sec)
COSX-gradient                    ... done (  0.3 sec)
Exchange-correlation gradient    ... done
Dispersion correction            ... done

------------------
CARTESIAN GRADIENT
------------------

   1   O   :    0.008360859    0.035250550    0.015867380
   2   C   :    0.003602047   -0.026575231    0.125594734
   3   C   :   -0.067927473   -0.015761219    0.011536184
   4   H   :    0.052159079    0.019850481   -0.088624754
   5   H   :   -0.012316802   -0.015615553   -0.028274706
   6   H   :    0.027266009   -0.004796681   -0.027879687
   7   H   :   -0.011101924    0.007502701   -0.008191593

Difference to translation invariance:
           :    0.0000417959   -0.0001449531    0.0000275563

Difference to rotation invariance:
           :    0.0000683560    0.0000067378    0.0000259570

Norm of the cartesian gradient     ...    0.1923733527
RMS gradient                       ...    0.0419793072
MAX gradient                       ...    0.1255947336

-------
TIMINGS
-------

Total SCF gradient time            ...        0.702 sec

One electron gradient       ....       0.010 sec  (  1.4%)
RI-J Coulomb gradient       ....       0.077 sec  ( 11.0%)
COSX gradient               ....       0.305 sec  ( 43.5%)
XC gradient                 ....       0.154 sec  ( 22.0%)

Maximum memory used throughout the entire SCFGRAD-calculation: 35.9 MB

                            ***************************************
                            *     ORCA property calculations      *
                            ***************************************

                                    ---------------------
                                    Active property flags
                                    ---------------------
   (+) Dipole Moment


------------------------------------------------------------------------------
                       ORCA ELECTRIC PROPERTIES CALCULATION
------------------------------------------------------------------------------

Dipole Moment Calculation                       ... on
Quadrupole Moment Calculation                   ... off
Polarizability Calculation                      ... off
GBWName                                         ... ox_gs_A_orca0010.gbw
Electron density                                ... ox_gs_A_orca0010.scfp
The origin for moment calculation is the CENTER OF MASS  = ( 0.018930, -0.022009  0.030819)

-------------
DIPOLE MOMENT
-------------
                                X             Y             Z
Electronic contribution:     -0.04032       1.55894       0.26082
Nuclear contribution   :      0.01624      -2.38394      -0.25528
                        -----------------------------------------
Total Dipole Moment    :     -0.02408      -0.82500       0.00554
                        -----------------------------------------
Magnitude (a.u.)       :      0.82537
Magnitude (Debye)      :      2.09792



--------------------
Rotational spectrum 
--------------------
 
Rotational constants in cm-1:     0.812050     0.782620     0.472112 
Rotational constants in MHz : 24344.637854 23462.360396 14153.576119 

 Dipole components along the rotational axes: 
x,y,z [a.u.] :    -0.503839    -0.651254     0.056966 
x,y,z [Debye]:    -1.280657    -1.655356     0.144797 

 

Timings for individual modules:

Sum of individual times         ...        4.116 sec (=   0.069 min)
GTO integral calculation        ...        0.394 sec (=   0.007 min)   9.6 %
SCF iterations                  ...        2.785 sec (=   0.046 min)  67.7 %
SCF Gradient evaluation         ...        0.937 sec (=   0.016 min)  22.8 %
                             ****ORCA TERMINATED NORMALLY****
TOTAL RUN TIME: 0 days 0 hours 0 minutes 4 seconds 404 msec
