
                                 *****************
                                 * O   R   C   A *
                                 *****************

                                            #,                                       
                                            ###                                      
                                            ####                                     
                                            #####                                    
                                            ######                                   
                                           ########,                                 
                                     ,,################,,,,,                         
                               ,,#################################,,                 
                          ,,##########################################,,             
                       ,#########################################, ''#####,          
                    ,#############################################,,   '####,        
                  ,##################################################,,,,####,       
                ,###########''''           ''''###############################       
              ,#####''   ,,,,##########,,,,          '''####'''          '####       
            ,##' ,,,,###########################,,,                        '##       
           ' ,,###''''                  '''############,,,                           
         ,,##''                                '''############,,,,        ,,,,,,###''
      ,#''                                            '''#######################'''  
     '                                                          ''''####''''         
             ,#######,   #######,   ,#######,      ##                                
            ,#'     '#,  ##    ##  ,#'     '#,    #''#        ######   ,####,        
            ##       ##  ##   ,#'  ##            #'  '#       #        #'  '#        
            ##       ##  #######   ##           ,######,      #####,   #    #        
            '#,     ,#'  ##    ##  '#,     ,#' ,#      #,         ##   #,  ,#        
             '#######'   ##     ##  '#######'  #'      '#     #####' # '####'        



                  #######################################################
                  #                        -***-                        #
                  #          Department of theory and spectroscopy      #
                  #    Directorship and core code : Frank Neese         #
                  #        Max Planck Institute fuer Kohlenforschung    #
                  #                Kaiser Wilhelm Platz 1               #
                  #                 D-45470 Muelheim/Ruhr               #
                  #                      Germany                        #
                  #                                                     #
                  #                  All rights reserved                #
                  #                        -***-                        #
                  #######################################################


                         Program Version 5.0.2 -  RELEASE  -


 With contributions from (in alphabetic order):
   Daniel Aravena         : Magnetic Suceptibility
   Michael Atanasov       : Ab Initio Ligand Field Theory (pilot matlab implementation)
   Alexander A. Auer      : GIAO ZORA, VPT2 properties, NMR spectrum
   Ute Becker             : Parallelization
   Giovanni Bistoni       : ED, misc. LED, open-shell LED, HFLD
   Martin Brehm           : Molecular dynamics
   Dmytro Bykov           : SCF Hessian
   Vijay G. Chilkuri      : MRCI spin determinant printing, contributions to CSF-ICE
   Dipayan Datta          : RHF DLPNO-CCSD density
   Achintya Kumar Dutta   : EOM-CC, STEOM-CC
   Dmitry Ganyushin       : Spin-Orbit,Spin-Spin,Magnetic field MRCI
   Miquel Garcia          : C-PCM and meta-GGA Hessian, CC/C-PCM, Gaussian charge scheme
   Yang Guo               : DLPNO-NEVPT2, F12-NEVPT2, CIM, IAO-localization
   Andreas Hansen         : Spin unrestricted coupled pair/coupled cluster methods
   Benjamin Helmich-Paris : MC-RPA, TRAH-SCF, COSX integrals
   Lee Huntington         : MR-EOM, pCC
   Robert Izsak           : Overlap fitted RIJCOSX, COSX-SCS-MP3, EOM
   Marcus Kettner         : VPT2
   Christian Kollmar      : KDIIS, OOCD, Brueckner-CCSD(T), CCSD density, CASPT2, CASPT2-K
   Simone Kossmann        : Meta GGA functionals, TD-DFT gradient, OOMP2, MP2 Hessian
   Martin Krupicka        : Initial AUTO-CI
   Lucas Lang             : DCDCAS
   Marvin Lechner         : AUTO-CI (C++ implementation), FIC-MRCC
   Dagmar Lenk            : GEPOL surface, SMD
   Dimitrios Liakos       : Extrapolation schemes; Compound Job, initial MDCI parallelization
   Dimitrios Manganas     : Further ROCIS development; embedding schemes
   Dimitrios Pantazis     : SARC Basis sets
   Anastasios Papadopoulos: AUTO-CI, single reference methods and gradients
   Taras Petrenko         : DFT Hessian,TD-DFT gradient, ASA, ECA, R-Raman, ABS, FL, XAS/XES, NRVS
   Peter Pinski           : DLPNO-MP2, DLPNO-MP2 Gradient
   Christoph Reimann      : Effective Core Potentials
   Marius Retegan         : Local ZFS, SOC
   Christoph Riplinger    : Optimizer, TS searches, QM/MM, DLPNO-CCSD(T), (RO)-DLPNO pert. Triples
   Tobias Risthaus        : Range-separated hybrids, TD-DFT gradient, RPA, STAB
   Michael Roemelt        : Original ROCIS implementation
   Masaaki Saitow         : Open-shell DLPNO-CCSD energy and density
   Barbara Sandhoefer     : DKH picture change effects
   Avijit Sen             : IP-ROCIS
   Kantharuban Sivalingam : CASSCF convergence, NEVPT2, FIC-MRCI
   Bernardo de Souza      : ESD, SOC TD-DFT
   Georgi Stoychev        : AutoAux, RI-MP2 NMR, DLPNO-MP2 response
   Willem Van den Heuvel  : Paramagnetic NMR
   Boris Wezisla          : Elementary symmetry handling
   Frank Wennmohs         : Technical directorship


 We gratefully acknowledge several colleagues who have allowed us to
 interface, adapt or use parts of their codes:
   Stefan Grimme, W. Hujo, H. Kruse, P. Pracht,  : VdW corrections, initial TS optimization,
                  C. Bannwarth, S. Ehlert          DFT functionals, gCP, sTDA/sTD-DF
   Ed Valeev, F. Pavosevic, A. Kumar             : LibInt (2-el integral package), F12 methods
   Garnet Chan, S. Sharma, J. Yang, R. Olivares  : DMRG
   Ulf Ekstrom                                   : XCFun DFT Library
   Mihaly Kallay                                 : mrcc  (arbitrary order and MRCC methods)
   Jiri Pittner, Ondrej Demel                    : Mk-CCSD
   Frank Weinhold                                : gennbo (NPA and NBO analysis)
   Christopher J. Cramer and Donald G. Truhlar   : smd solvation model
   Lars Goerigk                                  : TD-DFT with DH, B97 family of functionals
   V. Asgeirsson, H. Jonsson                     : NEB implementation
   FAccTs GmbH                                   : IRC, NEB, NEB-TS, DLPNO-Multilevel, CI-OPT
                                                   MM, QMMM, 2- and 3-layer-ONIOM, Crystal-QMMM,
                                                   LR-CPCM, SF, NACMEs, symmetry and pop. for TD-DFT,
                                                   nearIR, NL-DFT gradient (VV10), updates on ESD,
                                                   ML-optimized integration grids
   S Lehtola, MJT Oliveira, MAL Marques          : LibXC Library
   Liviu Ungur et al                             : ANISO software


 Your calculation uses the libint2 library for the computation of 2-el integrals
 For citations please refer to: http://libint.valeyev.net

 Your ORCA version has been built with support for libXC version: 5.1.0
 For citations please refer to: https://tddft.org/programs/libxc/

 This ORCA versions uses:
   CBLAS   interface :  Fast vector & matrix operations
   LAPACKE interface :  Fast linear algebra routines
   SCALAPACK package :  Parallel linear algebra routines
   Shared memory     :  Shared parallel matrices
   BLAS/LAPACK       :  OpenBLAS 0.3.15  USE64BITINT DYNAMIC_ARCH NO_AFFINITY SkylakeX SINGLE_THREADED
        Core in use  :  SkylakeX
   Copyright (c) 2011-2014, The OpenBLAS Project


Your calculation utilizes the atom-pairwise dispersion correction
with the Becke-Johnson damping scheme (D3BJ)
Cite in your paper:
S.Grimme, S.Ehrlich, L.Goerigk, J Comput Chem, (2011), 32, 1456–1465 
S.Grimme, J.Antony, S.Ehrlich and H.Krieg, J.Chem.Phys., 132, (2010), 154104 
   

================================================================================

----- Orbital basis set information -----
Your calculation utilizes the basis: def2-TZVP
   F. Weigend and R. Ahlrichs, Phys. Chem. Chem. Phys. 7, 3297 (2005).

----- AuxJ basis set information -----
Your calculation utilizes the auxiliary basis: def2/J
   F. Weigend, Phys. Chem. Chem. Phys. 8, 1057 (2006).

================================================================================
                                        WARNINGS
                       Please study these warnings very carefully!
================================================================================


INFO   : the flag for use of the SHARK integral package has been found!

================================================================================
                                       INPUT FILE
================================================================================
NAME = ox_gs_B_orca0008.inp
|  1> ! engrad PBE0 D3BJ def2-TZVP  
|  2> %pal nprocs 8 end
|  3> %maxcore 3000
|  4>  
|  5> *xyz 0 1 
|  6> O   -0.1969789075160084 0.9329533411357827 -0.003630295130571954
|  7> C   -0.7564197361781709 -0.4939281207046552 -0.06195357812973963
|  8> C   0.7358737037015647 -0.4581714390941238 0.10618459442967765
|  9> H   -1.2577092582870584 -0.7387423969961384 0.9911255176386122
| 10> H   -1.3712155218821804 -0.7356475356728878 -0.9017979921596676
| 11> H   1.2630852144097702 -0.6046511060726896 -0.9924545504431694
| 12> H   1.2040466829166514 -0.6978639586573624 0.8992509278233906
| 13> *
| 14> 
| 15>                          ****END OF INPUT****
================================================================================

                     *******************************
                     * Energy+Gradient Calculation *
                     *******************************

---------------------------------
CARTESIAN COORDINATES (ANGSTROEM)
---------------------------------
  O     -0.196979    0.932953   -0.003630
  C     -0.756420   -0.493928   -0.061954
  C      0.735874   -0.458171    0.106185
  H     -1.257709   -0.738742    0.991126
  H     -1.371216   -0.735648   -0.901798
  H      1.263085   -0.604651   -0.992455
  H      1.204047   -0.697864    0.899251

----------------------------
CARTESIAN COORDINATES (A.U.)
----------------------------
  NO LB      ZA    FRAG     MASS         X           Y           Z
   0 O     8.0000    0    15.999   -0.372236    1.763026   -0.006860
   1 C     6.0000    0    12.011   -1.429426   -0.933389   -0.117075
   2 C     6.0000    0    12.011    1.390600   -0.865819    0.200660
   3 H     1.0000    0     1.008   -2.376726   -1.396021    1.872956
   4 H     1.0000    0     1.008   -2.591222   -1.390172   -1.704151
   5 H     1.0000    0     1.008    2.386885   -1.142625   -1.875467
   6 H     1.0000    0     1.008    2.275318   -1.318772    1.699338

--------------------------------
INTERNAL COORDINATES (ANGSTROEM)
--------------------------------
 O      0   0   0     0.000000000000     0.00000000     0.00000000
 C      1   0   0     1.533742596480     0.00000000     0.00000000
 C      2   1   0     1.502161341554    67.12259670     0.00000000
 H      2   1   3     1.191721778267   108.11619644   103.40294268
 H      2   1   3     1.068522706108   116.75745914   233.45014252
 H      3   2   1     1.227361495448   108.88648550   262.47058552
 H      3   2   1     0.951626319289   125.17144485   109.15517600

---------------------------
INTERNAL COORDINATES (A.U.)
---------------------------
 O      0   0   0     0.000000000000     0.00000000     0.00000000
 C      1   0   0     2.898353467277     0.00000000     0.00000000
 C      2   1   0     2.838673544501    67.12259670     0.00000000
 H      2   1   3     2.252027788755   108.11619644   103.40294268
 H      2   1   3     2.019215282421   116.75745914   233.45014252
 H      3   2   1     2.319377093717   108.88648550   262.47058552
 H      3   2   1     1.798313125288   125.17144485   109.15517600

---------------------
BASIS SET INFORMATION
---------------------
There are 3 groups of distinct atoms

 Group   1 Type O   : 11s6p2d1f contracted to 5s3p2d1f pattern {62111/411/11/1}
 Group   2 Type C   : 11s6p2d1f contracted to 5s3p2d1f pattern {62111/411/11/1}
 Group   3 Type H   : 5s1p contracted to 3s1p pattern {311/1}

Atom   0O    basis set group =>   1
Atom   1C    basis set group =>   2
Atom   2C    basis set group =>   2
Atom   3H    basis set group =>   3
Atom   4H    basis set group =>   3
Atom   5H    basis set group =>   3
Atom   6H    basis set group =>   3
---------------------------------
AUXILIARY/J BASIS SET INFORMATION
---------------------------------
There are 3 groups of distinct atoms

 Group   1 Type O   : 12s5p4d2f1g contracted to 6s4p3d1f1g pattern {711111/2111/211/2/1}
 Group   2 Type C   : 12s5p4d2f1g contracted to 6s4p3d1f1g pattern {711111/2111/211/2/1}
 Group   3 Type H   : 5s2p1d contracted to 3s1p1d pattern {311/2/1}

Atom   0O    basis set group =>   1
Atom   1C    basis set group =>   2
Atom   2C    basis set group =>   2
Atom   3H    basis set group =>   3
Atom   4H    basis set group =>   3
Atom   5H    basis set group =>   3
Atom   6H    basis set group =>   3


           ************************************************************
           *        Program running with 8 parallel MPI-processes     *
           *              working on a common directory               *
           ************************************************************
------------------------------------------------------------------------------
                           ORCA GTO INTEGRAL CALCULATION
                           -- RI-GTO INTEGRALS CHOSEN --
------------------------------------------------------------------------------
------------------------------------------------------------------------------
                   ___                                                        
                  /   \      - P O W E R E D   B Y -                         
                 /     \                                                     
                 |  |  |   _    _      __       _____    __    __             
                 |  |  |  | |  | |    /  \     |  _  \  |  |  /  |          
                  \  \/   | |  | |   /    \    | | | |  |  | /  /          
                 / \  \   | |__| |  /  /\  \   | |_| |  |  |/  /          
                |  |  |   |  __  | /  /__\  \  |    /   |      \           
                |  |  |   | |  | | |   __   |  |    \   |  |\   \          
                \     /   | |  | | |  |  |  |  | |\  \  |  | \   \       
                 \___/    |_|  |_| |__|  |__|  |_| \__\ |__|  \__/        
                                                                              
                      - O R C A' S   B I G   F R I E N D -                    
                                      &                                       
                       - I N T E G R A L  F E E D E R -                       
                                                                              
 v1 FN, 2020, v2 2021                                                         
------------------------------------------------------------------------------


Reading SHARK input file ox_gs_B_orca0008.SHARKINP.tmp ... ok
----------------------
SHARK INTEGRAL PACKAGE
----------------------

Number of atoms                             ...      7
Number of basis functions                   ...    117
Number of shells                            ...     49
Maximum angular momentum                    ...      3
Integral batch strategy                     ... SHARK/LIBINT Hybrid
RI-J (if used) integral strategy            ... SPLIT-RIJ (Revised 2003 algorithm where possible)
Printlevel                                  ...      1
Contraction scheme used                     ... SEGMENTED contraction
Coulomb Range Separation                    ... NOT USED
Exchange Range Separation                   ... NOT USED
Finite Nucleus Model                        ... NOT USED
Auxiliary Coulomb fitting basis             ... AVAILABLE
   # of basis functions in Aux-J            ...    191
   # of shells in Aux-J                     ...     65
   Maximum angular momentum in Aux-J        ...      4
Auxiliary J/K fitting basis                 ... NOT available
Auxiliary Correlation fitting basis         ... NOT available
Auxiliary 'external' fitting basis          ... NOT available
Integral threshold                          ...     2.500000e-11
Primitive cut-off                           ...     2.500000e-12
Primitive pair pre-selection threshold      ...     2.500000e-12

Calculating pre-screening integrals         ... done (  0.0 sec) Dimension = 49
Organizing shell pair data                  ... done (  0.0 sec)
Shell pair information
Total number of shell pairs                 ...      1225
Shell pairs after pre-screening             ...      1220
Total number of primitive shell pairs       ...      3648
Primitive shell pairs kept                  ...      3132
          la=0 lb=0:    373 shell pairs
          la=1 lb=0:    351 shell pairs
          la=1 lb=1:     91 shell pairs
          la=2 lb=0:    162 shell pairs
          la=2 lb=1:     78 shell pairs
          la=2 lb=2:     21 shell pairs
          la=3 lb=0:     81 shell pairs
          la=3 lb=1:     39 shell pairs
          la=3 lb=2:     18 shell pairs
          la=3 lb=3:      6 shell pairs

Calculating one electron integrals          ... done (  0.0 sec)
Calculating RI/J V-Matrix + Cholesky decomp.... done (  0.0 sec)
Calculating Nuclear repulsion               ... done (  0.0 sec) ENN=     70.343666289202 Eh

SHARK setup successfully completed in   0.1 seconds

Maximum memory used throughout the entire GTOINT-calculation: 14.9 MB


           ************************************************************
           *        Program running with 8 parallel MPI-processes     *
           *              working on a common directory               *
           ************************************************************
-------------------------------------------------------------------------------
                                 ORCA SCF
-------------------------------------------------------------------------------

------------
SCF SETTINGS
------------
Hamiltonian:
 Density Functional     Method          .... DFT(GTOs)
 Exchange Functional    Exchange        .... PBE
   PBE kappa parameter   XKappa         ....  0.804000
   PBE mue parameter    XMuePBE         ....  0.219520
 Correlation Functional Correlation     .... PBE
   PBE beta parameter  CBetaPBE         ....  0.066725
 LDA part of GGA corr.  LDAOpt          .... PW91-LDA
 Gradients option       PostSCFGGA      .... off
 Hybrid DFT is turned on
   Fraction HF Exchange ScalHFX         ....  0.250000
   Scaling of DF-GGA-X  ScalDFX         ....  0.750000
   Scaling of DF-GGA-C  ScalDFC         ....  1.000000
   Scaling of DF-LDA-C  ScalLDAC        ....  1.000000
   Perturbative correction              ....  0.000000
   Density functional embedding theory  .... OFF
   NL short-range parameter             ....  6.900000
 RI-approximation to the Coulomb term is turned on
   Number of AuxJ basis functions       .... 191
   RIJ-COSX (HFX calculated with COS-X)).... on


General Settings:
 Integral files         IntName         .... ox_gs_B_orca0008
 Hartree-Fock type      HFTyp           .... RHF
 Total Charge           Charge          ....    0
 Multiplicity           Mult            ....    1
 Number of Electrons    NEL             ....   24
 Basis Dimension        Dim             ....  117
 Nuclear Repulsion      ENuc            ....     70.3436662892 Eh

Convergence Acceleration:
 DIIS                   CNVDIIS         .... on
   Start iteration      DIISMaxIt       ....    12
   Startup error        DIISStart       ....  0.200000
   # of expansion vecs  DIISMaxEq       ....     5
   Bias factor          DIISBfac        ....   1.050
   Max. coefficient     DIISMaxC        ....  10.000
 Trust-Rad. Augm. Hess. CNVTRAH         .... auto
   Auto Start mean grad. ratio tolernc. ....  1.125000
   Auto Start start iteration           ....    20
   Auto Start num. interpolation iter.  ....    10
   Max. Number of Micro iterations      ....    16
   Max. Number of Macro iterations      .... Maxiter - #DIIS iter
   Number of Davidson start vectors     ....     2
   Converg. threshold I  (grad. norm)   ....   1.000e-05
   Converg. threshold II (energy diff.) ....   1.000e-08
   Grad. Scal. Fac. for Micro threshold ....   0.100
   Minimum threshold for Micro iter.    ....   0.010
   NR start threshold (gradient norm)   ....   0.001
   Initial trust radius                 ....   0.400
   Minimum AH scaling param. (alpha)    ....   1.000
   Maximum AH scaling param. (alpha)    .... 1000.000
   Orbital update algorithm             .... Taylor
   White noise on init. David. guess    .... on
   Maximum white noise                  ....   0.010
   Quad. conv. algorithm                .... NR
 SOSCF                  CNVSOSCF        .... on
   Start iteration      SOSCFMaxIt      ....   150
   Startup grad/error   SOSCFStart      ....  0.003300
 Level Shifting         CNVShift        .... on
   Level shift para.    LevelShift      ....    0.2500
   Turn off err/grad.   ShiftErr        ....    0.0010
 Zerner damping         CNVZerner       .... off
 Static damping         CNVDamp         .... on
   Fraction old density DampFac         ....    0.7000
   Max. Damping (<1)    DampMax         ....    0.9800
   Min. Damping (>=0)   DampMin         ....    0.0000
   Turn off err/grad.   DampErr         ....    0.1000
 Fernandez-Rico         CNVRico         .... off

SCF Procedure:
 Maximum # iterations   MaxIter         ....   125
 SCF integral mode      SCFMode         .... Direct
   Integral package                     .... SHARK and LIBINT hybrid scheme
 Reset frequency        DirectResetFreq ....    20
 Integral Threshold     Thresh          ....  2.500e-11 Eh
 Primitive CutOff       TCut            ....  2.500e-12 Eh

Convergence Tolerance:
 Convergence Check Mode ConvCheckMode   .... Total+1el-Energy
 Convergence forced     ConvForced      .... 0
 Energy Change          TolE            ....  1.000e-08 Eh
 1-El. energy change                    ....  1.000e-05 Eh
 Orbital Gradient       TolG            ....  1.000e-05
 Orbital Rotation angle TolX            ....  1.000e-05
 DIIS Error             TolErr          ....  5.000e-07


Diagonalization of the overlap matrix:
Smallest eigenvalue                        ... 5.537e-04
Time for diagonalization                   ...    0.001 sec
Threshold for overlap eigenvalues          ... 1.000e-08
Number of eigenvalues below threshold      ... 0
Time for construction of square roots      ...    0.001 sec
Total time needed                          ...    0.003 sec

Time for model grid setup =    0.024 sec

------------------------------
INITIAL GUESS: MODEL POTENTIAL
------------------------------
Loading Hartree-Fock densities                     ... done
Calculating cut-offs                               ... done
Initializing the effective Hamiltonian             ... done
Setting up the integral package (SHARK)            ... done
Starting the Coulomb interaction                   ... done (   0.0 sec)
Reading the grid                                   ... done
Mapping shells                                     ... done
Starting the XC term evaluation                    ... done (   0.0 sec)
  promolecular density results
     # of electrons  =     23.997476754
     EX              =    -19.446306967
     EC              =     -0.767380884
     EX+EC           =    -20.213687851
Transforming the Hamiltonian                       ... done (   0.0 sec)
Diagonalizing the Hamiltonian                      ... done (   0.0 sec)
Back transforming the eigenvectors                 ... done (   0.0 sec)
Now organizing SCF variables                       ... done
                      ------------------
                      INITIAL GUESS DONE (   0.0 sec)
                      ------------------
-------------------
DFT GRID GENERATION
-------------------

General Integration Accuracy     IntAcc      ... 4.388
Radial Grid Type                 RadialGrid  ... OptM3 with GC (2021)
Angular Grid (max. ang.)         AngularGrid ... 4 (Lebedev-302)
Angular grid pruning method      GridPruning ... 4 (adaptive)
Weight generation scheme         WeightScheme... Becke
Basis function cutoff            BFCut       ... 1.0000e-11
Integration weight cutoff        WCut        ... 1.0000e-14
Angular grids for H and He will be reduced by one unit
Partially contracted basis set               ... off
Rotationally invariant grid construction     ... off

Total number of grid points                  ...    31342
Total number of batches                      ...      493
Average number of points per batch           ...       63
Average number of grid points per atom       ...     4477
Time for grid setup =    0.109 sec

--------------------
COSX GRID GENERATION
--------------------

GRIDX 1
-------
General Integration Accuracy     IntAcc      ... 3.816
Radial Grid Type                 RadialGrid  ... OptM3 with GC (2021)
Angular Grid (max. ang.)         AngularGrid ... 1 (Lebedev-50)
Angular grid pruning method      GridPruning ... 4 (adaptive)
Weight generation scheme         WeightScheme... Becke
Basis function cutoff            BFCut       ... 1.0000e-11
Integration weight cutoff        WCut        ... 1.0000e-14
Angular grids for H and He will be reduced by one unit
Partially contracted basis set               ... on
Rotationally invariant grid construction     ... off

Total number of grid points                  ...     4042
Total number of batches                      ...       68
Average number of points per batch           ...       59
Average number of grid points per atom       ...      577
UseSFitting                                  ... on

GRIDX 2
-------
General Integration Accuracy     IntAcc      ... 4.020
Radial Grid Type                 RadialGrid  ... OptM3 with GC (2021)
Angular Grid (max. ang.)         AngularGrid ... 2 (Lebedev-110)
Angular grid pruning method      GridPruning ... 4 (adaptive)
Weight generation scheme         WeightScheme... Becke
Basis function cutoff            BFCut       ... 1.0000e-11
Integration weight cutoff        WCut        ... 1.0000e-14
Angular grids for H and He will be reduced by one unit
Partially contracted basis set               ... on
Rotationally invariant grid construction     ... off

Total number of grid points                  ...     8739
Total number of batches                      ...      140
Average number of points per batch           ...       62
Average number of grid points per atom       ...     1248
UseSFitting                                  ... on

GRIDX 3
-------
General Integration Accuracy     IntAcc      ... 4.338
Radial Grid Type                 RadialGrid  ... OptM3 with GC (2021)
Angular Grid (max. ang.)         AngularGrid ... 3 (Lebedev-194)
Angular grid pruning method      GridPruning ... 4 (adaptive)
Weight generation scheme         WeightScheme... Becke
Basis function cutoff            BFCut       ... 1.0000e-11
Integration weight cutoff        WCut        ... 1.0000e-14
Angular grids for H and He will be reduced by one unit
Partially contracted basis set               ... on
Rotationally invariant grid construction     ... off

Total number of grid points                  ...    19278
Total number of batches                      ...      305
Average number of points per batch           ...       63
Average number of grid points per atom       ...     2754
UseSFitting                                  ... on

Time for X-Grid setup             =    0.073 sec

--------------
SCF ITERATIONS
--------------
ITER       Energy         Delta-E        Max-DP      RMS-DP      [F,P]     Damp
               ***  Starting incremental Fock matrix formation  ***
  0   -153.5473948333   0.000000000000 0.03300942  0.00115860  0.1855926 0.7000
  1   -153.5746711265  -0.027276293223 0.01760278  0.00081435  0.0667557 0.7000
                               ***Turning on DIIS***
  2   -153.5847291772  -0.010058050748 0.02548421  0.00130161  0.0325835 0.0000
  3   -153.6028105109  -0.018081333704 0.01372899  0.00063595  0.0368781 0.0000
  4   -153.6055175363  -0.002707025390 0.00549732  0.00017746  0.0153862 0.0000
                      *** Initiating the SOSCF procedure ***
                           *** Shutting down DIIS ***
                      *** Re-Reading the Fockian *** 
                      *** Removing any level shift *** 
ITER      Energy       Delta-E        Grad      Rot      Max-DP    RMS-DP
  5   -153.60590253  -0.0003849955  0.000529  0.000529  0.001111  0.000049
               *** Restarting incremental Fock matrix formation ***
  6   -153.60592056  -0.0000180278  0.000122  0.000181  0.000545  0.000020
  7   -153.60592086  -0.0000002954  0.000190  0.000207  0.000297  0.000012
  8   -153.60592111  -0.0000002574  0.000090  0.000121  0.000125  0.000006
  9   -153.60592115  -0.0000000386  0.000058  0.000050  0.000076  0.000003
 10   -153.60592122  -0.0000000731  0.000012  0.000021  0.000035  0.000001
 11   -153.60592123  -0.0000000030  0.000006  0.000008  0.000012  0.000000
                  ***Gradient check signals convergence***
              ***Rediagonalizing the Fockian in SOSCF/NRSCF***

               *****************************************************
               *                     SUCCESS                       *
               *           SCF CONVERGED AFTER  12 CYCLES          *
               *****************************************************

Old exchange energy                            =     -4.952937792 Eh
New exchange energy                            =     -4.952949820 Eh
Exchange energy change after final integration =     -0.000012029 Eh
Total energy after final integration           =   -153.605933258 Eh
Final COS-X integration done in                =     0.249 sec

----------------
TOTAL SCF ENERGY
----------------

Total Energy       :         -153.60593326 Eh           -4179.82994 eV

Components:
Nuclear Repulsion  :           70.34366629 Eh            1914.14847 eV
Electronic Energy  :         -223.94959955 Eh           -6093.97842 eV
One Electron Energy:         -347.56442457 Eh           -9457.70881 eV
Two Electron Energy:          123.61482502 Eh            3363.73040 eV
Max COSX asymmetry :            0.00000110 Eh               0.00003 eV

Virial components:
Potential Energy   :         -306.11404902 Eh           -8329.78675 eV
Kinetic Energy     :          152.50811577 Eh            4149.95681 eV
Virial Ratio       :            2.00719842


DFT components:
N(Alpha)           :       12.000002468804 electrons
N(Beta)            :       12.000002468804 electrons
N(Total)           :       24.000004937608 electrons
E(X)               :      -14.855940355255 Eh       
E(C)               :       -0.776957472548 Eh       
E(XC)              :      -15.632897827803 Eh       
DFET-embed. en.    :        0.000000000000 Eh       

---------------
SCF CONVERGENCE
---------------

  Last Energy change         ...   -2.0609e-09  Tolerance :   1.0000e-08
  Last MAX-Density change    ...    1.1102e-15  Tolerance :   1.0000e-07
  Last RMS-Density change    ...    2.2401e-17  Tolerance :   5.0000e-09
  Last Orbital Gradient      ...    1.9750e-06  Tolerance :   1.0000e-05
  Last Orbital Rotation      ...    2.9629e-06  Tolerance :   1.0000e-05

             **** THE GBW FILE WAS UPDATED (ox_gs_B_orca0008.gbw) ****
             **** DENSITY ox_gs_B_orca0008.scfp WAS UPDATED ****
             **** ENERGY FILE WAS UPDATED (ox_gs_B_orca0008.en.tmp) ****
             **** THE GBW FILE WAS UPDATED (ox_gs_B_orca0008.gbw) ****
             **** DENSITY ox_gs_B_orca0008.scfp WAS UPDATED ****
----------------
ORBITAL ENERGIES
----------------

  NO   OCC          E(Eh)            E(eV) 
   0   2.0000     -19.223340      -523.0937 
   1   2.0000     -10.296207      -280.1740 
   2   2.0000     -10.294399      -280.1249 
   3   2.0000      -1.014297       -27.6004 
   4   2.0000      -0.730860       -19.8877 
   5   2.0000      -0.647871       -17.6295 
   6   2.0000      -0.508672       -13.8417 
   7   2.0000      -0.490224       -13.3397 
   8   2.0000      -0.393322       -10.7028 
   9   2.0000      -0.366748        -9.9797 
  10   2.0000      -0.335308        -9.1242 
  11   2.0000      -0.283432        -7.7126 
  12   0.0000       0.005414         0.1473 
  13   0.0000       0.052257         1.4220 
  14   0.0000       0.065281         1.7764 
  15   0.0000       0.075209         2.0465 
  16   0.0000       0.094088         2.5603 
  17   0.0000       0.143036         3.8922 
  18   0.0000       0.191791         5.2189 
  19   0.0000       0.192084         5.2269 
  20   0.0000       0.252769         6.8782 
  21   0.0000       0.266876         7.2621 
  22   0.0000       0.276164         7.5148 
  23   0.0000       0.279939         7.6175 
  24   0.0000       0.380837        10.3631 
  25   0.0000       0.389500        10.5988 
  26   0.0000       0.396812        10.7978 
  27   0.0000       0.417005        11.3473 
  28   0.0000       0.424481        11.5507 
  29   0.0000       0.473021        12.8716 
  30   0.0000       0.487563        13.2673 
  31   0.0000       0.513703        13.9786 
  32   0.0000       0.546071        14.8594 
  33   0.0000       0.667315        18.1586 
  34   0.0000       0.689762        18.7694 
  35   0.0000       0.733921        19.9710 
  36   0.0000       0.815465        22.1899 
  37   0.0000       0.850386        23.1402 
  38   0.0000       0.884740        24.0750 
  39   0.0000       0.911993        24.8166 
  40   0.0000       0.977715        26.6050 
  41   0.0000       1.023891        27.8615 
  42   0.0000       1.068610        29.0784 
  43   0.0000       1.082605        29.4592 
  44   0.0000       1.139220        30.9997 
  45   0.0000       1.357713        36.9453 
  46   0.0000       1.444653        39.3110 
  47   0.0000       1.474441        40.1216 
  48   0.0000       1.485757        40.4295 
  49   0.0000       1.514161        41.2024 
  50   0.0000       1.553096        42.2619 
  51   0.0000       1.612838        43.8875 
  52   0.0000       1.625115        44.2216 
  53   0.0000       1.647669        44.8353 
  54   0.0000       1.729164        47.0529 
  55   0.0000       1.775709        48.3195 
  56   0.0000       1.818159        49.4746 
  57   0.0000       1.882848        51.2349 
  58   0.0000       1.917473        52.1771 
  59   0.0000       1.925344        52.3913 
  60   0.0000       2.103925        57.2507 
  61   0.0000       2.143352        58.3236 
  62   0.0000       2.165744        58.9329 
  63   0.0000       2.169409        59.0326 
  64   0.0000       2.240092        60.9560 
  65   0.0000       2.350733        63.9667 
  66   0.0000       2.379306        64.7442 
  67   0.0000       2.428114        66.0723 
  68   0.0000       2.448949        66.6393 
  69   0.0000       2.506931        68.2171 
  70   0.0000       2.570916        69.9582 
  71   0.0000       2.629451        71.5510 
  72   0.0000       2.670621        72.6713 
  73   0.0000       2.690274        73.2061 
  74   0.0000       2.715316        73.8875 
  75   0.0000       2.805405        76.3389 
  76   0.0000       2.876224        78.2660 
  77   0.0000       2.916296        79.3564 
  78   0.0000       2.934410        79.8494 
  79   0.0000       3.022555        82.2479 
  80   0.0000       3.034415        82.5706 
  81   0.0000       3.082663        83.8835 
  82   0.0000       3.119148        84.8763 
  83   0.0000       3.162846        86.0654 
  84   0.0000       3.177025        86.4513 
  85   0.0000       3.264017        88.8184 
  86   0.0000       3.331705        90.6603 
  87   0.0000       3.372072        91.7587 
  88   0.0000       3.452611        93.9503 
  89   0.0000       3.500423        95.2513 
  90   0.0000       3.636045        98.9418 
  91   0.0000       3.663053        99.6767 
  92   0.0000       3.814298       103.7923 
  93   0.0000       3.879701       105.5720 
  94   0.0000       3.957546       107.6903 
  95   0.0000       4.046250       110.1040 
  96   0.0000       4.098175       111.5170 
  97   0.0000       4.251010       115.6759 
  98   0.0000       4.404488       119.8522 
  99   0.0000       4.610360       125.4543 
 100   0.0000       4.631788       126.0374 
 101   0.0000       4.777196       129.9941 
 102   0.0000       5.233642       142.4146 
 103   0.0000       5.308876       144.4619 
 104   0.0000       5.434274       147.8741 
 105   0.0000       5.559306       151.2764 
 106   0.0000       5.582819       151.9162 
 107   0.0000       5.598695       152.3482 
 108   0.0000       5.834514       158.7652 
 109   0.0000       6.470978       176.0843 
 110   0.0000       6.496158       176.7694 
 111   0.0000       6.695608       182.1968 
 112   0.0000       6.950632       189.1363 
 113   0.0000       7.120467       193.7578 
 114   0.0000      22.136578       602.3669 
 115   0.0000      22.211332       604.4011 
 116   0.0000      43.672525      1188.3898 

                    ********************************
                    * MULLIKEN POPULATION ANALYSIS *
                    ********************************

-----------------------
MULLIKEN ATOMIC CHARGES
-----------------------
   0 O :   -0.333979
   1 C :   -0.068238
   2 C :   -0.128584
   3 H :    0.104327
   4 H :    0.145067
   5 H :    0.129462
   6 H :    0.151945
Sum of atomic charges:   -0.0000000

--------------------------------
MULLIKEN REDUCED ORBITAL CHARGES
--------------------------------
  0 O s       :     3.901538  s :     3.901538
      pz      :     1.886116  p :     4.404264
      px      :     1.364745
      py      :     1.153404
      dz2     :     0.004107  d :     0.026894
      dxz     :     0.001120
      dyz     :     0.004071
      dx2y2   :     0.007909
      dxy     :     0.009687
      f0      :     0.000139  f :     0.001283
      f+1     :     0.000105
      f-1     :     0.000328
      f+2     :     0.000064
      f-2     :     0.000084
      f+3     :     0.000294
      f-3     :     0.000270
  1 C s       :     3.241216  s :     3.241216
      pz      :     1.041833  p :     2.707962
      px      :     0.923803
      py      :     0.742325
      dz2     :     0.008348  d :     0.109480
      dxz     :     0.021798
      dyz     :     0.030017
      dx2y2   :     0.026441
      dxy     :     0.022876
      f0      :     0.001247  f :     0.009581
      f+1     :     0.001189
      f-1     :     0.000628
      f+2     :     0.001592
      f-2     :     0.000860
      f+3     :     0.001688
      f-3     :     0.002377
  2 C s       :     3.269553  s :     3.269553
      pz      :     1.036422  p :     2.762631
      px      :     0.940165
      py      :     0.786044
      dz2     :     0.010425  d :     0.088326
      dxz     :     0.022963
      dyz     :     0.017518
      dx2y2   :     0.018978
      dxy     :     0.018442
      f0      :     0.001035  f :     0.008073
      f+1     :     0.001292
      f-1     :     0.000368
      f+2     :     0.000919
      f-2     :     0.000932
      f+3     :     0.001708
      f-3     :     0.001819
  3 H s       :     0.878032  s :     0.878032
      pz      :     0.010167  p :     0.017641
      px      :     0.004617
      py      :     0.002857
  4 H s       :     0.833060  s :     0.833060
      pz      :     0.010146  p :     0.021873
      px      :     0.007826
      py      :     0.003901
  5 H s       :     0.853707  s :     0.853707
      pz      :     0.010013  p :     0.016831
      px      :     0.004217
      py      :     0.002601
  6 H s       :     0.822828  s :     0.822828
      pz      :     0.011151  p :     0.025227
      px      :     0.008156
      py      :     0.005920


                     *******************************
                     * LOEWDIN POPULATION ANALYSIS *
                     *******************************

----------------------
LOEWDIN ATOMIC CHARGES
----------------------
   0 O :   -0.051313
   1 C :   -0.270530
   2 C :   -0.149573
   3 H :    0.135176
   4 H :    0.109313
   5 H :    0.155511
   6 H :    0.071416

-------------------------------
LOEWDIN REDUCED ORBITAL CHARGES
-------------------------------
  0 O s       :     3.559321  s :     3.559321
      pz      :     1.818419  p :     4.434732
      px      :     1.359209
      py      :     1.257104
      dz2     :     0.009124  d :     0.054177
      dxz     :     0.002994
      dyz     :     0.007600
      dx2y2   :     0.018257
      dxy     :     0.016201
      f0      :     0.000238  f :     0.003084
      f+1     :     0.000125
      f-1     :     0.000627
      f+2     :     0.000159
      f-2     :     0.000318
      f+3     :     0.000722
      f-3     :     0.000894
  1 C s       :     2.869628  s :     2.869628
      pz      :     1.059887  p :     2.902282
      px      :     1.048600
      py      :     0.793795
      dz2     :     0.051050  d :     0.443180
      dxz     :     0.111244
      dyz     :     0.078908
      dx2y2   :     0.108320
      dxy     :     0.093658
      f0      :     0.006959  f :     0.055440
      f+1     :     0.004401
      f-1     :     0.005184
      f+2     :     0.008651
      f-2     :     0.003182
      f+3     :     0.011597
      f-3     :     0.015467
  2 C s       :     2.869559  s :     2.869559
      pz      :     1.067902  p :     2.900505
      px      :     1.053382
      py      :     0.779222
      dz2     :     0.047276  d :     0.339667
      dxz     :     0.104684
      dyz     :     0.042289
      dx2y2   :     0.074553
      dxy     :     0.070866
      f0      :     0.005140  f :     0.039841
      f+1     :     0.004587
      f-1     :     0.003150
      f+2     :     0.004657
      f-2     :     0.003210
      f+3     :     0.009364
      f-3     :     0.009732
  3 H s       :     0.817671  s :     0.817671
      pz      :     0.027965  p :     0.047152
      px      :     0.011593
      py      :     0.007594
  4 H s       :     0.823795  s :     0.823795
      pz      :     0.032487  p :     0.066892
      px      :     0.022237
      py      :     0.012168
  5 H s       :     0.800770  s :     0.800770
      pz      :     0.026683  p :     0.043720
      px      :     0.010321
      py      :     0.006716
  6 H s       :     0.839259  s :     0.839259
      pz      :     0.041446  p :     0.089325
      px      :     0.027306
      py      :     0.020573


                      *****************************
                      * MAYER POPULATION ANALYSIS *
                      *****************************

  NA   - Mulliken gross atomic population
  ZA   - Total nuclear charge
  QA   - Mulliken gross atomic charge
  VA   - Mayer's total valence
  BVA  - Mayer's bonded valence
  FA   - Mayer's free valence

  ATOM       NA         ZA         QA         VA         BVA        FA
  0 O      8.3340     8.0000    -0.3340     1.9552     1.9552    -0.0000
  1 C      6.0682     6.0000    -0.0682     3.9594     3.9594    -0.0000
  2 C      6.1286     6.0000    -0.1286     3.9490     3.9490     0.0000
  3 H      0.8957     1.0000     0.1043     0.9621     0.9621    -0.0000
  4 H      0.8549     1.0000     0.1451     0.9499     0.9499    -0.0000
  5 H      0.8705     1.0000     0.1295     0.9637     0.9637    -0.0000
  6 H      0.8481     1.0000     0.1519     0.9463     0.9463     0.0000

  Mayer bond orders larger than 0.100000
B(  0-O ,  1-C ) :   0.9815 B(  0-O ,  2-C ) :   0.9570 B(  1-C ,  2-C ) :   1.0804 
B(  1-C ,  3-H ) :   0.9481 B(  1-C ,  4-H ) :   0.9397 B(  2-C ,  5-H ) :   0.9511 
B(  2-C ,  6-H ) :   0.9442 

-------
TIMINGS
-------

Total SCF time: 0 days 0 hours 0 min 2 sec 

Total time                  ....       2.740 sec
Sum of individual times     ....       2.471 sec  ( 90.2%)

Fock matrix formation       ....       2.206 sec  ( 80.5%)
  Split-RI-J                ....       0.239 sec  ( 10.9% of F)
  Chain of spheres X        ....       1.533 sec  ( 69.5% of F)
  XC integration            ....       0.409 sec  ( 18.5% of F)
    Basis function eval.    ....       0.111 sec  ( 27.0% of XC)
    Density eval.           ....       0.083 sec  ( 20.4% of XC)
    XC-Functional eval.     ....       0.024 sec  (  5.8% of XC)
    XC-Potential eval.      ....       0.143 sec  ( 34.9% of XC)
Diagonalization             ....       0.013 sec  (  0.5%)
Density matrix formation    ....       0.001 sec  (  0.1%)
Population analysis         ....       0.002 sec  (  0.1%)
Initial guess               ....       0.017 sec  (  0.6%)
Orbital Transformation      ....       0.000 sec  (  0.0%)
Orbital Orthonormalization  ....       0.000 sec  (  0.0%)
DIIS solution               ....       0.010 sec  (  0.4%)
SOSCF solution              ....       0.015 sec  (  0.5%)
Grid generation             ....       0.206 sec  (  7.5%)

Maximum memory used throughout the entire SCF-calculation: 61.0 MB


-------------------------------------------------------------------------------
                          DFT DISPERSION CORRECTION                            
                                                                               
                              DFTD3 V3.1  Rev 1                                
                          USING Becke-Johnson damping                          
-------------------------------------------------------------------------------
The PBE0 functional is recognized
Active option DFTDOPT                   ...         4   

molecular C6(AA) [au] = 355.409560 


            DFT-D V3
 parameters
 s6 scaling factor         :     1.0000 
 a1 scaling factor         :     0.4145 
 s8 scaling factor         :     1.2177 
 a2 scaling factor         :     4.8593 
 ad hoc parameters k1-k3   :    16.0000     1.3333    -4.0000 

 Edisp/kcal,au: -1.517102926695  -0.002417657147 
 E6   /kcal   :  -0.993229422 
 E8   /kcal   :  -0.523873505 
 % E8         :  34.531177518 

-------------------------   ----------------
Dispersion correction           -0.002417657
-------------------------   ----------------


-------------------------   --------------------
FINAL SINGLE POINT ENERGY      -153.608350915062
-------------------------   --------------------



           ************************************************************
           *        Program running with 8 parallel MPI-processes     *
           *              working on a common directory               *
           ************************************************************
------------------------------------------------------------------------------
                         ORCA SCF GRADIENT CALCULATION
------------------------------------------------------------------------------

 ... reading COSX grid (gridx3)
Gradient of the Kohn-Sham DFT energy:
Kohn-Sham wavefunction type      ... RKS
Hartree-Fock exchange scaling    ...    0.250
Number of operators              ...    1
Number of atoms                  ...    7
Basis set dimensions             ...  117
Integral neglect threshold       ... 2.5e-11
Integral primitive cutoff        ... 2.5e-12
SHARK Integral package           ... ON

Nuc. rep. gradient       (SHARK) ... done (  0.0 sec)
HCore & Overlap gradient (SHARK) ... done (  0.0 sec)
RI-J gradient            (SHARK) ... done (  0.1 sec)
COSX-gradient                    ... done (  0.3 sec)
Exchange-correlation gradient    ... done
Dispersion correction            ... done

------------------
CARTESIAN GRADIENT
------------------

   1   O   :   -0.025493874    0.102018470   -0.006952670
   2   C   :   -0.022835321   -0.042817351   -0.092679923
   3   C   :    0.108367344   -0.067238399    0.216599097
   4   H   :   -0.012144713   -0.009096941    0.047419238
   5   H   :   -0.004475120    0.004727684    0.014286208
   6   H   :    0.017616306   -0.010794254   -0.064017355
   7   H   :   -0.061078868    0.023248561   -0.114750363

Difference to translation invariance:
           :   -0.0000442464    0.0000477703   -0.0000957690

Difference to rotation invariance:
           :   -0.0003455224   -0.0000121855    0.0000941438

Norm of the cartesian gradient     ...    0.3315406323
RMS gradient                       ...    0.0723480973
MAX gradient                       ...    0.2165990970

-------
TIMINGS
-------

Total SCF gradient time            ...        0.674 sec

One electron gradient       ....       0.010 sec  (  1.4%)
RI-J Coulomb gradient       ....       0.074 sec  ( 11.0%)
COSX gradient               ....       0.298 sec  ( 44.2%)
XC gradient                 ....       0.147 sec  ( 21.9%)

Maximum memory used throughout the entire SCFGRAD-calculation: 35.9 MB

                            ***************************************
                            *     ORCA property calculations      *
                            ***************************************

                                    ---------------------
                                    Active property flags
                                    ---------------------
   (+) Dipole Moment


------------------------------------------------------------------------------
                       ORCA ELECTRIC PROPERTIES CALCULATION
------------------------------------------------------------------------------

Dipole Moment Calculation                       ... on
Quadrupole Moment Calculation                   ... off
Polarizability Calculation                      ... off
GBWName                                         ... ox_gs_B_orca0008.gbw
Electron density                                ... ox_gs_B_orca0008.scfp
The origin for moment calculation is the CENTER OF MASS  = (-0.152769,  0.029664  0.020130)

-------------
DIPOLE MOMENT
-------------
                                X             Y             Z
Electronic contribution:     -0.04320       1.63227       0.04657
Nuclear contribution   :      0.14987      -2.65057      -0.04382
                        -----------------------------------------
Total Dipole Moment    :      0.10667      -1.01830       0.00275
                        -----------------------------------------
Magnitude (a.u.)       :      1.02388
Magnitude (Debye)      :      2.60249



--------------------
Rotational spectrum 
--------------------
 
Rotational constants in cm-1:     0.754351     0.630977     0.404210 
Rotational constants in MHz : 22614.885600 18916.202090 12117.920073 

 Dipole components along the rotational axes: 
x,y,z [a.u.] :    -0.860518    -0.554547    -0.017634 
x,y,z [Debye]:    -2.187264    -1.409546    -0.044822 

 

Timings for individual modules:

Sum of individual times         ...        4.071 sec (=   0.068 min)
GTO integral calculation        ...        0.292 sec (=   0.005 min)   7.2 %
SCF iterations                  ...        2.907 sec (=   0.048 min)  71.4 %
SCF Gradient evaluation         ...        0.871 sec (=   0.015 min)  21.4 %
                             ****ORCA TERMINATED NORMALLY****
TOTAL RUN TIME: 0 days 0 hours 0 minutes 4 seconds 398 msec
