
                                 *****************
                                 * O   R   C   A *
                                 *****************

                                            #,                                       
                                            ###                                      
                                            ####                                     
                                            #####                                    
                                            ######                                   
                                           ########,                                 
                                     ,,################,,,,,                         
                               ,,#################################,,                 
                          ,,##########################################,,             
                       ,#########################################, ''#####,          
                    ,#############################################,,   '####,        
                  ,##################################################,,,,####,       
                ,###########''''           ''''###############################       
              ,#####''   ,,,,##########,,,,          '''####'''          '####       
            ,##' ,,,,###########################,,,                        '##       
           ' ,,###''''                  '''############,,,                           
         ,,##''                                '''############,,,,        ,,,,,,###''
      ,#''                                            '''#######################'''  
     '                                                          ''''####''''         
             ,#######,   #######,   ,#######,      ##                                
            ,#'     '#,  ##    ##  ,#'     '#,    #''#        ######   ,####,        
            ##       ##  ##   ,#'  ##            #'  '#       #        #'  '#        
            ##       ##  #######   ##           ,######,      #####,   #    #        
            '#,     ,#'  ##    ##  '#,     ,#' ,#      #,         ##   #,  ,#        
             '#######'   ##     ##  '#######'  #'      '#     #####' # '####'        



                  #######################################################
                  #                        -***-                        #
                  #          Department of theory and spectroscopy      #
                  #    Directorship and core code : Frank Neese         #
                  #        Max Planck Institute fuer Kohlenforschung    #
                  #                Kaiser Wilhelm Platz 1               #
                  #                 D-45470 Muelheim/Ruhr               #
                  #                      Germany                        #
                  #                                                     #
                  #                  All rights reserved                #
                  #                        -***-                        #
                  #######################################################


                         Program Version 5.0.2 -  RELEASE  -


 With contributions from (in alphabetic order):
   Daniel Aravena         : Magnetic Suceptibility
   Michael Atanasov       : Ab Initio Ligand Field Theory (pilot matlab implementation)
   Alexander A. Auer      : GIAO ZORA, VPT2 properties, NMR spectrum
   Ute Becker             : Parallelization
   Giovanni Bistoni       : ED, misc. LED, open-shell LED, HFLD
   Martin Brehm           : Molecular dynamics
   Dmytro Bykov           : SCF Hessian
   Vijay G. Chilkuri      : MRCI spin determinant printing, contributions to CSF-ICE
   Dipayan Datta          : RHF DLPNO-CCSD density
   Achintya Kumar Dutta   : EOM-CC, STEOM-CC
   Dmitry Ganyushin       : Spin-Orbit,Spin-Spin,Magnetic field MRCI
   Miquel Garcia          : C-PCM and meta-GGA Hessian, CC/C-PCM, Gaussian charge scheme
   Yang Guo               : DLPNO-NEVPT2, F12-NEVPT2, CIM, IAO-localization
   Andreas Hansen         : Spin unrestricted coupled pair/coupled cluster methods
   Benjamin Helmich-Paris : MC-RPA, TRAH-SCF, COSX integrals
   Lee Huntington         : MR-EOM, pCC
   Robert Izsak           : Overlap fitted RIJCOSX, COSX-SCS-MP3, EOM
   Marcus Kettner         : VPT2
   Christian Kollmar      : KDIIS, OOCD, Brueckner-CCSD(T), CCSD density, CASPT2, CASPT2-K
   Simone Kossmann        : Meta GGA functionals, TD-DFT gradient, OOMP2, MP2 Hessian
   Martin Krupicka        : Initial AUTO-CI
   Lucas Lang             : DCDCAS
   Marvin Lechner         : AUTO-CI (C++ implementation), FIC-MRCC
   Dagmar Lenk            : GEPOL surface, SMD
   Dimitrios Liakos       : Extrapolation schemes; Compound Job, initial MDCI parallelization
   Dimitrios Manganas     : Further ROCIS development; embedding schemes
   Dimitrios Pantazis     : SARC Basis sets
   Anastasios Papadopoulos: AUTO-CI, single reference methods and gradients
   Taras Petrenko         : DFT Hessian,TD-DFT gradient, ASA, ECA, R-Raman, ABS, FL, XAS/XES, NRVS
   Peter Pinski           : DLPNO-MP2, DLPNO-MP2 Gradient
   Christoph Reimann      : Effective Core Potentials
   Marius Retegan         : Local ZFS, SOC
   Christoph Riplinger    : Optimizer, TS searches, QM/MM, DLPNO-CCSD(T), (RO)-DLPNO pert. Triples
   Tobias Risthaus        : Range-separated hybrids, TD-DFT gradient, RPA, STAB
   Michael Roemelt        : Original ROCIS implementation
   Masaaki Saitow         : Open-shell DLPNO-CCSD energy and density
   Barbara Sandhoefer     : DKH picture change effects
   Avijit Sen             : IP-ROCIS
   Kantharuban Sivalingam : CASSCF convergence, NEVPT2, FIC-MRCI
   Bernardo de Souza      : ESD, SOC TD-DFT
   Georgi Stoychev        : AutoAux, RI-MP2 NMR, DLPNO-MP2 response
   Willem Van den Heuvel  : Paramagnetic NMR
   Boris Wezisla          : Elementary symmetry handling
   Frank Wennmohs         : Technical directorship


 We gratefully acknowledge several colleagues who have allowed us to
 interface, adapt or use parts of their codes:
   Stefan Grimme, W. Hujo, H. Kruse, P. Pracht,  : VdW corrections, initial TS optimization,
                  C. Bannwarth, S. Ehlert          DFT functionals, gCP, sTDA/sTD-DF
   Ed Valeev, F. Pavosevic, A. Kumar             : LibInt (2-el integral package), F12 methods
   Garnet Chan, S. Sharma, J. Yang, R. Olivares  : DMRG
   Ulf Ekstrom                                   : XCFun DFT Library
   Mihaly Kallay                                 : mrcc  (arbitrary order and MRCC methods)
   Jiri Pittner, Ondrej Demel                    : Mk-CCSD
   Frank Weinhold                                : gennbo (NPA and NBO analysis)
   Christopher J. Cramer and Donald G. Truhlar   : smd solvation model
   Lars Goerigk                                  : TD-DFT with DH, B97 family of functionals
   V. Asgeirsson, H. Jonsson                     : NEB implementation
   FAccTs GmbH                                   : IRC, NEB, NEB-TS, DLPNO-Multilevel, CI-OPT
                                                   MM, QMMM, 2- and 3-layer-ONIOM, Crystal-QMMM,
                                                   LR-CPCM, SF, NACMEs, symmetry and pop. for TD-DFT,
                                                   nearIR, NL-DFT gradient (VV10), updates on ESD,
                                                   ML-optimized integration grids
   S Lehtola, MJT Oliveira, MAL Marques          : LibXC Library
   Liviu Ungur et al                             : ANISO software


 Your calculation uses the libint2 library for the computation of 2-el integrals
 For citations please refer to: http://libint.valeyev.net

 Your ORCA version has been built with support for libXC version: 5.1.0
 For citations please refer to: https://tddft.org/programs/libxc/

 This ORCA versions uses:
   CBLAS   interface :  Fast vector & matrix operations
   LAPACKE interface :  Fast linear algebra routines
   SCALAPACK package :  Parallel linear algebra routines
   Shared memory     :  Shared parallel matrices
   BLAS/LAPACK       :  OpenBLAS 0.3.15  USE64BITINT DYNAMIC_ARCH NO_AFFINITY SkylakeX SINGLE_THREADED
        Core in use  :  SkylakeX
   Copyright (c) 2011-2014, The OpenBLAS Project


Your calculation utilizes the atom-pairwise dispersion correction
with the Becke-Johnson damping scheme (D3BJ)
Cite in your paper:
S.Grimme, S.Ehrlich, L.Goerigk, J Comput Chem, (2011), 32, 1456–1465 
S.Grimme, J.Antony, S.Ehrlich and H.Krieg, J.Chem.Phys., 132, (2010), 154104 
   

================================================================================

----- Orbital basis set information -----
Your calculation utilizes the basis: def2-TZVP
   F. Weigend and R. Ahlrichs, Phys. Chem. Chem. Phys. 7, 3297 (2005).

----- AuxJ basis set information -----
Your calculation utilizes the auxiliary basis: def2/J
   F. Weigend, Phys. Chem. Chem. Phys. 8, 1057 (2006).

================================================================================
                                        WARNINGS
                       Please study these warnings very carefully!
================================================================================


INFO   : the flag for use of the SHARK integral package has been found!

================================================================================
                                       INPUT FILE
================================================================================
NAME = ox_gs_A_orca0009.inp
|  1> ! engrad PBE0 D3BJ def2-TZVP  
|  2> %pal nprocs 8 end
|  3> %maxcore 3000
|  4>  
|  5> *xyz 0 1 
|  6> O   -0.07574231123429323 0.744598562396649 0.04282004971617362
|  7> C   -0.7181849027934898 -0.5093074289355994 0.0086590462925591
|  8> C   0.7481554089864418 -0.49121336181005665 0.007686255297276396
|  9> H   -1.2609124940777 -0.7254193248915312 0.9378655880174142
| 10> H   -1.2357835436815883 -0.6141183478412362 -0.8672861173982549
| 11> H   1.1949393516021454 -0.7151621119957562 -0.8942244566395671
| 12> H   1.2895121675456105 -0.6425184256846976 1.112612744532736
| 13> *
| 14> 
| 15>                          ****END OF INPUT****
================================================================================

                     *******************************
                     * Energy+Gradient Calculation *
                     *******************************

---------------------------------
CARTESIAN COORDINATES (ANGSTROEM)
---------------------------------
  O     -0.075742    0.744599    0.042820
  C     -0.718185   -0.509307    0.008659
  C      0.748155   -0.491213    0.007686
  H     -1.260912   -0.725419    0.937866
  H     -1.235784   -0.614118   -0.867286
  H      1.194939   -0.715162   -0.894224
  H      1.289512   -0.642518    1.112613

----------------------------
CARTESIAN COORDINATES (A.U.)
----------------------------
  NO LB      ZA    FRAG     MASS         X           Y           Z
   0 O     8.0000    0    15.999   -0.143132    1.407087    0.080918
   1 C     6.0000    0    12.011   -1.357173   -0.962452    0.016363
   2 C     6.0000    0    12.011    1.413809   -0.928259    0.014525
   3 H     1.0000    0     1.008   -2.382779   -1.370844    1.772309
   4 H     1.0000    0     1.008   -2.335292   -1.160515   -1.638933
   5 H     1.0000    0     1.008    2.258108   -1.351461   -1.689839
   6 H     1.0000    0     1.008    2.436825   -1.214184    2.102533

--------------------------------
INTERNAL COORDINATES (ANGSTROEM)
--------------------------------
 O      0   0   0     0.000000000000     0.00000000     0.00000000
 C      1   0   0     1.409318875451     0.00000000     0.00000000
 C      2   1   0     1.466452267051    62.17449325     0.00000000
 H      2   1   3     1.097580241759   112.33821911   113.03031529
 H      2   1   3     1.022826286113   110.03619274   245.33067634
 H      3   2   1     1.031121654508   115.54159865   254.13169694
 H      3   2   1     1.239686617257   115.75716289    96.54327607

---------------------------
INTERNAL COORDINATES (A.U.)
---------------------------
 O      0   0   0     0.000000000000     0.00000000     0.00000000
 C      1   0   0     2.663226709969     0.00000000     0.00000000
 C      2   1   0     2.771193173194    62.17449325     0.00000000
 H      2   1   3     2.074126066927   112.33821911   113.03031529
 H      2   1   3     1.932861563330   110.03619274   245.33067634
 H      3   2   1     1.948537537776   115.54159865   254.13169694
 H      3   2   1     2.342668198503   115.75716289    96.54327607

---------------------
BASIS SET INFORMATION
---------------------
There are 3 groups of distinct atoms

 Group   1 Type O   : 11s6p2d1f contracted to 5s3p2d1f pattern {62111/411/11/1}
 Group   2 Type C   : 11s6p2d1f contracted to 5s3p2d1f pattern {62111/411/11/1}
 Group   3 Type H   : 5s1p contracted to 3s1p pattern {311/1}

Atom   0O    basis set group =>   1
Atom   1C    basis set group =>   2
Atom   2C    basis set group =>   2
Atom   3H    basis set group =>   3
Atom   4H    basis set group =>   3
Atom   5H    basis set group =>   3
Atom   6H    basis set group =>   3
---------------------------------
AUXILIARY/J BASIS SET INFORMATION
---------------------------------
There are 3 groups of distinct atoms

 Group   1 Type O   : 12s5p4d2f1g contracted to 6s4p3d1f1g pattern {711111/2111/211/2/1}
 Group   2 Type C   : 12s5p4d2f1g contracted to 6s4p3d1f1g pattern {711111/2111/211/2/1}
 Group   3 Type H   : 5s2p1d contracted to 3s1p1d pattern {311/2/1}

Atom   0O    basis set group =>   1
Atom   1C    basis set group =>   2
Atom   2C    basis set group =>   2
Atom   3H    basis set group =>   3
Atom   4H    basis set group =>   3
Atom   5H    basis set group =>   3
Atom   6H    basis set group =>   3


           ************************************************************
           *        Program running with 8 parallel MPI-processes     *
           *              working on a common directory               *
           ************************************************************
------------------------------------------------------------------------------
                           ORCA GTO INTEGRAL CALCULATION
                           -- RI-GTO INTEGRALS CHOSEN --
------------------------------------------------------------------------------
------------------------------------------------------------------------------
                   ___                                                        
                  /   \      - P O W E R E D   B Y -                         
                 /     \                                                     
                 |  |  |   _    _      __       _____    __    __             
                 |  |  |  | |  | |    /  \     |  _  \  |  |  /  |          
                  \  \/   | |  | |   /    \    | | | |  |  | /  /          
                 / \  \   | |__| |  /  /\  \   | |_| |  |  |/  /          
                |  |  |   |  __  | /  /__\  \  |    /   |      \           
                |  |  |   | |  | | |   __   |  |    \   |  |\   \          
                \     /   | |  | | |  |  |  |  | |\  \  |  | \   \       
                 \___/    |_|  |_| |__|  |__|  |_| \__\ |__|  \__/        
                                                                              
                      - O R C A' S   B I G   F R I E N D -                    
                                      &                                       
                       - I N T E G R A L  F E E D E R -                       
                                                                              
 v1 FN, 2020, v2 2021                                                         
------------------------------------------------------------------------------


Reading SHARK input file ox_gs_A_orca0009.SHARKINP.tmp ... ok
----------------------
SHARK INTEGRAL PACKAGE
----------------------

Number of atoms                             ...      7
Number of basis functions                   ...    117
Number of shells                            ...     49
Maximum angular momentum                    ...      3
Integral batch strategy                     ... SHARK/LIBINT Hybrid
RI-J (if used) integral strategy            ... SPLIT-RIJ (Revised 2003 algorithm where possible)
Printlevel                                  ...      1
Contraction scheme used                     ... SEGMENTED contraction
Coulomb Range Separation                    ... NOT USED
Exchange Range Separation                   ... NOT USED
Finite Nucleus Model                        ... NOT USED
Auxiliary Coulomb fitting basis             ... AVAILABLE
   # of basis functions in Aux-J            ...    191
   # of shells in Aux-J                     ...     65
   Maximum angular momentum in Aux-J        ...      4
Auxiliary J/K fitting basis                 ... NOT available
Auxiliary Correlation fitting basis         ... NOT available
Auxiliary 'external' fitting basis          ... NOT available
Integral threshold                          ...     2.500000e-11
Primitive cut-off                           ...     2.500000e-12
Primitive pair pre-selection threshold      ...     2.500000e-12

Calculating pre-screening integrals         ... done (  0.0 sec) Dimension = 49
Organizing shell pair data                  ... done (  0.0 sec)
Shell pair information
Total number of shell pairs                 ...      1225
Shell pairs after pre-screening             ...      1220
Total number of primitive shell pairs       ...      3648
Primitive shell pairs kept                  ...      3145
          la=0 lb=0:    373 shell pairs
          la=1 lb=0:    351 shell pairs
          la=1 lb=1:     91 shell pairs
          la=2 lb=0:    162 shell pairs
          la=2 lb=1:     78 shell pairs
          la=2 lb=2:     21 shell pairs
          la=3 lb=0:     81 shell pairs
          la=3 lb=1:     39 shell pairs
          la=3 lb=2:     18 shell pairs
          la=3 lb=3:      6 shell pairs

Calculating one electron integrals          ... done (  0.0 sec)
Calculating RI/J V-Matrix + Cholesky decomp.... done (  0.0 sec)
Calculating Nuclear repulsion               ... done (  0.0 sec) ENN=     74.843639561206 Eh

SHARK setup successfully completed in   0.1 seconds

Maximum memory used throughout the entire GTOINT-calculation: 14.9 MB


           ************************************************************
           *        Program running with 8 parallel MPI-processes     *
           *              working on a common directory               *
           ************************************************************
-------------------------------------------------------------------------------
                                 ORCA SCF
-------------------------------------------------------------------------------

------------
SCF SETTINGS
------------
Hamiltonian:
 Density Functional     Method          .... DFT(GTOs)
 Exchange Functional    Exchange        .... PBE
   PBE kappa parameter   XKappa         ....  0.804000
   PBE mue parameter    XMuePBE         ....  0.219520
 Correlation Functional Correlation     .... PBE
   PBE beta parameter  CBetaPBE         ....  0.066725
 LDA part of GGA corr.  LDAOpt          .... PW91-LDA
 Gradients option       PostSCFGGA      .... off
 Hybrid DFT is turned on
   Fraction HF Exchange ScalHFX         ....  0.250000
   Scaling of DF-GGA-X  ScalDFX         ....  0.750000
   Scaling of DF-GGA-C  ScalDFC         ....  1.000000
   Scaling of DF-LDA-C  ScalLDAC        ....  1.000000
   Perturbative correction              ....  0.000000
   Density functional embedding theory  .... OFF
   NL short-range parameter             ....  6.900000
 RI-approximation to the Coulomb term is turned on
   Number of AuxJ basis functions       .... 191
   RIJ-COSX (HFX calculated with COS-X)).... on


General Settings:
 Integral files         IntName         .... ox_gs_A_orca0009
 Hartree-Fock type      HFTyp           .... RHF
 Total Charge           Charge          ....    0
 Multiplicity           Mult            ....    1
 Number of Electrons    NEL             ....   24
 Basis Dimension        Dim             ....  117
 Nuclear Repulsion      ENuc            ....     74.8436395612 Eh

Convergence Acceleration:
 DIIS                   CNVDIIS         .... on
   Start iteration      DIISMaxIt       ....    12
   Startup error        DIISStart       ....  0.200000
   # of expansion vecs  DIISMaxEq       ....     5
   Bias factor          DIISBfac        ....   1.050
   Max. coefficient     DIISMaxC        ....  10.000
 Trust-Rad. Augm. Hess. CNVTRAH         .... auto
   Auto Start mean grad. ratio tolernc. ....  1.125000
   Auto Start start iteration           ....    20
   Auto Start num. interpolation iter.  ....    10
   Max. Number of Micro iterations      ....    16
   Max. Number of Macro iterations      .... Maxiter - #DIIS iter
   Number of Davidson start vectors     ....     2
   Converg. threshold I  (grad. norm)   ....   1.000e-05
   Converg. threshold II (energy diff.) ....   1.000e-08
   Grad. Scal. Fac. for Micro threshold ....   0.100
   Minimum threshold for Micro iter.    ....   0.010
   NR start threshold (gradient norm)   ....   0.001
   Initial trust radius                 ....   0.400
   Minimum AH scaling param. (alpha)    ....   1.000
   Maximum AH scaling param. (alpha)    .... 1000.000
   Orbital update algorithm             .... Taylor
   White noise on init. David. guess    .... on
   Maximum white noise                  ....   0.010
   Quad. conv. algorithm                .... NR
 SOSCF                  CNVSOSCF        .... on
   Start iteration      SOSCFMaxIt      ....   150
   Startup grad/error   SOSCFStart      ....  0.003300
 Level Shifting         CNVShift        .... on
   Level shift para.    LevelShift      ....    0.2500
   Turn off err/grad.   ShiftErr        ....    0.0010
 Zerner damping         CNVZerner       .... off
 Static damping         CNVDamp         .... on
   Fraction old density DampFac         ....    0.7000
   Max. Damping (<1)    DampMax         ....    0.9800
   Min. Damping (>=0)   DampMin         ....    0.0000
   Turn off err/grad.   DampErr         ....    0.1000
 Fernandez-Rico         CNVRico         .... off

SCF Procedure:
 Maximum # iterations   MaxIter         ....   125
 SCF integral mode      SCFMode         .... Direct
   Integral package                     .... SHARK and LIBINT hybrid scheme
 Reset frequency        DirectResetFreq ....    20
 Integral Threshold     Thresh          ....  2.500e-11 Eh
 Primitive CutOff       TCut            ....  2.500e-12 Eh

Convergence Tolerance:
 Convergence Check Mode ConvCheckMode   .... Total+1el-Energy
 Convergence forced     ConvForced      .... 0
 Energy Change          TolE            ....  1.000e-08 Eh
 1-El. energy change                    ....  1.000e-05 Eh
 Orbital Gradient       TolG            ....  1.000e-05
 Orbital Rotation angle TolX            ....  1.000e-05
 DIIS Error             TolErr          ....  5.000e-07


Diagonalization of the overlap matrix:
Smallest eigenvalue                        ... 3.955e-04
Time for diagonalization                   ...    0.001 sec
Threshold for overlap eigenvalues          ... 1.000e-08
Number of eigenvalues below threshold      ... 0
Time for construction of square roots      ...    0.001 sec
Total time needed                          ...    0.003 sec

Time for model grid setup =    0.022 sec

------------------------------
INITIAL GUESS: MODEL POTENTIAL
------------------------------
Loading Hartree-Fock densities                     ... done
Calculating cut-offs                               ... done
Initializing the effective Hamiltonian             ... done
Setting up the integral package (SHARK)            ... done
Starting the Coulomb interaction                   ... done (   0.0 sec)
Reading the grid                                   ... done
Mapping shells                                     ... done
Starting the XC term evaluation                    ... done (   0.0 sec)
  promolecular density results
     # of electrons  =     23.997591624
     EX              =    -19.530361742
     EC              =     -0.780592342
     EX+EC           =    -20.310954084
Transforming the Hamiltonian                       ... done (   0.0 sec)
Diagonalizing the Hamiltonian                      ... done (   0.0 sec)
Back transforming the eigenvectors                 ... done (   0.0 sec)
Now organizing SCF variables                       ... done
                      ------------------
                      INITIAL GUESS DONE (   0.0 sec)
                      ------------------
-------------------
DFT GRID GENERATION
-------------------

General Integration Accuracy     IntAcc      ... 4.388
Radial Grid Type                 RadialGrid  ... OptM3 with GC (2021)
Angular Grid (max. ang.)         AngularGrid ... 4 (Lebedev-302)
Angular grid pruning method      GridPruning ... 4 (adaptive)
Weight generation scheme         WeightScheme... Becke
Basis function cutoff            BFCut       ... 1.0000e-11
Integration weight cutoff        WCut        ... 1.0000e-14
Angular grids for H and He will be reduced by one unit
Partially contracted basis set               ... off
Rotationally invariant grid construction     ... off

Total number of grid points                  ...    31306
Total number of batches                      ...      493
Average number of points per batch           ...       63
Average number of grid points per atom       ...     4472
Time for grid setup =    0.110 sec

--------------------
COSX GRID GENERATION
--------------------

GRIDX 1
-------
General Integration Accuracy     IntAcc      ... 3.816
Radial Grid Type                 RadialGrid  ... OptM3 with GC (2021)
Angular Grid (max. ang.)         AngularGrid ... 1 (Lebedev-50)
Angular grid pruning method      GridPruning ... 4 (adaptive)
Weight generation scheme         WeightScheme... Becke
Basis function cutoff            BFCut       ... 1.0000e-11
Integration weight cutoff        WCut        ... 1.0000e-14
Angular grids for H and He will be reduced by one unit
Partially contracted basis set               ... on
Rotationally invariant grid construction     ... off

Total number of grid points                  ...     4034
Total number of batches                      ...       68
Average number of points per batch           ...       59
Average number of grid points per atom       ...      576
UseSFitting                                  ... on

GRIDX 2
-------
General Integration Accuracy     IntAcc      ... 4.020
Radial Grid Type                 RadialGrid  ... OptM3 with GC (2021)
Angular Grid (max. ang.)         AngularGrid ... 2 (Lebedev-110)
Angular grid pruning method      GridPruning ... 4 (adaptive)
Weight generation scheme         WeightScheme... Becke
Basis function cutoff            BFCut       ... 1.0000e-11
Integration weight cutoff        WCut        ... 1.0000e-14
Angular grids for H and He will be reduced by one unit
Partially contracted basis set               ... on
Rotationally invariant grid construction     ... off

Total number of grid points                  ...     8712
Total number of batches                      ...      140
Average number of points per batch           ...       62
Average number of grid points per atom       ...     1245
UseSFitting                                  ... on

GRIDX 3
-------
General Integration Accuracy     IntAcc      ... 4.338
Radial Grid Type                 RadialGrid  ... OptM3 with GC (2021)
Angular Grid (max. ang.)         AngularGrid ... 3 (Lebedev-194)
Angular grid pruning method      GridPruning ... 4 (adaptive)
Weight generation scheme         WeightScheme... Becke
Basis function cutoff            BFCut       ... 1.0000e-11
Integration weight cutoff        WCut        ... 1.0000e-14
Angular grids for H and He will be reduced by one unit
Partially contracted basis set               ... on
Rotationally invariant grid construction     ... off

Total number of grid points                  ...    19239
Total number of batches                      ...      304
Average number of points per batch           ...       63
Average number of grid points per atom       ...     2748
UseSFitting                                  ... on

Time for X-Grid setup             =    0.073 sec

--------------
SCF ITERATIONS
--------------
ITER       Energy         Delta-E        Max-DP      RMS-DP      [F,P]     Damp
               ***  Starting incremental Fock matrix formation  ***
  0   -153.5848063153   0.000000000000 0.03385986  0.00118963  0.1800829 0.7000
  1   -153.6152698608  -0.030463545532 0.01837332  0.00086920  0.0740302 0.7000
                               ***Turning on DIIS***
  2   -153.6275277547  -0.012257893898 0.02663422  0.00144231  0.0328244 0.0000
  3   -153.6473506248  -0.019822870071 0.01492707  0.00066116  0.0409660 0.0000
  4   -153.6512811809  -0.003930556101 0.00391616  0.00018487  0.0090691 0.0000
  5   -153.6514867107  -0.000205529793 0.00143153  0.00006529  0.0041456 0.0000
                      *** Initiating the SOSCF procedure ***
                           *** Shutting down DIIS ***
                      *** Re-Reading the Fockian *** 
                      *** Removing any level shift *** 
ITER      Energy       Delta-E        Grad      Rot      Max-DP    RMS-DP
  6   -153.65151372  -0.0000270109  0.000119  0.000119  0.000877  0.000031
               *** Restarting incremental Fock matrix formation ***
  7   -153.65150327   0.0000104470  0.000057  0.000104  0.000121  0.000005
  8   -153.65150321   0.0000000652  0.000103  0.000078  0.000082  0.000003
  9   -153.65150333  -0.0000001243  0.000011  0.000014  0.000025  0.000001
 10   -153.65150333   0.0000000014  0.000012  0.000009  0.000015  0.000001
                  ***Gradient check signals convergence***
              ***Rediagonalizing the Fockian in SOSCF/NRSCF***

               *****************************************************
               *                     SUCCESS                       *
               *           SCF CONVERGED AFTER  11 CYCLES          *
               *****************************************************

Old exchange energy                            =     -4.991215945 Eh
New exchange energy                            =     -4.991215179 Eh
Exchange energy change after final integration =      0.000000766 Eh
Total energy after final integration           =   -153.651502570 Eh
Final COS-X integration done in                =     0.247 sec

----------------
TOTAL SCF ENERGY
----------------

Total Energy       :         -153.65150257 Eh           -4181.06995 eV

Components:
Nuclear Repulsion  :           74.84363956 Eh            2036.59897 eV
Electronic Energy  :         -228.49514213 Eh           -6217.66892 eV
One Electron Energy:         -356.41285177 Eh           -9698.48676 eV
Two Electron Energy:          127.91770964 Eh            3480.81784 eV
Max COSX asymmetry :            0.00000163 Eh               0.00004 eV

Virial components:
Potential Energy   :         -306.57745690 Eh           -8342.39672 eV
Kinetic Energy     :          152.92595433 Eh            4161.32678 eV
Virial Ratio       :            2.00474444


DFT components:
N(Alpha)           :       12.000005488881 electrons
N(Beta)            :       12.000005488881 electrons
N(Total)           :       24.000010977763 electrons
E(X)               :      -14.946983274140 Eh       
E(C)               :       -0.789145123278 Eh       
E(XC)              :      -15.736128397419 Eh       
DFET-embed. en.    :        0.000000000000 Eh       

---------------
SCF CONVERGENCE
---------------

  Last Energy change         ...   -4.0392e-09  Tolerance :   1.0000e-08
  Last MAX-Density change    ...    4.9093e-16  Tolerance :   1.0000e-07
  Last RMS-Density change    ...    2.2786e-17  Tolerance :   5.0000e-09
  Last Orbital Gradient      ...    7.3087e-07  Tolerance :   1.0000e-05
  Last Orbital Rotation      ...    1.2048e-06  Tolerance :   1.0000e-05

             **** THE GBW FILE WAS UPDATED (ox_gs_A_orca0009.gbw) ****
             **** DENSITY ox_gs_A_orca0009.scfp WAS UPDATED ****
             **** ENERGY FILE WAS UPDATED (ox_gs_A_orca0009.en.tmp) ****
             **** THE GBW FILE WAS UPDATED (ox_gs_A_orca0009.gbw) ****
             **** DENSITY ox_gs_A_orca0009.scfp WAS UPDATED ****
----------------
ORBITAL ENERGIES
----------------

  NO   OCC          E(Eh)            E(eV) 
   0   2.0000     -19.218280      -522.9560 
   1   2.0000     -10.288578      -279.9664 
   2   2.0000     -10.267027      -279.3800 
   3   2.0000      -1.094103       -29.7721 
   4   2.0000      -0.703002       -19.1296 
   5   2.0000      -0.652980       -17.7685 
   6   2.0000      -0.535587       -14.5741 
   7   2.0000      -0.489571       -13.3219 
   8   2.0000      -0.411431       -11.1956 
   9   2.0000      -0.390299       -10.6206 
  10   2.0000      -0.333670        -9.0796 
  11   2.0000      -0.286806        -7.8044 
  12   0.0000       0.051217         1.3937 
  13   0.0000       0.067832         1.8458 
  14   0.0000       0.080869         2.2005 
  15   0.0000       0.097473         2.6524 
  16   0.0000       0.108237         2.9453 
  17   0.0000       0.151315         4.1175 
  18   0.0000       0.187358         5.0983 
  19   0.0000       0.203742         5.5441 
  20   0.0000       0.266787         7.2596 
  21   0.0000       0.275795         7.5048 
  22   0.0000       0.299363         8.1461 
  23   0.0000       0.325464         8.8563 
  24   0.0000       0.381867        10.3911 
  25   0.0000       0.396241        10.7823 
  26   0.0000       0.419284        11.4093 
  27   0.0000       0.437665        11.9095 
  28   0.0000       0.441914        12.0251 
  29   0.0000       0.469839        12.7850 
  30   0.0000       0.489944        13.3320 
  31   0.0000       0.517961        14.0944 
  32   0.0000       0.552990        15.0476 
  33   0.0000       0.695602        18.9283 
  34   0.0000       0.711533        19.3618 
  35   0.0000       0.728377        19.8202 
  36   0.0000       0.820292        22.3213 
  37   0.0000       0.852271        23.1915 
  38   0.0000       0.890439        24.2301 
  39   0.0000       0.925776        25.1916 
  40   0.0000       1.015631        27.6367 
  41   0.0000       1.035603        28.1802 
  42   0.0000       1.044380        28.4190 
  43   0.0000       1.087421        29.5902 
  44   0.0000       1.172266        31.8990 
  45   0.0000       1.357847        36.9489 
  46   0.0000       1.457434        39.6588 
  47   0.0000       1.497948        40.7612 
  48   0.0000       1.508350        41.0443 
  49   0.0000       1.522807        41.4377 
  50   0.0000       1.599088        43.5134 
  51   0.0000       1.627716        44.2924 
  52   0.0000       1.648939        44.8699 
  53   0.0000       1.669770        45.4368 
  54   0.0000       1.776265        48.3346 
  55   0.0000       1.811520        49.2940 
  56   0.0000       1.831012        49.8244 
  57   0.0000       1.885357        51.3032 
  58   0.0000       1.903141        51.7871 
  59   0.0000       1.989273        54.1309 
  60   0.0000       2.144818        58.3635 
  61   0.0000       2.168677        59.0127 
  62   0.0000       2.185076        59.4589 
  63   0.0000       2.213713        60.2382 
  64   0.0000       2.284261        62.1579 
  65   0.0000       2.421099        65.8814 
  66   0.0000       2.431372        66.1610 
  67   0.0000       2.473486        67.3070 
  68   0.0000       2.583741        70.3072 
  69   0.0000       2.594720        70.6059 
  70   0.0000       2.605402        70.8966 
  71   0.0000       2.682906        73.0056 
  72   0.0000       2.695056        73.3362 
  73   0.0000       2.719320        73.9965 
  74   0.0000       2.766174        75.2714 
  75   0.0000       2.790739        75.9399 
  76   0.0000       2.874025        78.2062 
  77   0.0000       2.967583        80.7520 
  78   0.0000       3.018519        82.1381 
  79   0.0000       3.021492        82.2190 
  80   0.0000       3.044748        82.8518 
  81   0.0000       3.067655        83.4751 
  82   0.0000       3.158116        85.9367 
  83   0.0000       3.222803        87.6969 
  84   0.0000       3.320030        90.3426 
  85   0.0000       3.340655        90.9039 
  86   0.0000       3.351636        91.2027 
  87   0.0000       3.416678        92.9725 
  88   0.0000       3.550498        96.6140 
  89   0.0000       3.607318        98.1601 
  90   0.0000       3.635852        98.9366 
  91   0.0000       3.712621       101.0256 
  92   0.0000       3.831516       104.2608 
  93   0.0000       3.939998       107.2128 
  94   0.0000       4.094204       111.4090 
  95   0.0000       4.127948       112.3272 
  96   0.0000       4.227969       115.0489 
  97   0.0000       4.282524       116.5334 
  98   0.0000       4.413148       120.0879 
  99   0.0000       4.612866       125.5225 
 100   0.0000       4.693160       127.7074 
 101   0.0000       4.831902       131.4827 
 102   0.0000       5.295755       144.1048 
 103   0.0000       5.435251       147.9007 
 104   0.0000       5.644462       153.5936 
 105   0.0000       5.741194       156.2258 
 106   0.0000       5.790579       157.5697 
 107   0.0000       5.863604       159.5568 
 108   0.0000       6.033340       164.1755 
 109   0.0000       6.593022       179.4052 
 110   0.0000       6.628857       180.3804 
 111   0.0000       6.797135       184.9594 
 112   0.0000       6.966508       189.5683 
 113   0.0000       7.181921       195.4300 
 114   0.0000      22.174153       603.3894 
 115   0.0000      22.504456       612.3774 
 116   0.0000      43.854641      1193.3454 

                    ********************************
                    * MULLIKEN POPULATION ANALYSIS *
                    ********************************

-----------------------
MULLIKEN ATOMIC CHARGES
-----------------------
   0 O :   -0.321998
   1 C :   -0.060014
   2 C :   -0.097990
   3 H :    0.110819
   4 H :    0.116748
   5 H :    0.126751
   6 H :    0.125684
Sum of atomic charges:    0.0000000

--------------------------------
MULLIKEN REDUCED ORBITAL CHARGES
--------------------------------
  0 O s       :     3.861589  s :     3.861589
      pz      :     1.852041  p :     4.417138
      px      :     1.319390
      py      :     1.245707
      dz2     :     0.005654  d :     0.041158
      dxz     :     0.002558
      dyz     :     0.006355
      dx2y2   :     0.011847
      dxy     :     0.014744
      f0      :     0.000239  f :     0.002113
      f+1     :     0.000186
      f-1     :     0.000464
      f+2     :     0.000088
      f-2     :     0.000194
      f+3     :     0.000387
      f-3     :     0.000556
  1 C s       :     3.214068  s :     3.214068
      pz      :     1.053380  p :     2.716456
      px      :     0.900899
      py      :     0.762178
      dz2     :     0.005862  d :     0.117533
      dxz     :     0.025817
      dyz     :     0.033299
      dx2y2   :     0.031299
      dxy     :     0.021256
      f0      :     0.001685  f :     0.011956
      f+1     :     0.001438
      f-1     :     0.000614
      f+2     :     0.001638
      f-2     :     0.001488
      f+3     :     0.001946
      f-3     :     0.003149
  2 C s       :     3.254070  s :     3.254070
      pz      :     1.023141  p :     2.728272
      px      :     0.910552
      py      :     0.794579
      dz2     :     0.008866  d :     0.104884
      dxz     :     0.025505
      dyz     :     0.025744
      dx2y2   :     0.025150
      dxy     :     0.019619
      f0      :     0.001576  f :     0.010764
      f+1     :     0.001345
      f-1     :     0.000491
      f+2     :     0.001078
      f-2     :     0.001536
      f+3     :     0.002070
      f-3     :     0.002667
  3 H s       :     0.868464  s :     0.868464
      pz      :     0.010662  p :     0.020717
      px      :     0.006177
      py      :     0.003878
  4 H s       :     0.860130  s :     0.860130
      pz      :     0.011329  p :     0.023122
      px      :     0.007087
      py      :     0.004705
  5 H s       :     0.849555  s :     0.849555
      pz      :     0.012092  p :     0.023694
      px      :     0.006580
      py      :     0.005022
  6 H s       :     0.858098  s :     0.858098
      pz      :     0.009765  p :     0.016218
      px      :     0.003979
      py      :     0.002473


                     *******************************
                     * LOEWDIN POPULATION ANALYSIS *
                     *******************************

----------------------
LOEWDIN ATOMIC CHARGES
----------------------
   0 O :    0.096829
   1 C :   -0.317355
   2 C :   -0.256053
   3 H :    0.118528
   4 H :    0.100704
   5 H :    0.104833
   6 H :    0.152512

-------------------------------
LOEWDIN REDUCED ORBITAL CHARGES
-------------------------------
  0 O s       :     3.404125  s :     3.404125
      pz      :     1.740996  p :     4.404034
      px      :     1.306736
      py      :     1.356302
      dz2     :     0.011442  d :     0.088742
      dxz     :     0.007337
      dyz     :     0.014467
      dx2y2   :     0.030671
      dxy     :     0.024825
      f0      :     0.000596  f :     0.006269
      f+1     :     0.000237
      f-1     :     0.000882
      f+2     :     0.000208
      f-2     :     0.000867
      f+3     :     0.001175
      f-3     :     0.002304
  1 C s       :     2.816044  s :     2.816044
      pz      :     1.054889  p :     2.918290
      px      :     1.030198
      py      :     0.833204
      dz2     :     0.057180  d :     0.504356
      dxz     :     0.133372
      dyz     :     0.090620
      dx2y2   :     0.118466
      dxy     :     0.104717
      f0      :     0.010850  f :     0.078665
      f+1     :     0.006135
      f-1     :     0.006451
      f+2     :     0.010582
      f-2     :     0.006488
      f+3     :     0.015077
      f-3     :     0.023080
  2 C s       :     2.855463  s :     2.855463
      pz      :     1.041431  p :     2.910642
      px      :     1.040446
      py      :     0.828765
      dz2     :     0.056709  d :     0.426077
      dxz     :     0.117956
      dyz     :     0.068219
      dx2y2   :     0.093087
      dxy     :     0.090105
      f0      :     0.009749  f :     0.063871
      f+1     :     0.005228
      f-1     :     0.004784
      f+2     :     0.006426
      f-2     :     0.006033
      f+3     :     0.014051
      f-3     :     0.017600
  3 H s       :     0.822409  s :     0.822409
      pz      :     0.031348  p :     0.059062
      px      :     0.016491
      py      :     0.011224
  4 H s       :     0.827255  s :     0.827255
      pz      :     0.036314  p :     0.072041
      px      :     0.020947
      py      :     0.014781
  5 H s       :     0.822510  s :     0.822510
      pz      :     0.037879  p :     0.072657
      px      :     0.019293
      py      :     0.015485
  6 H s       :     0.805886  s :     0.805886
      pz      :     0.025789  p :     0.041601
      px      :     0.009524
      py      :     0.006288


                      *****************************
                      * MAYER POPULATION ANALYSIS *
                      *****************************

  NA   - Mulliken gross atomic population
  ZA   - Total nuclear charge
  QA   - Mulliken gross atomic charge
  VA   - Mayer's total valence
  BVA  - Mayer's bonded valence
  FA   - Mayer's free valence

  ATOM       NA         ZA         QA         VA         BVA        FA
  0 O      8.3220     8.0000    -0.3220     1.9784     1.9784    -0.0000
  1 C      6.0600     6.0000    -0.0600     3.9930     3.9930    -0.0000
  2 C      6.0980     6.0000    -0.0980     3.9660     3.9660    -0.0000
  3 H      0.8892     1.0000     0.1108     0.9624     0.9624     0.0000
  4 H      0.8833     1.0000     0.1167     0.9644     0.9644    -0.0000
  5 H      0.8732     1.0000     0.1268     0.9566     0.9566     0.0000
  6 H      0.8743     1.0000     0.1257     0.9646     0.9646     0.0000

  Mayer bond orders larger than 0.100000
B(  0-O ,  1-C ) :   0.9822 B(  0-O ,  2-C ) :   0.9867 B(  1-C ,  2-C ) :   1.0742 
B(  1-C ,  3-H ) :   0.9527 B(  1-C ,  4-H ) :   0.9657 B(  2-C ,  5-H ) :   0.9491 
B(  2-C ,  6-H ) :   0.9415 

-------
TIMINGS
-------

Total SCF time: 0 days 0 hours 0 min 2 sec 

Total time                  ....       2.466 sec
Sum of individual times     ....       2.280 sec  ( 92.5%)

Fock matrix formation       ....       2.017 sec  ( 81.8%)
  Split-RI-J                ....       0.226 sec  ( 11.2% of F)
  Chain of spheres X        ....       1.376 sec  ( 68.2% of F)
  XC integration            ....       0.392 sec  ( 19.4% of F)
    Basis function eval.    ....       0.103 sec  ( 26.2% of XC)
    Density eval.           ....       0.078 sec  ( 19.9% of XC)
    XC-Functional eval.     ....       0.022 sec  (  5.6% of XC)
    XC-Potential eval.      ....       0.136 sec  ( 34.6% of XC)
Diagonalization             ....       0.015 sec  (  0.6%)
Density matrix formation    ....       0.001 sec  (  0.1%)
Population analysis         ....       0.002 sec  (  0.1%)
Initial guess               ....       0.017 sec  (  0.7%)
Orbital Transformation      ....       0.000 sec  (  0.0%)
Orbital Orthonormalization  ....       0.000 sec  (  0.0%)
DIIS solution               ....       0.012 sec  (  0.5%)
SOSCF solution              ....       0.010 sec  (  0.4%)
Grid generation             ....       0.205 sec  (  8.3%)

Maximum memory used throughout the entire SCF-calculation: 61.0 MB


-------------------------------------------------------------------------------
                          DFT DISPERSION CORRECTION                            
                                                                               
                              DFTD3 V3.1  Rev 1                                
                          USING Becke-Johnson damping                          
-------------------------------------------------------------------------------
The PBE0 functional is recognized
Active option DFTDOPT                   ...         4   

molecular C6(AA) [au] = 351.752101 


            DFT-D V3
 parameters
 s6 scaling factor         :     1.0000 
 a1 scaling factor         :     0.4145 
 s8 scaling factor         :     1.2177 
 a2 scaling factor         :     4.8593 
 ad hoc parameters k1-k3   :    16.0000     1.3333    -4.0000 

 Edisp/kcal,au: -1.514097414593  -0.002412867559 
 E6   /kcal   :  -0.992806041 
 E8   /kcal   :  -0.521291373 
 % E8         :  34.429183239 

-------------------------   ----------------
Dispersion correction           -0.002412868
-------------------------   ----------------


-------------------------   --------------------
FINAL SINGLE POINT ENERGY      -153.653915437979
-------------------------   --------------------



           ************************************************************
           *        Program running with 8 parallel MPI-processes     *
           *              working on a common directory               *
           ************************************************************
------------------------------------------------------------------------------
                         ORCA SCF GRADIENT CALCULATION
------------------------------------------------------------------------------

 ... reading COSX grid (gridx3)
Gradient of the Kohn-Sham DFT energy:
Kohn-Sham wavefunction type      ... RKS
Hartree-Fock exchange scaling    ...    0.250
Number of operators              ...    1
Number of atoms                  ...    7
Basis set dimensions             ...  117
Integral neglect threshold       ... 2.5e-11
Integral primitive cutoff        ... 2.5e-12
SHARK Integral package           ... ON

Nuc. rep. gradient       (SHARK) ... done (  0.0 sec)
HCore & Overlap gradient (SHARK) ... done (  0.0 sec)
RI-J gradient            (SHARK) ... done (  0.1 sec)
COSX-gradient                    ... done (  0.3 sec)
Exchange-correlation gradient    ... done
Dispersion correction            ... done

------------------
CARTESIAN GRADIENT
------------------

   1   O   :   -0.028606394    0.018015972    0.005797426
   2   C   :   -0.015984909   -0.015652650   -0.054476465
   3   C   :    0.026160840   -0.026525066   -0.099926470
   4   H   :   -0.002370031    0.004947547    0.006896320
   5   H   :    0.026101318    0.017010541    0.043169756
   6   H   :   -0.028824159    0.004294496    0.031513488
   7   H   :    0.023614714   -0.002259284    0.067064734

Difference to translation invariance:
           :    0.0000913800   -0.0001684441    0.0000387898

Difference to rotation invariance:
           :    0.0000763271    0.0000171080   -0.0002472735

Norm of the cartesian gradient     ...    0.1607256026
RMS gradient                       ...    0.0350732019
MAX gradient                       ...    0.0999264697

-------
TIMINGS
-------

Total SCF gradient time            ...        0.674 sec

One electron gradient       ....       0.009 sec  (  1.4%)
RI-J Coulomb gradient       ....       0.073 sec  ( 10.9%)
COSX gradient               ....       0.296 sec  ( 43.9%)
XC gradient                 ....       0.154 sec  ( 22.8%)

Maximum memory used throughout the entire SCFGRAD-calculation: 35.9 MB

                            ***************************************
                            *     ORCA property calculations      *
                            ***************************************

                                    ---------------------
                                    Active property flags
                                    ---------------------
   (+) Dipole Moment


------------------------------------------------------------------------------
                       ORCA ELECTRIC PROPERTIES CALCULATION
------------------------------------------------------------------------------

Dipole Moment Calculation                       ... on
Quadrupole Moment Calculation                   ... off
Polarizability Calculation                      ... off
GBWName                                         ... ox_gs_A_orca0009.gbw
Electron density                                ... ox_gs_A_orca0009.scfp
The origin for moment calculation is the CENTER OF MASS  = (-0.037070, -0.121107  0.050304)

-------------
DIPOLE MOMENT
-------------
                                X             Y             Z
Electronic contribution:     -0.04274       1.52240      -0.22375
Nuclear contribution   :      0.06130      -2.27801       0.17145
                        -----------------------------------------
Total Dipole Moment    :      0.01856      -0.75560      -0.05230
                        -----------------------------------------
Magnitude (a.u.)       :      0.75764
Magnitude (Debye)      :      1.92576



--------------------
Rotational spectrum 
--------------------
 
Rotational constants in cm-1:     0.846257     0.724649     0.470819 
Rotational constants in MHz : 25370.139476 21724.438989 14114.800941 

 Dipole components along the rotational axes: 
x,y,z [a.u.] :     0.251068    -0.713909    -0.036264 
x,y,z [Debye]:     0.638164    -1.814611    -0.092175 

 

Timings for individual modules:

Sum of individual times         ...        3.928 sec (=   0.065 min)
GTO integral calculation        ...        0.326 sec (=   0.005 min)   8.3 %
SCF iterations                  ...        2.657 sec (=   0.044 min)  67.6 %
SCF Gradient evaluation         ...        0.945 sec (=   0.016 min)  24.0 %
                             ****ORCA TERMINATED NORMALLY****
TOTAL RUN TIME: 0 days 0 hours 0 minutes 4 seconds 203 msec
