
                                 *****************
                                 * O   R   C   A *
                                 *****************

                                            #,                                       
                                            ###                                      
                                            ####                                     
                                            #####                                    
                                            ######                                   
                                           ########,                                 
                                     ,,################,,,,,                         
                               ,,#################################,,                 
                          ,,##########################################,,             
                       ,#########################################, ''#####,          
                    ,#############################################,,   '####,        
                  ,##################################################,,,,####,       
                ,###########''''           ''''###############################       
              ,#####''   ,,,,##########,,,,          '''####'''          '####       
            ,##' ,,,,###########################,,,                        '##       
           ' ,,###''''                  '''############,,,                           
         ,,##''                                '''############,,,,        ,,,,,,###''
      ,#''                                            '''#######################'''  
     '                                                          ''''####''''         
             ,#######,   #######,   ,#######,      ##                                
            ,#'     '#,  ##    ##  ,#'     '#,    #''#        ######   ,####,        
            ##       ##  ##   ,#'  ##            #'  '#       #        #'  '#        
            ##       ##  #######   ##           ,######,      #####,   #    #        
            '#,     ,#'  ##    ##  '#,     ,#' ,#      #,         ##   #,  ,#        
             '#######'   ##     ##  '#######'  #'      '#     #####' # '####'        



                  #######################################################
                  #                        -***-                        #
                  #          Department of theory and spectroscopy      #
                  #    Directorship and core code : Frank Neese         #
                  #        Max Planck Institute fuer Kohlenforschung    #
                  #                Kaiser Wilhelm Platz 1               #
                  #                 D-45470 Muelheim/Ruhr               #
                  #                      Germany                        #
                  #                                                     #
                  #                  All rights reserved                #
                  #                        -***-                        #
                  #######################################################


                         Program Version 5.0.2 -  RELEASE  -


 With contributions from (in alphabetic order):
   Daniel Aravena         : Magnetic Suceptibility
   Michael Atanasov       : Ab Initio Ligand Field Theory (pilot matlab implementation)
   Alexander A. Auer      : GIAO ZORA, VPT2 properties, NMR spectrum
   Ute Becker             : Parallelization
   Giovanni Bistoni       : ED, misc. LED, open-shell LED, HFLD
   Martin Brehm           : Molecular dynamics
   Dmytro Bykov           : SCF Hessian
   Vijay G. Chilkuri      : MRCI spin determinant printing, contributions to CSF-ICE
   Dipayan Datta          : RHF DLPNO-CCSD density
   Achintya Kumar Dutta   : EOM-CC, STEOM-CC
   Dmitry Ganyushin       : Spin-Orbit,Spin-Spin,Magnetic field MRCI
   Miquel Garcia          : C-PCM and meta-GGA Hessian, CC/C-PCM, Gaussian charge scheme
   Yang Guo               : DLPNO-NEVPT2, F12-NEVPT2, CIM, IAO-localization
   Andreas Hansen         : Spin unrestricted coupled pair/coupled cluster methods
   Benjamin Helmich-Paris : MC-RPA, TRAH-SCF, COSX integrals
   Lee Huntington         : MR-EOM, pCC
   Robert Izsak           : Overlap fitted RIJCOSX, COSX-SCS-MP3, EOM
   Marcus Kettner         : VPT2
   Christian Kollmar      : KDIIS, OOCD, Brueckner-CCSD(T), CCSD density, CASPT2, CASPT2-K
   Simone Kossmann        : Meta GGA functionals, TD-DFT gradient, OOMP2, MP2 Hessian
   Martin Krupicka        : Initial AUTO-CI
   Lucas Lang             : DCDCAS
   Marvin Lechner         : AUTO-CI (C++ implementation), FIC-MRCC
   Dagmar Lenk            : GEPOL surface, SMD
   Dimitrios Liakos       : Extrapolation schemes; Compound Job, initial MDCI parallelization
   Dimitrios Manganas     : Further ROCIS development; embedding schemes
   Dimitrios Pantazis     : SARC Basis sets
   Anastasios Papadopoulos: AUTO-CI, single reference methods and gradients
   Taras Petrenko         : DFT Hessian,TD-DFT gradient, ASA, ECA, R-Raman, ABS, FL, XAS/XES, NRVS
   Peter Pinski           : DLPNO-MP2, DLPNO-MP2 Gradient
   Christoph Reimann      : Effective Core Potentials
   Marius Retegan         : Local ZFS, SOC
   Christoph Riplinger    : Optimizer, TS searches, QM/MM, DLPNO-CCSD(T), (RO)-DLPNO pert. Triples
   Tobias Risthaus        : Range-separated hybrids, TD-DFT gradient, RPA, STAB
   Michael Roemelt        : Original ROCIS implementation
   Masaaki Saitow         : Open-shell DLPNO-CCSD energy and density
   Barbara Sandhoefer     : DKH picture change effects
   Avijit Sen             : IP-ROCIS
   Kantharuban Sivalingam : CASSCF convergence, NEVPT2, FIC-MRCI
   Bernardo de Souza      : ESD, SOC TD-DFT
   Georgi Stoychev        : AutoAux, RI-MP2 NMR, DLPNO-MP2 response
   Willem Van den Heuvel  : Paramagnetic NMR
   Boris Wezisla          : Elementary symmetry handling
   Frank Wennmohs         : Technical directorship


 We gratefully acknowledge several colleagues who have allowed us to
 interface, adapt or use parts of their codes:
   Stefan Grimme, W. Hujo, H. Kruse, P. Pracht,  : VdW corrections, initial TS optimization,
                  C. Bannwarth, S. Ehlert          DFT functionals, gCP, sTDA/sTD-DF
   Ed Valeev, F. Pavosevic, A. Kumar             : LibInt (2-el integral package), F12 methods
   Garnet Chan, S. Sharma, J. Yang, R. Olivares  : DMRG
   Ulf Ekstrom                                   : XCFun DFT Library
   Mihaly Kallay                                 : mrcc  (arbitrary order and MRCC methods)
   Jiri Pittner, Ondrej Demel                    : Mk-CCSD
   Frank Weinhold                                : gennbo (NPA and NBO analysis)
   Christopher J. Cramer and Donald G. Truhlar   : smd solvation model
   Lars Goerigk                                  : TD-DFT with DH, B97 family of functionals
   V. Asgeirsson, H. Jonsson                     : NEB implementation
   FAccTs GmbH                                   : IRC, NEB, NEB-TS, DLPNO-Multilevel, CI-OPT
                                                   MM, QMMM, 2- and 3-layer-ONIOM, Crystal-QMMM,
                                                   LR-CPCM, SF, NACMEs, symmetry and pop. for TD-DFT,
                                                   nearIR, NL-DFT gradient (VV10), updates on ESD,
                                                   ML-optimized integration grids
   S Lehtola, MJT Oliveira, MAL Marques          : LibXC Library
   Liviu Ungur et al                             : ANISO software


 Your calculation uses the libint2 library for the computation of 2-el integrals
 For citations please refer to: http://libint.valeyev.net

 Your ORCA version has been built with support for libXC version: 5.1.0
 For citations please refer to: https://tddft.org/programs/libxc/

 This ORCA versions uses:
   CBLAS   interface :  Fast vector & matrix operations
   LAPACKE interface :  Fast linear algebra routines
   SCALAPACK package :  Parallel linear algebra routines
   Shared memory     :  Shared parallel matrices
   BLAS/LAPACK       :  OpenBLAS 0.3.15  USE64BITINT DYNAMIC_ARCH NO_AFFINITY SkylakeX SINGLE_THREADED
        Core in use  :  SkylakeX
   Copyright (c) 2011-2014, The OpenBLAS Project


Your calculation utilizes the atom-pairwise dispersion correction
with the Becke-Johnson damping scheme (D3BJ)
Cite in your paper:
S.Grimme, S.Ehrlich, L.Goerigk, J Comput Chem, (2011), 32, 1456–1465 
S.Grimme, J.Antony, S.Ehrlich and H.Krieg, J.Chem.Phys., 132, (2010), 154104 
   

================================================================================

----- Orbital basis set information -----
Your calculation utilizes the basis: def2-TZVP
   F. Weigend and R. Ahlrichs, Phys. Chem. Chem. Phys. 7, 3297 (2005).

----- AuxJ basis set information -----
Your calculation utilizes the auxiliary basis: def2/J
   F. Weigend, Phys. Chem. Chem. Phys. 8, 1057 (2006).

================================================================================
                                        WARNINGS
                       Please study these warnings very carefully!
================================================================================


INFO   : the flag for use of the SHARK integral package has been found!

================================================================================
                                       INPUT FILE
================================================================================
NAME = ox_gs_F_orca0002.inp
|  1> ! engrad PBE0 D3BJ def2-TZVP  
|  2> %pal nprocs 8 end
|  3> %maxcore 3000
|  4>  
|  5> *xyz 0 1 
|  6> O   -1.2407774652385206 0.8810700007704344 0.04436550816833717
|  7> C   -0.671157253834234 -0.4412321422914505 -0.058076016380521206
|  8> C   0.7196579631038909 -0.42367128646681373 -0.10004927653806187
|  9> H   -1.331210852927187 -0.6793022176394679 0.9160279012479834
| 10> H   -1.2942151309083485 -0.7305576038884302 -0.838486504112061
| 11> H   1.2726992483558313 -0.7018701888973188 -0.903419813053145
| 12> H   1.3641250087275372 -0.6679635678947403 0.8432416395292437
| 13> *
| 14> 
| 15>                          ****END OF INPUT****
================================================================================

                     *******************************
                     * Energy+Gradient Calculation *
                     *******************************

---------------------------------
CARTESIAN COORDINATES (ANGSTROEM)
---------------------------------
  O     -1.240777    0.881070    0.044366
  C     -0.671157   -0.441232   -0.058076
  C      0.719658   -0.423671   -0.100049
  H     -1.331211   -0.679302    0.916028
  H     -1.294215   -0.730558   -0.838487
  H      1.272699   -0.701870   -0.903420
  H      1.364125   -0.667964    0.843242

----------------------------
CARTESIAN COORDINATES (A.U.)
----------------------------
  NO LB      ZA    FRAG     MASS         X           Y           Z
   0 O     8.0000    0    15.999   -2.344730    1.664981    0.083839
   1 C     6.0000    0    12.011   -1.268303   -0.833808   -0.109748
   2 C     6.0000    0    12.011    1.359956   -0.800623   -0.189066
   3 H     1.0000    0     1.008   -2.515624   -1.283695    1.731042
   4 H     1.0000    0     1.008   -2.445712   -1.380554   -1.584510
   5 H     1.0000    0     1.008    2.405053   -1.326342   -1.707216
   6 H     1.0000    0     1.008    2.577823   -1.262268    1.593496

--------------------------------
INTERNAL COORDINATES (ANGSTROEM)
--------------------------------
 O      0   0   0     0.000000000000     0.00000000     0.00000000
 C      1   0   0     1.443414150110     0.00000000     0.00000000
 C      2   1   0     1.391559235495   112.64392365     0.00000000
 H      2   1   3     1.200510956548    84.66994553   126.04617720
 H      2   1   3     1.039687871562    94.11223086   228.71028838
 H      3   2   1     1.014225572270   124.43168748   246.38010462
 H      3   2   1     1.168252645619   121.62530710   101.00954515

---------------------------
INTERNAL COORDINATES (A.U.)
---------------------------
 O      0   0   0     0.000000000000     0.00000000     0.00000000
 C      1   0   0     2.727657441535     0.00000000     0.00000000
 C      2   1   0     2.629665854215   112.64392365     0.00000000
 H      2   1   3     2.268636928647    84.66994553   126.04617720
 H      2   1   3     1.964725342012    94.11223086   228.71028838
 H      3   2   1     1.916608569611   124.43168748   246.38010462
 H      3   2   1     2.207677555448   121.62530710   101.00954515

---------------------
BASIS SET INFORMATION
---------------------
There are 3 groups of distinct atoms

 Group   1 Type O   : 11s6p2d1f contracted to 5s3p2d1f pattern {62111/411/11/1}
 Group   2 Type C   : 11s6p2d1f contracted to 5s3p2d1f pattern {62111/411/11/1}
 Group   3 Type H   : 5s1p contracted to 3s1p pattern {311/1}

Atom   0O    basis set group =>   1
Atom   1C    basis set group =>   2
Atom   2C    basis set group =>   2
Atom   3H    basis set group =>   3
Atom   4H    basis set group =>   3
Atom   5H    basis set group =>   3
Atom   6H    basis set group =>   3
---------------------------------
AUXILIARY/J BASIS SET INFORMATION
---------------------------------
There are 3 groups of distinct atoms

 Group   1 Type O   : 12s5p4d2f1g contracted to 6s4p3d1f1g pattern {711111/2111/211/2/1}
 Group   2 Type C   : 12s5p4d2f1g contracted to 6s4p3d1f1g pattern {711111/2111/211/2/1}
 Group   3 Type H   : 5s2p1d contracted to 3s1p1d pattern {311/2/1}

Atom   0O    basis set group =>   1
Atom   1C    basis set group =>   2
Atom   2C    basis set group =>   2
Atom   3H    basis set group =>   3
Atom   4H    basis set group =>   3
Atom   5H    basis set group =>   3
Atom   6H    basis set group =>   3


           ************************************************************
           *        Program running with 8 parallel MPI-processes     *
           *              working on a common directory               *
           ************************************************************
------------------------------------------------------------------------------
                           ORCA GTO INTEGRAL CALCULATION
                           -- RI-GTO INTEGRALS CHOSEN --
------------------------------------------------------------------------------
------------------------------------------------------------------------------
                   ___                                                        
                  /   \      - P O W E R E D   B Y -                         
                 /     \                                                     
                 |  |  |   _    _      __       _____    __    __             
                 |  |  |  | |  | |    /  \     |  _  \  |  |  /  |          
                  \  \/   | |  | |   /    \    | | | |  |  | /  /          
                 / \  \   | |__| |  /  /\  \   | |_| |  |  |/  /          
                |  |  |   |  __  | /  /__\  \  |    /   |      \           
                |  |  |   | |  | | |   __   |  |    \   |  |\   \          
                \     /   | |  | | |  |  |  |  | |\  \  |  | \   \       
                 \___/    |_|  |_| |__|  |__|  |_| \__\ |__|  \__/        
                                                                              
                      - O R C A' S   B I G   F R I E N D -                    
                                      &                                       
                       - I N T E G R A L  F E E D E R -                       
                                                                              
 v1 FN, 2020, v2 2021                                                         
------------------------------------------------------------------------------


Reading SHARK input file ox_gs_F_orca0002.SHARKINP.tmp ... ok
----------------------
SHARK INTEGRAL PACKAGE
----------------------

Number of atoms                             ...      7
Number of basis functions                   ...    117
Number of shells                            ...     49
Maximum angular momentum                    ...      3
Integral batch strategy                     ... SHARK/LIBINT Hybrid
RI-J (if used) integral strategy            ... SPLIT-RIJ (Revised 2003 algorithm where possible)
Printlevel                                  ...      1
Contraction scheme used                     ... SEGMENTED contraction
Coulomb Range Separation                    ... NOT USED
Exchange Range Separation                   ... NOT USED
Finite Nucleus Model                        ... NOT USED
Auxiliary Coulomb fitting basis             ... AVAILABLE
   # of basis functions in Aux-J            ...    191
   # of shells in Aux-J                     ...     65
   Maximum angular momentum in Aux-J        ...      4
Auxiliary J/K fitting basis                 ... NOT available
Auxiliary Correlation fitting basis         ... NOT available
Auxiliary 'external' fitting basis          ... NOT available
Integral threshold                          ...     2.500000e-11
Primitive cut-off                           ...     2.500000e-12
Primitive pair pre-selection threshold      ...     2.500000e-12

Calculating pre-screening integrals         ... done (  0.0 sec) Dimension = 49
Organizing shell pair data                  ... done (  0.0 sec)
Shell pair information
Total number of shell pairs                 ...      1225
Shell pairs after pre-screening             ...      1213
Total number of primitive shell pairs       ...      3648
Primitive shell pairs kept                  ...      3074
          la=0 lb=0:    367 shell pairs
          la=1 lb=0:    351 shell pairs
          la=1 lb=1:     91 shell pairs
          la=2 lb=0:    161 shell pairs
          la=2 lb=1:     78 shell pairs
          la=2 lb=2:     21 shell pairs
          la=3 lb=0:     81 shell pairs
          la=3 lb=1:     39 shell pairs
          la=3 lb=2:     18 shell pairs
          la=3 lb=3:      6 shell pairs

Calculating one electron integrals          ... done (  0.0 sec)
Calculating RI/J V-Matrix + Cholesky decomp.... done (  0.0 sec)
Calculating Nuclear repulsion               ... done (  0.0 sec) ENN=     68.067856702392 Eh

SHARK setup successfully completed in   0.2 seconds

Maximum memory used throughout the entire GTOINT-calculation: 14.9 MB


           ************************************************************
           *        Program running with 8 parallel MPI-processes     *
           *              working on a common directory               *
           ************************************************************
-------------------------------------------------------------------------------
                                 ORCA SCF
-------------------------------------------------------------------------------

------------
SCF SETTINGS
------------
Hamiltonian:
 Density Functional     Method          .... DFT(GTOs)
 Exchange Functional    Exchange        .... PBE
   PBE kappa parameter   XKappa         ....  0.804000
   PBE mue parameter    XMuePBE         ....  0.219520
 Correlation Functional Correlation     .... PBE
   PBE beta parameter  CBetaPBE         ....  0.066725
 LDA part of GGA corr.  LDAOpt          .... PW91-LDA
 Gradients option       PostSCFGGA      .... off
 Hybrid DFT is turned on
   Fraction HF Exchange ScalHFX         ....  0.250000
   Scaling of DF-GGA-X  ScalDFX         ....  0.750000
   Scaling of DF-GGA-C  ScalDFC         ....  1.000000
   Scaling of DF-LDA-C  ScalLDAC        ....  1.000000
   Perturbative correction              ....  0.000000
   Density functional embedding theory  .... OFF
   NL short-range parameter             ....  6.900000
 RI-approximation to the Coulomb term is turned on
   Number of AuxJ basis functions       .... 191
   RIJ-COSX (HFX calculated with COS-X)).... on


General Settings:
 Integral files         IntName         .... ox_gs_F_orca0002
 Hartree-Fock type      HFTyp           .... RHF
 Total Charge           Charge          ....    0
 Multiplicity           Mult            ....    1
 Number of Electrons    NEL             ....   24
 Basis Dimension        Dim             ....  117
 Nuclear Repulsion      ENuc            ....     68.0678567024 Eh

Convergence Acceleration:
 DIIS                   CNVDIIS         .... on
   Start iteration      DIISMaxIt       ....    12
   Startup error        DIISStart       ....  0.200000
   # of expansion vecs  DIISMaxEq       ....     5
   Bias factor          DIISBfac        ....   1.050
   Max. coefficient     DIISMaxC        ....  10.000
 Trust-Rad. Augm. Hess. CNVTRAH         .... auto
   Auto Start mean grad. ratio tolernc. ....  1.125000
   Auto Start start iteration           ....    20
   Auto Start num. interpolation iter.  ....    10
   Max. Number of Micro iterations      ....    16
   Max. Number of Macro iterations      .... Maxiter - #DIIS iter
   Number of Davidson start vectors     ....     2
   Converg. threshold I  (grad. norm)   ....   1.000e-05
   Converg. threshold II (energy diff.) ....   1.000e-08
   Grad. Scal. Fac. for Micro threshold ....   0.100
   Minimum threshold for Micro iter.    ....   0.010
   NR start threshold (gradient norm)   ....   0.001
   Initial trust radius                 ....   0.400
   Minimum AH scaling param. (alpha)    ....   1.000
   Maximum AH scaling param. (alpha)    .... 1000.000
   Orbital update algorithm             .... Taylor
   White noise on init. David. guess    .... on
   Maximum white noise                  ....   0.010
   Quad. conv. algorithm                .... NR
 SOSCF                  CNVSOSCF        .... on
   Start iteration      SOSCFMaxIt      ....   150
   Startup grad/error   SOSCFStart      ....  0.003300
 Level Shifting         CNVShift        .... on
   Level shift para.    LevelShift      ....    0.2500
   Turn off err/grad.   ShiftErr        ....    0.0010
 Zerner damping         CNVZerner       .... off
 Static damping         CNVDamp         .... on
   Fraction old density DampFac         ....    0.7000
   Max. Damping (<1)    DampMax         ....    0.9800
   Min. Damping (>=0)   DampMin         ....    0.0000
   Turn off err/grad.   DampErr         ....    0.1000
 Fernandez-Rico         CNVRico         .... off

SCF Procedure:
 Maximum # iterations   MaxIter         ....   125
 SCF integral mode      SCFMode         .... Direct
   Integral package                     .... SHARK and LIBINT hybrid scheme
 Reset frequency        DirectResetFreq ....    20
 Integral Threshold     Thresh          ....  2.500e-11 Eh
 Primitive CutOff       TCut            ....  2.500e-12 Eh

Convergence Tolerance:
 Convergence Check Mode ConvCheckMode   .... Total+1el-Energy
 Convergence forced     ConvForced      .... 0
 Energy Change          TolE            ....  1.000e-08 Eh
 1-El. energy change                    ....  1.000e-05 Eh
 Orbital Gradient       TolG            ....  1.000e-05
 Orbital Rotation angle TolX            ....  1.000e-05
 DIIS Error             TolErr          ....  5.000e-07


Diagonalization of the overlap matrix:
Smallest eigenvalue                        ... 2.982e-04
Time for diagonalization                   ...    0.149 sec
Threshold for overlap eigenvalues          ... 1.000e-08
Number of eigenvalues below threshold      ... 0
Time for construction of square roots      ...    0.003 sec
Total time needed                          ...    0.152 sec

Time for model grid setup =    0.039 sec

------------------------------
INITIAL GUESS: MODEL POTENTIAL
------------------------------
Loading Hartree-Fock densities                     ... done
Calculating cut-offs                               ... done
Initializing the effective Hamiltonian             ... done
Setting up the integral package (SHARK)            ... done
Starting the Coulomb interaction                   ... done (   0.1 sec)
Reading the grid                                   ... done
Mapping shells                                     ... done
Starting the XC term evaluation                    ... done (   0.0 sec)
  promolecular density results
     # of electrons  =     23.996640125
     EX              =    -19.464244481
     EC              =     -0.766015951
     EX+EC           =    -20.230260432
Transforming the Hamiltonian                       ... done (   0.0 sec)
Diagonalizing the Hamiltonian                      ... done (   0.0 sec)
Back transforming the eigenvectors                 ... done (   0.0 sec)
Now organizing SCF variables                       ... done
                      ------------------
                      INITIAL GUESS DONE (   0.1 sec)
                      ------------------
-------------------
DFT GRID GENERATION
-------------------

General Integration Accuracy     IntAcc      ... 4.388
Radial Grid Type                 RadialGrid  ... OptM3 with GC (2021)
Angular Grid (max. ang.)         AngularGrid ... 4 (Lebedev-302)
Angular grid pruning method      GridPruning ... 4 (adaptive)
Weight generation scheme         WeightScheme... Becke
Basis function cutoff            BFCut       ... 1.0000e-11
Integration weight cutoff        WCut        ... 1.0000e-14
Angular grids for H and He will be reduced by one unit
Partially contracted basis set               ... off
Rotationally invariant grid construction     ... off

Total number of grid points                  ...    31320
Total number of batches                      ...      493
Average number of points per batch           ...       63
Average number of grid points per atom       ...     4474
Time for grid setup =    0.109 sec

--------------------
COSX GRID GENERATION
--------------------

GRIDX 1
-------
General Integration Accuracy     IntAcc      ... 3.816
Radial Grid Type                 RadialGrid  ... OptM3 with GC (2021)
Angular Grid (max. ang.)         AngularGrid ... 1 (Lebedev-50)
Angular grid pruning method      GridPruning ... 4 (adaptive)
Weight generation scheme         WeightScheme... Becke
Basis function cutoff            BFCut       ... 1.0000e-11
Integration weight cutoff        WCut        ... 1.0000e-14
Angular grids for H and He will be reduced by one unit
Partially contracted basis set               ... on
Rotationally invariant grid construction     ... off

Total number of grid points                  ...     4039
Total number of batches                      ...       66
Average number of points per batch           ...       61
Average number of grid points per atom       ...      577
UseSFitting                                  ... on

GRIDX 2
-------
General Integration Accuracy     IntAcc      ... 4.020
Radial Grid Type                 RadialGrid  ... OptM3 with GC (2021)
Angular Grid (max. ang.)         AngularGrid ... 2 (Lebedev-110)
Angular grid pruning method      GridPruning ... 4 (adaptive)
Weight generation scheme         WeightScheme... Becke
Basis function cutoff            BFCut       ... 1.0000e-11
Integration weight cutoff        WCut        ... 1.0000e-14
Angular grids for H and He will be reduced by one unit
Partially contracted basis set               ... on
Rotationally invariant grid construction     ... off

Total number of grid points                  ...     8744
Total number of batches                      ...      140
Average number of points per batch           ...       62
Average number of grid points per atom       ...     1249
UseSFitting                                  ... on

GRIDX 3
-------
General Integration Accuracy     IntAcc      ... 4.338
Radial Grid Type                 RadialGrid  ... OptM3 with GC (2021)
Angular Grid (max. ang.)         AngularGrid ... 3 (Lebedev-194)
Angular grid pruning method      GridPruning ... 4 (adaptive)
Weight generation scheme         WeightScheme... Becke
Basis function cutoff            BFCut       ... 1.0000e-11
Integration weight cutoff        WCut        ... 1.0000e-14
Angular grids for H and He will be reduced by one unit
Partially contracted basis set               ... on
Rotationally invariant grid construction     ... off

Total number of grid points                  ...    19266
Total number of batches                      ...      305
Average number of points per batch           ...       63
Average number of grid points per atom       ...     2752
UseSFitting                                  ... on

Time for X-Grid setup             =    0.072 sec

--------------
SCF ITERATIONS
--------------
ITER       Energy         Delta-E        Max-DP      RMS-DP      [F,P]     Damp
               ***  Starting incremental Fock matrix formation  ***
  0   -153.2518816214   0.000000000000 0.11930714  0.00382321  0.3704845 0.7000
  1   -153.3777263569  -0.125844735471 0.04215281  0.00189045  0.0714771 0.7000
                               ***Turning on DIIS***
  2   -153.3836532633  -0.005926906409 0.07227479  0.00284660  0.0825885 0.0000
  3   -153.4686063552  -0.084953091921 0.03384540  0.00132737  0.0576740 0.0000
  4   -153.4764934863  -0.007887131053 0.01020548  0.00040606  0.0327452 0.0000
  5   -153.4789790790  -0.002485592701 0.00604695  0.00021604  0.0112409 0.0000
                      *** Initiating the SOSCF procedure ***
                           *** Shutting down DIIS ***
                      *** Re-Reading the Fockian *** 
                      *** Removing any level shift *** 
ITER      Energy       Delta-E        Grad      Rot      Max-DP    RMS-DP
  6   -153.47944957  -0.0004704864  0.001625  0.001625  0.002618  0.000104
               *** Restarting incremental Fock matrix formation ***
  7   -153.47955120  -0.0001016334  0.001508  0.019389  0.006172  0.000271
  8   -153.47971885  -0.0001676463  0.001973  0.102728  0.035681  0.001300
  9   -153.47950941   0.0002094359  0.004427  0.019220  0.007174  0.000311
 10   -153.47983099  -0.0003215763  0.002814  0.060477  0.019574  0.000885
 11   -153.47985462  -0.0000236316  0.001417  0.034903  0.011313  0.000471
 12   -153.47999439  -0.0001397777  0.000611  0.005100  0.001792  0.000063
 13   -153.47999843  -0.0000040356  0.000226  0.001252  0.000402  0.000020
 14   -153.47999898  -0.0000005542  0.000110  0.000191  0.000088  0.000004
 15   -153.47999910  -0.0000001126  0.000030  0.000377  0.000131  0.000005
 16   -153.47999912  -0.0000000219  0.000007  0.000051  0.000031  0.000001
 17   -153.47999912  -0.0000000020  0.000004  0.000009  0.000005  0.000000
                 **** Energy Check signals convergence ****
              ***Rediagonalizing the Fockian in SOSCF/NRSCF***

               *****************************************************
               *                     SUCCESS                       *
               *           SCF CONVERGED AFTER  18 CYCLES          *
               *****************************************************

Old exchange energy                            =     -4.952865283 Eh
New exchange energy                            =     -4.952874237 Eh
Exchange energy change after final integration =     -0.000008954 Eh
Total energy after final integration           =   -153.480008075 Eh
Final COS-X integration done in                =     0.243 sec

----------------
TOTAL SCF ENERGY
----------------

Total Energy       :         -153.48000807 Eh           -4176.40334 eV

Components:
Nuclear Repulsion  :           68.06785670 Eh            1852.22055 eV
Electronic Energy  :         -221.54786478 Eh           -6028.62389 eV
One Electron Energy:         -342.96547757 Eh           -9332.56510 eV
Two Electron Energy:          121.41761279 Eh            3303.94121 eV
Max COSX asymmetry :            0.00000231 Eh               0.00006 eV

Virial components:
Potential Energy   :         -306.40922847 Eh           -8337.81899 eV
Kinetic Energy     :          152.92922040 Eh            4161.41565 eV
Virial Ratio       :            2.00360159


DFT components:
N(Alpha)           :       11.999998665878 electrons
N(Beta)            :       11.999998665878 electrons
N(Total)           :       23.999997331756 electrons
E(X)               :      -14.888184256001 Eh       
E(C)               :       -0.772159616006 Eh       
E(XC)              :      -15.660343872007 Eh       
DFET-embed. en.    :        0.000000000000 Eh       

---------------
SCF CONVERGENCE
---------------

  Last Energy change         ...   -3.4191e-11  Tolerance :   1.0000e-08
  Last MAX-Density change    ...    8.8818e-16  Tolerance :   1.0000e-07
  Last RMS-Density change    ...    2.3188e-17  Tolerance :   5.0000e-09
  Last Orbital Gradient      ...    2.5357e-07  Tolerance :   1.0000e-05
  Last Orbital Rotation      ...    2.8847e-06  Tolerance :   1.0000e-05

             **** THE GBW FILE WAS UPDATED (ox_gs_F_orca0002.gbw) ****
             **** DENSITY ox_gs_F_orca0002.scfp WAS UPDATED ****
             **** ENERGY FILE WAS UPDATED (ox_gs_F_orca0002.en.tmp) ****
             **** THE GBW FILE WAS UPDATED (ox_gs_F_orca0002.gbw) ****
             **** DENSITY ox_gs_F_orca0002.scfp WAS UPDATED ****
----------------
ORBITAL ENERGIES
----------------

  NO   OCC          E(Eh)            E(eV) 
   0   2.0000     -19.181795      -521.9632 
   1   2.0000     -10.300388      -280.2878 
   2   2.0000     -10.277859      -279.6748 
   3   2.0000      -0.981860       -26.7178 
   4   2.0000      -0.789684       -21.4884 
   5   2.0000      -0.627911       -17.0863 
   6   2.0000      -0.520311       -14.1584 
   7   2.0000      -0.496647       -13.5145 
   8   2.0000      -0.410131       -11.1602 
   9   2.0000      -0.395114       -10.7516 
  10   2.0000      -0.258818        -7.0428 
  11   2.0000      -0.232419        -6.3244 
  12   0.0000      -0.162768        -4.4292 
  13   0.0000       0.041072         1.1176 
  14   0.0000       0.076168         2.0726 
  15   0.0000       0.083376         2.2688 
  16   0.0000       0.133676         3.6375 
  17   0.0000       0.148769         4.0482 
  18   0.0000       0.191678         5.2158 
  19   0.0000       0.220027         5.9872 
  20   0.0000       0.228957         6.2302 
  21   0.0000       0.231561         6.3011 
  22   0.0000       0.253295         6.8925 
  23   0.0000       0.340017         9.2523 
  24   0.0000       0.360248         9.8028 
  25   0.0000       0.368474        10.0267 
  26   0.0000       0.398825        10.8526 
  27   0.0000       0.410519        11.1708 
  28   0.0000       0.457056        12.4371 
  29   0.0000       0.482728        13.1357 
  30   0.0000       0.515255        14.0208 
  31   0.0000       0.541334        14.7305 
  32   0.0000       0.552859        15.0441 
  33   0.0000       0.595069        16.1926 
  34   0.0000       0.661550        18.0017 
  35   0.0000       0.716308        19.4917 
  36   0.0000       0.789123        21.4731 
  37   0.0000       0.855714        23.2852 
  38   0.0000       0.868661        23.6375 
  39   0.0000       0.916050        24.9270 
  40   0.0000       0.960492        26.1363 
  41   0.0000       1.028846        27.9963 
  42   0.0000       1.109419        30.1888 
  43   0.0000       1.149143        31.2698 
  44   0.0000       1.206398        32.8278 
  45   0.0000       1.326048        36.0836 
  46   0.0000       1.417145        38.5625 
  47   0.0000       1.439912        39.1820 
  48   0.0000       1.508663        41.0528 
  49   0.0000       1.539564        41.8937 
  50   0.0000       1.561046        42.4782 
  51   0.0000       1.581860        43.0446 
  52   0.0000       1.636135        44.5215 
  53   0.0000       1.641995        44.6810 
  54   0.0000       1.704934        46.3936 
  55   0.0000       1.787167        48.6313 
  56   0.0000       1.805366        49.1265 
  57   0.0000       1.839424        50.0533 
  58   0.0000       1.863130        50.6983 
  59   0.0000       1.937249        52.7152 
  60   0.0000       1.983436        53.9720 
  61   0.0000       2.019830        54.9624 
  62   0.0000       2.157430        58.7066 
  63   0.0000       2.261481        61.5380 
  64   0.0000       2.323098        63.2147 
  65   0.0000       2.335787        63.5600 
  66   0.0000       2.368257        64.4436 
  67   0.0000       2.406676        65.4890 
  68   0.0000       2.461482        66.9803 
  69   0.0000       2.552688        69.4622 
  70   0.0000       2.558725        69.6264 
  71   0.0000       2.626428        71.4687 
  72   0.0000       2.646489        72.0146 
  73   0.0000       2.710384        73.7533 
  74   0.0000       2.745872        74.7190 
  75   0.0000       2.786017        75.8114 
  76   0.0000       2.832680        77.0811 
  77   0.0000       2.940975        80.0280 
  78   0.0000       2.982604        81.1608 
  79   0.0000       3.033611        82.5488 
  80   0.0000       3.043013        82.8046 
  81   0.0000       3.075528        83.6894 
  82   0.0000       3.087629        84.0187 
  83   0.0000       3.132088        85.2284 
  84   0.0000       3.183191        86.6190 
  85   0.0000       3.256139        88.6040 
  86   0.0000       3.331545        90.6560 
  87   0.0000       3.348612        91.1204 
  88   0.0000       3.418148        93.0125 
  89   0.0000       3.452419        93.9451 
  90   0.0000       3.544275        96.4446 
  91   0.0000       3.647798        99.2616 
  92   0.0000       3.748362       101.9981 
  93   0.0000       3.853867       104.8691 
  94   0.0000       4.165532       113.3499 
  95   0.0000       4.186684       113.9255 
  96   0.0000       4.296795       116.9217 
  97   0.0000       4.309267       117.2611 
  98   0.0000       4.391643       119.5027 
  99   0.0000       4.529140       123.2442 
 100   0.0000       4.600260       125.1794 
 101   0.0000       4.756611       129.4340 
 102   0.0000       5.208588       141.7329 
 103   0.0000       5.230554       142.3306 
 104   0.0000       5.383045       146.4801 
 105   0.0000       5.442220       148.0903 
 106   0.0000       5.726556       155.8275 
 107   0.0000       5.819158       158.3474 
 108   0.0000       5.911238       160.8530 
 109   0.0000       6.365360       173.2103 
 110   0.0000       6.393897       173.9868 
 111   0.0000       6.780357       184.5029 
 112   0.0000       6.815078       185.4477 
 113   0.0000       6.975948       189.8252 
 114   0.0000      22.073594       600.6530 
 115   0.0000      22.547240       613.5416 
 116   0.0000      43.773181      1191.1288 

                    ********************************
                    * MULLIKEN POPULATION ANALYSIS *
                    ********************************

-----------------------
MULLIKEN ATOMIC CHARGES
-----------------------
   0 O :   -0.408261
   1 C :   -0.168428
   2 C :   -0.095313
   3 H :    0.223865
   4 H :    0.131417
   5 H :    0.152023
   6 H :    0.164698
Sum of atomic charges:    0.0000000

--------------------------------
MULLIKEN REDUCED ORBITAL CHARGES
--------------------------------
  0 O s       :     3.908755  s :     3.908755
      pz      :     1.568978  p :     4.476501
      px      :     1.554838
      py      :     1.352685
      dz2     :     0.002909  d :     0.021845
      dxz     :     0.000506
      dyz     :     0.005467
      dx2y2   :     0.006440
      dxy     :     0.006523
      f0      :     0.000105  f :     0.001160
      f+1     :     0.000061
      f-1     :     0.000162
      f+2     :     0.000120
      f-2     :     0.000076
      f+3     :     0.000390
      f-3     :     0.000246
  1 C s       :     3.209991  s :     3.209991
      pz      :     1.053112  p :     2.791056
      px      :     0.926966
      py      :     0.810978
      dz2     :     0.011388  d :     0.157151
      dxz     :     0.029750
      dyz     :     0.030671
      dx2y2   :     0.028218
      dxy     :     0.057124
      f0      :     0.001121  f :     0.010230
      f+1     :     0.001191
      f-1     :     0.000519
      f+2     :     0.001774
      f-2     :     0.000999
      f+3     :     0.001967
      f-3     :     0.002659
  2 C s       :     3.240788  s :     3.240788
      pz      :     1.051948  p :     2.801442
      px      :     0.997156
      py      :     0.752339
      dz2     :     0.003649  d :     0.048823
      dxz     :     0.024622
      dyz     :     0.002945
      dx2y2   :     0.005287
      dxy     :     0.012321
      f0      :     0.000360  f :     0.004260
      f+1     :     0.000838
      f-1     :     0.000130
      f+2     :     0.000878
      f-2     :     0.000176
      f+3     :     0.000548
      f-3     :     0.001329
  3 H s       :     0.754714  s :     0.754714
      pz      :     0.008446  p :     0.021421
      px      :     0.006963
      py      :     0.006012
  4 H s       :     0.844439  s :     0.844439
      pz      :     0.009517  p :     0.024145
      px      :     0.008309
      py      :     0.006319
  5 H s       :     0.823467  s :     0.823467
      pz      :     0.010663  p :     0.024510
      px      :     0.008366
      py      :     0.005482
  6 H s       :     0.815471  s :     0.815471
      pz      :     0.009427  p :     0.019831
      px      :     0.006443
      py      :     0.003961


                     *******************************
                     * LOEWDIN POPULATION ANALYSIS *
                     *******************************

----------------------
LOEWDIN ATOMIC CHARGES
----------------------
   0 O :   -0.120772
   1 C :   -0.453436
   2 C :   -0.031433
   3 H :    0.227012
   4 H :    0.116090
   5 H :    0.104185
   6 H :    0.158354

-------------------------------
LOEWDIN REDUCED ORBITAL CHARGES
-------------------------------
  0 O s       :     3.586777  s :     3.586777
      pz      :     1.520026  p :     4.478089
      px      :     1.513809
      py      :     1.444254
      dz2     :     0.006277  d :     0.052605
      dxz     :     0.001278
      dyz     :     0.014046
      dx2y2   :     0.016595
      dxy     :     0.014409
      f0      :     0.000383  f :     0.003301
      f+1     :     0.000133
      f-1     :     0.000425
      f+2     :     0.000384
      f-2     :     0.000238
      f+3     :     0.000871
      f-3     :     0.000866
  1 C s       :     2.815850  s :     2.815850
      pz      :     1.015452  p :     2.975801
      px      :     1.063534
      py      :     0.896814
      dz2     :     0.063073  d :     0.592125
      dxz     :     0.124172
      dyz     :     0.079409
      dx2y2   :     0.142144
      dxy     :     0.183327
      f0      :     0.006982  f :     0.069660
      f+1     :     0.007563
      f-1     :     0.005499
      f+2     :     0.009693
      f-2     :     0.007031
      f+3     :     0.017981
      f-3     :     0.014911
  2 C s       :     2.896739  s :     2.896739
      pz      :     1.066072  p :     2.872870
      px      :     1.121100
      py      :     0.685698
      dz2     :     0.024277  d :     0.236038
      dxz     :     0.124819
      dyz     :     0.008356
      dx2y2   :     0.035836
      dxy     :     0.042750
      f0      :     0.003175  f :     0.025786
      f+1     :     0.003800
      f-1     :     0.001106
      f+2     :     0.004901
      f-2     :     0.001877
      f+3     :     0.004667
      f-3     :     0.006260
  3 H s       :     0.720813  s :     0.720813
      pz      :     0.023196  p :     0.052175
      px      :     0.015421
      py      :     0.013559
  4 H s       :     0.812813  s :     0.812813
      pz      :     0.030108  p :     0.071097
      px      :     0.022543
      py      :     0.018446
  5 H s       :     0.817498  s :     0.817498
      pz      :     0.035800  p :     0.078317
      px      :     0.024460
      py      :     0.018057
  6 H s       :     0.788036  s :     0.788036
      pz      :     0.027247  p :     0.053610
      px      :     0.015713
      py      :     0.010650


                      *****************************
                      * MAYER POPULATION ANALYSIS *
                      *****************************

  NA   - Mulliken gross atomic population
  ZA   - Total nuclear charge
  QA   - Mulliken gross atomic charge
  VA   - Mayer's total valence
  BVA  - Mayer's bonded valence
  FA   - Mayer's free valence

  ATOM       NA         ZA         QA         VA         BVA        FA
  0 O      8.4083     8.0000    -0.4083     1.6850     1.6850     0.0000
  1 C      6.1684     6.0000    -0.1684     4.1380     4.1380     0.0000
  2 C      6.0953     6.0000    -0.0953     3.7553     3.7553     0.0000
  3 H      0.7761     1.0000     0.2239     0.9491     0.9491     0.0000
  4 H      0.8686     1.0000     0.1314     0.9618     0.9618    -0.0000
  5 H      0.8480     1.0000     0.1520     0.9648     0.9648     0.0000
  6 H      0.8353     1.0000     0.1647     0.9603     0.9603     0.0000

  Mayer bond orders larger than 0.100000
B(  0-O ,  1-C ) :   1.0588 B(  0-O ,  2-C ) :   0.5790 B(  1-C ,  2-C ) :   1.2397 
B(  1-C ,  3-H ) :   0.8514 B(  1-C ,  4-H ) :   0.9708 B(  2-C ,  5-H ) :   0.9487 
B(  2-C ,  6-H ) :   0.9389 

-------
TIMINGS
-------

Total SCF time: 0 days 0 hours 0 min 3 sec 

Total time                  ....       3.986 sec
Sum of individual times     ....       3.563 sec  ( 89.4%)

Fock matrix formation       ....       3.213 sec  ( 80.6%)
  Split-RI-J                ....       0.375 sec  ( 11.7% of F)
  Chain of spheres X        ....       2.184 sec  ( 68.0% of F)
  XC integration            ....       0.591 sec  ( 18.4% of F)
    Basis function eval.    ....       0.163 sec  ( 27.5% of XC)
    Density eval.           ....       0.122 sec  ( 20.6% of XC)
    XC-Functional eval.     ....       0.035 sec  (  5.8% of XC)
    XC-Potential eval.      ....       0.206 sec  ( 34.9% of XC)
Diagonalization             ....       0.016 sec  (  0.4%)
Density matrix formation    ....       0.002 sec  (  0.0%)
Population analysis         ....       0.003 sec  (  0.1%)
Initial guess               ....       0.072 sec  (  1.8%)
Orbital Transformation      ....       0.000 sec  (  0.0%)
Orbital Orthonormalization  ....       0.000 sec  (  0.0%)
DIIS solution               ....       0.013 sec  (  0.3%)
SOSCF solution              ....       0.025 sec  (  0.6%)
Grid generation             ....       0.220 sec  (  5.5%)

Maximum memory used throughout the entire SCF-calculation: 61.0 MB


-------------------------------------------------------------------------------
                          DFT DISPERSION CORRECTION                            
                                                                               
                              DFTD3 V3.1  Rev 1                                
                          USING Becke-Johnson damping                          
-------------------------------------------------------------------------------
The PBE0 functional is recognized
Active option DFTDOPT                   ...         4   

molecular C6(AA) [au] = 395.500414 


            DFT-D V3
 parameters
 s6 scaling factor         :     1.0000 
 a1 scaling factor         :     0.4145 
 s8 scaling factor         :     1.2177 
 a2 scaling factor         :     4.8593 
 ad hoc parameters k1-k3   :    16.0000     1.3333    -4.0000 

 Edisp/kcal,au: -1.630900996557  -0.002599005896 
 E6   /kcal   :  -1.063881209 
 E8   /kcal   :  -0.567019788 
 % E8         :  34.767272143 

-------------------------   ----------------
Dispersion correction           -0.002599006
-------------------------   ----------------


-------------------------   --------------------
FINAL SINGLE POINT ENERGY      -153.482607080623
-------------------------   --------------------



           ************************************************************
           *        Program running with 8 parallel MPI-processes     *
           *              working on a common directory               *
           ************************************************************
------------------------------------------------------------------------------
                         ORCA SCF GRADIENT CALCULATION
------------------------------------------------------------------------------

 ... reading COSX grid (gridx3)
Gradient of the Kohn-Sham DFT energy:
Kohn-Sham wavefunction type      ... RKS
Hartree-Fock exchange scaling    ...    0.250
Number of operators              ...    1
Number of atoms                  ...    7
Basis set dimensions             ...  117
Integral neglect threshold       ... 2.5e-11
Integral primitive cutoff        ... 2.5e-12
SHARK Integral package           ... ON

Nuc. rep. gradient       (SHARK) ... done (  0.0 sec)
HCore & Overlap gradient (SHARK) ... done (  0.0 sec)
RI-J gradient            (SHARK) ... done (  0.1 sec)
COSX-gradient                    ... done (  0.3 sec)
Exchange-correlation gradient    ... done
Dispersion correction            ... done

------------------
CARTESIAN GRADIENT
------------------

   1   O   :   -0.028818329   -0.027122636   -0.016196899
   2   C   :    0.078548360   -0.030953164   -0.032134083
   3   C   :   -0.013843952    0.029344920   -0.098664183
   4   H   :   -0.046438423    0.014160543    0.025163187
   5   H   :    0.006658608    0.039433506    0.039126271
   6   H   :   -0.024617446    0.010032937    0.057339023
   7   H   :    0.028577289   -0.034913950    0.025217856

Difference to translation invariance:
           :    0.0000661061   -0.0000178444   -0.0001488292

Difference to rotation invariance:
           :   -0.0002228403   -0.0002635377    0.0002164891

Norm of the cartesian gradient     ...    0.1832017501
RMS gradient                       ...    0.0399778994
MAX gradient                       ...    0.0986641835

-------
TIMINGS
-------

Total SCF gradient time            ...        0.864 sec

One electron gradient       ....       0.013 sec  (  1.5%)
RI-J Coulomb gradient       ....       0.148 sec  ( 17.2%)
COSX gradient               ....       0.338 sec  ( 39.2%)
XC gradient                 ....       0.150 sec  ( 17.4%)

Maximum memory used throughout the entire SCFGRAD-calculation: 35.8 MB

                            ***************************************
                            *     ORCA property calculations      *
                            ***************************************

                                    ---------------------
                                    Active property flags
                                    ---------------------
   (+) Dipole Moment


------------------------------------------------------------------------------
                       ORCA ELECTRIC PROPERTIES CALCULATION
------------------------------------------------------------------------------

Dipole Moment Calculation                       ... on
Quadrupole Moment Calculation                   ... off
Polarizability Calculation                      ... off
GBWName                                         ... ox_gs_F_orca0002.gbw
Electron density                                ... ox_gs_F_orca0002.scfp
The origin for moment calculation is the CENTER OF MASS  = (-0.826068,  0.038862 -0.050272)

-------------
DIPOLE MOMENT
-------------
                                X             Y             Z
Electronic contribution:     -0.79999       1.45639      -0.20079
Nuclear contribution   :      1.63925      -2.67229       0.11717
                        -----------------------------------------
Total Dipole Moment    :      0.83926      -1.21590      -0.08362
                        -----------------------------------------
Magnitude (a.u.)       :      1.47979
Magnitude (Debye)      :      3.76133



--------------------
Rotational spectrum 
--------------------
 
Rotational constants in cm-1:     1.528752     0.344024     0.313191 
Rotational constants in MHz : 45830.839328 10313.578243  9389.241012 

 Dipole components along the rotational axes: 
x,y,z [a.u.] :     1.364015    -0.573266    -0.024653 
x,y,z [Debye]:     3.467051    -1.457126    -0.062664 

 

Timings for individual modules:

Sum of individual times         ...        6.062 sec (=   0.101 min)
GTO integral calculation        ...        0.688 sec (=   0.011 min)  11.4 %
SCF iterations                  ...        4.271 sec (=   0.071 min)  70.5 %
SCF Gradient evaluation         ...        1.102 sec (=   0.018 min)  18.2 %
                             ****ORCA TERMINATED NORMALLY****
TOTAL RUN TIME: 0 days 0 hours 0 minutes 6 seconds 733 msec
