
                                 *****************
                                 * O   R   C   A *
                                 *****************

                                            #,                                       
                                            ###                                      
                                            ####                                     
                                            #####                                    
                                            ######                                   
                                           ########,                                 
                                     ,,################,,,,,                         
                               ,,#################################,,                 
                          ,,##########################################,,             
                       ,#########################################, ''#####,          
                    ,#############################################,,   '####,        
                  ,##################################################,,,,####,       
                ,###########''''           ''''###############################       
              ,#####''   ,,,,##########,,,,          '''####'''          '####       
            ,##' ,,,,###########################,,,                        '##       
           ' ,,###''''                  '''############,,,                           
         ,,##''                                '''############,,,,        ,,,,,,###''
      ,#''                                            '''#######################'''  
     '                                                          ''''####''''         
             ,#######,   #######,   ,#######,      ##                                
            ,#'     '#,  ##    ##  ,#'     '#,    #''#        ######   ,####,        
            ##       ##  ##   ,#'  ##            #'  '#       #        #'  '#        
            ##       ##  #######   ##           ,######,      #####,   #    #        
            '#,     ,#'  ##    ##  '#,     ,#' ,#      #,         ##   #,  ,#        
             '#######'   ##     ##  '#######'  #'      '#     #####' # '####'        



                  #######################################################
                  #                        -***-                        #
                  #          Department of theory and spectroscopy      #
                  #    Directorship and core code : Frank Neese         #
                  #        Max Planck Institute fuer Kohlenforschung    #
                  #                Kaiser Wilhelm Platz 1               #
                  #                 D-45470 Muelheim/Ruhr               #
                  #                      Germany                        #
                  #                                                     #
                  #                  All rights reserved                #
                  #                        -***-                        #
                  #######################################################


                         Program Version 5.0.2 -  RELEASE  -


 With contributions from (in alphabetic order):
   Daniel Aravena         : Magnetic Suceptibility
   Michael Atanasov       : Ab Initio Ligand Field Theory (pilot matlab implementation)
   Alexander A. Auer      : GIAO ZORA, VPT2 properties, NMR spectrum
   Ute Becker             : Parallelization
   Giovanni Bistoni       : ED, misc. LED, open-shell LED, HFLD
   Martin Brehm           : Molecular dynamics
   Dmytro Bykov           : SCF Hessian
   Vijay G. Chilkuri      : MRCI spin determinant printing, contributions to CSF-ICE
   Dipayan Datta          : RHF DLPNO-CCSD density
   Achintya Kumar Dutta   : EOM-CC, STEOM-CC
   Dmitry Ganyushin       : Spin-Orbit,Spin-Spin,Magnetic field MRCI
   Miquel Garcia          : C-PCM and meta-GGA Hessian, CC/C-PCM, Gaussian charge scheme
   Yang Guo               : DLPNO-NEVPT2, F12-NEVPT2, CIM, IAO-localization
   Andreas Hansen         : Spin unrestricted coupled pair/coupled cluster methods
   Benjamin Helmich-Paris : MC-RPA, TRAH-SCF, COSX integrals
   Lee Huntington         : MR-EOM, pCC
   Robert Izsak           : Overlap fitted RIJCOSX, COSX-SCS-MP3, EOM
   Marcus Kettner         : VPT2
   Christian Kollmar      : KDIIS, OOCD, Brueckner-CCSD(T), CCSD density, CASPT2, CASPT2-K
   Simone Kossmann        : Meta GGA functionals, TD-DFT gradient, OOMP2, MP2 Hessian
   Martin Krupicka        : Initial AUTO-CI
   Lucas Lang             : DCDCAS
   Marvin Lechner         : AUTO-CI (C++ implementation), FIC-MRCC
   Dagmar Lenk            : GEPOL surface, SMD
   Dimitrios Liakos       : Extrapolation schemes; Compound Job, initial MDCI parallelization
   Dimitrios Manganas     : Further ROCIS development; embedding schemes
   Dimitrios Pantazis     : SARC Basis sets
   Anastasios Papadopoulos: AUTO-CI, single reference methods and gradients
   Taras Petrenko         : DFT Hessian,TD-DFT gradient, ASA, ECA, R-Raman, ABS, FL, XAS/XES, NRVS
   Peter Pinski           : DLPNO-MP2, DLPNO-MP2 Gradient
   Christoph Reimann      : Effective Core Potentials
   Marius Retegan         : Local ZFS, SOC
   Christoph Riplinger    : Optimizer, TS searches, QM/MM, DLPNO-CCSD(T), (RO)-DLPNO pert. Triples
   Tobias Risthaus        : Range-separated hybrids, TD-DFT gradient, RPA, STAB
   Michael Roemelt        : Original ROCIS implementation
   Masaaki Saitow         : Open-shell DLPNO-CCSD energy and density
   Barbara Sandhoefer     : DKH picture change effects
   Avijit Sen             : IP-ROCIS
   Kantharuban Sivalingam : CASSCF convergence, NEVPT2, FIC-MRCI
   Bernardo de Souza      : ESD, SOC TD-DFT
   Georgi Stoychev        : AutoAux, RI-MP2 NMR, DLPNO-MP2 response
   Willem Van den Heuvel  : Paramagnetic NMR
   Boris Wezisla          : Elementary symmetry handling
   Frank Wennmohs         : Technical directorship


 We gratefully acknowledge several colleagues who have allowed us to
 interface, adapt or use parts of their codes:
   Stefan Grimme, W. Hujo, H. Kruse, P. Pracht,  : VdW corrections, initial TS optimization,
                  C. Bannwarth, S. Ehlert          DFT functionals, gCP, sTDA/sTD-DF
   Ed Valeev, F. Pavosevic, A. Kumar             : LibInt (2-el integral package), F12 methods
   Garnet Chan, S. Sharma, J. Yang, R. Olivares  : DMRG
   Ulf Ekstrom                                   : XCFun DFT Library
   Mihaly Kallay                                 : mrcc  (arbitrary order and MRCC methods)
   Jiri Pittner, Ondrej Demel                    : Mk-CCSD
   Frank Weinhold                                : gennbo (NPA and NBO analysis)
   Christopher J. Cramer and Donald G. Truhlar   : smd solvation model
   Lars Goerigk                                  : TD-DFT with DH, B97 family of functionals
   V. Asgeirsson, H. Jonsson                     : NEB implementation
   FAccTs GmbH                                   : IRC, NEB, NEB-TS, DLPNO-Multilevel, CI-OPT
                                                   MM, QMMM, 2- and 3-layer-ONIOM, Crystal-QMMM,
                                                   LR-CPCM, SF, NACMEs, symmetry and pop. for TD-DFT,
                                                   nearIR, NL-DFT gradient (VV10), updates on ESD,
                                                   ML-optimized integration grids
   S Lehtola, MJT Oliveira, MAL Marques          : LibXC Library
   Liviu Ungur et al                             : ANISO software


 Your calculation uses the libint2 library for the computation of 2-el integrals
 For citations please refer to: http://libint.valeyev.net

 Your ORCA version has been built with support for libXC version: 5.1.0
 For citations please refer to: https://tddft.org/programs/libxc/

 This ORCA versions uses:
   CBLAS   interface :  Fast vector & matrix operations
   LAPACKE interface :  Fast linear algebra routines
   SCALAPACK package :  Parallel linear algebra routines
   Shared memory     :  Shared parallel matrices
   BLAS/LAPACK       :  OpenBLAS 0.3.15  USE64BITINT DYNAMIC_ARCH NO_AFFINITY SkylakeX SINGLE_THREADED
        Core in use  :  SkylakeX
   Copyright (c) 2011-2014, The OpenBLAS Project


Your calculation utilizes the atom-pairwise dispersion correction
with the Becke-Johnson damping scheme (D3BJ)
Cite in your paper:
S.Grimme, S.Ehrlich, L.Goerigk, J Comput Chem, (2011), 32, 1456–1465 
S.Grimme, J.Antony, S.Ehrlich and H.Krieg, J.Chem.Phys., 132, (2010), 154104 
   

================================================================================

----- Orbital basis set information -----
Your calculation utilizes the basis: def2-TZVP
   F. Weigend and R. Ahlrichs, Phys. Chem. Chem. Phys. 7, 3297 (2005).

----- AuxJ basis set information -----
Your calculation utilizes the auxiliary basis: def2/J
   F. Weigend, Phys. Chem. Chem. Phys. 8, 1057 (2006).

================================================================================
                                        WARNINGS
                       Please study these warnings very carefully!
================================================================================


INFO   : the flag for use of the SHARK integral package has been found!

================================================================================
                                       INPUT FILE
================================================================================
NAME = ox_gs_A_orca0000.inp
|  1> ! engrad PBE0 D3BJ def2-TZVP  
|  2> %pal nprocs 8 end
|  3> %maxcore 3000
|  4>  
|  5> *xyz 0 1 
|  6> O   0.024835757650561636 0.7600110949414408 0.03238453690503462
|  7> C   -0.6527380971795987 -0.4587281587361668 -0.011706847847459028
|  8> C   0.8078501807753695 -0.4086487535423545 -0.023473719296747606
|  9> H   -1.2366949278207016 -0.6914416946406231 0.8966897323214872
| 10> H   -1.2517246564216982 -0.76393492223289 -1.0062221116256516
| 11> H   1.2357084435379513 -0.7189124160167212 -0.9042638533702363
| 12> H   1.2184216662239395 -0.7388859950667646 0.9932586084460777
| 13> *
| 14> 
| 15>                          ****END OF INPUT****
================================================================================

                     *******************************
                     * Energy+Gradient Calculation *
                     *******************************

---------------------------------
CARTESIAN COORDINATES (ANGSTROEM)
---------------------------------
  O      0.024836    0.760011    0.032385
  C     -0.652738   -0.458728   -0.011707
  C      0.807850   -0.408649   -0.023474
  H     -1.236695   -0.691442    0.896690
  H     -1.251725   -0.763935   -1.006222
  H      1.235708   -0.718912   -0.904264
  H      1.218422   -0.738886    0.993259

----------------------------
CARTESIAN COORDINATES (A.U.)
----------------------------
  NO LB      ZA    FRAG     MASS         X           Y           Z
   0 O     8.0000    0    15.999    0.046933    1.436213    0.061198
   1 C     6.0000    0    12.011   -1.233496   -0.866871   -0.022123
   2 C     6.0000    0    12.011    1.526616   -0.772234   -0.044359
   3 H     1.0000    0     1.008   -2.337015   -1.306635    1.694498
   4 H     1.0000    0     1.008   -2.365417   -1.443628   -1.901484
   5 H     1.0000    0     1.008    2.335151   -1.358548   -1.708811
   6 H     1.0000    0     1.008    2.302483   -1.396292    1.876987

--------------------------------
INTERNAL COORDINATES (ANGSTROEM)
--------------------------------
 O      0   0   0     0.000000000000     0.00000000     0.00000000
 C      1   0   0     1.395125710255     0.00000000     0.00000000
 C      1   2   0     1.407834355692    62.85195170     0.00000000
 H      2   1   3     1.104692498711   114.50488521   114.90896310
 H      2   1   3     1.200415210052   119.38206913   250.60616802
 H      3   1   2     1.027189122580   121.09288193   101.12127912
 H      3   1   2     1.145150735332   113.80143021   260.49712694

---------------------------
INTERNAL COORDINATES (A.U.)
---------------------------
 O      0   0   0     0.000000000000     0.00000000     0.00000000
 C      1   0   0     2.636405514774     0.00000000     0.00000000
 C      1   2   0     2.660421374183    62.85195170     0.00000000
 H      2   1   3     2.087566284761   114.50488521   114.90896310
 H      2   1   3     2.268455993992   119.38206913   250.60616802
 H      3   1   2     1.941106129420   121.09288193   101.12127912
 H      3   1   2     2.164021271835   113.80143021   260.49712694

---------------------
BASIS SET INFORMATION
---------------------
There are 3 groups of distinct atoms

 Group   1 Type O   : 11s6p2d1f contracted to 5s3p2d1f pattern {62111/411/11/1}
 Group   2 Type C   : 11s6p2d1f contracted to 5s3p2d1f pattern {62111/411/11/1}
 Group   3 Type H   : 5s1p contracted to 3s1p pattern {311/1}

Atom   0O    basis set group =>   1
Atom   1C    basis set group =>   2
Atom   2C    basis set group =>   2
Atom   3H    basis set group =>   3
Atom   4H    basis set group =>   3
Atom   5H    basis set group =>   3
Atom   6H    basis set group =>   3
---------------------------------
AUXILIARY/J BASIS SET INFORMATION
---------------------------------
There are 3 groups of distinct atoms

 Group   1 Type O   : 12s5p4d2f1g contracted to 6s4p3d1f1g pattern {711111/2111/211/2/1}
 Group   2 Type C   : 12s5p4d2f1g contracted to 6s4p3d1f1g pattern {711111/2111/211/2/1}
 Group   3 Type H   : 5s2p1d contracted to 3s1p1d pattern {311/2/1}

Atom   0O    basis set group =>   1
Atom   1C    basis set group =>   2
Atom   2C    basis set group =>   2
Atom   3H    basis set group =>   3
Atom   4H    basis set group =>   3
Atom   5H    basis set group =>   3
Atom   6H    basis set group =>   3


           ************************************************************
           *        Program running with 8 parallel MPI-processes     *
           *              working on a common directory               *
           ************************************************************
------------------------------------------------------------------------------
                           ORCA GTO INTEGRAL CALCULATION
                           -- RI-GTO INTEGRALS CHOSEN --
------------------------------------------------------------------------------
------------------------------------------------------------------------------
                   ___                                                        
                  /   \      - P O W E R E D   B Y -                         
                 /     \                                                     
                 |  |  |   _    _      __       _____    __    __             
                 |  |  |  | |  | |    /  \     |  _  \  |  |  /  |          
                  \  \/   | |  | |   /    \    | | | |  |  | /  /          
                 / \  \   | |__| |  /  /\  \   | |_| |  |  |/  /          
                |  |  |   |  __  | /  /__\  \  |    /   |      \           
                |  |  |   | |  | | |   __   |  |    \   |  |\   \          
                \     /   | |  | | |  |  |  |  | |\  \  |  | \   \       
                 \___/    |_|  |_| |__|  |__|  |_| \__\ |__|  \__/        
                                                                              
                      - O R C A' S   B I G   F R I E N D -                    
                                      &                                       
                       - I N T E G R A L  F E E D E R -                       
                                                                              
 v1 FN, 2020, v2 2021                                                         
------------------------------------------------------------------------------


Reading SHARK input file ox_gs_A_orca0000.SHARKINP.tmp ... ok
----------------------
SHARK INTEGRAL PACKAGE
----------------------

Number of atoms                             ...      7
Number of basis functions                   ...    117
Number of shells                            ...     49
Maximum angular momentum                    ...      3
Integral batch strategy                     ... SHARK/LIBINT Hybrid
RI-J (if used) integral strategy            ... SPLIT-RIJ (Revised 2003 algorithm where possible)
Printlevel                                  ...      1
Contraction scheme used                     ... SEGMENTED contraction
Coulomb Range Separation                    ... NOT USED
Exchange Range Separation                   ... NOT USED
Finite Nucleus Model                        ... NOT USED
Auxiliary Coulomb fitting basis             ... AVAILABLE
   # of basis functions in Aux-J            ...    191
   # of shells in Aux-J                     ...     65
   Maximum angular momentum in Aux-J        ...      4
Auxiliary J/K fitting basis                 ... NOT available
Auxiliary Correlation fitting basis         ... NOT available
Auxiliary 'external' fitting basis          ... NOT available
Integral threshold                          ...     2.500000e-11
Primitive cut-off                           ...     2.500000e-12
Primitive pair pre-selection threshold      ...     2.500000e-12

Calculating pre-screening integrals         ... done (  0.0 sec) Dimension = 49
Organizing shell pair data                  ... done (  0.0 sec)
Shell pair information
Total number of shell pairs                 ...      1225
Shell pairs after pre-screening             ...      1220
Total number of primitive shell pairs       ...      3648
Primitive shell pairs kept                  ...      3152
          la=0 lb=0:    373 shell pairs
          la=1 lb=0:    351 shell pairs
          la=1 lb=1:     91 shell pairs
          la=2 lb=0:    162 shell pairs
          la=2 lb=1:     78 shell pairs
          la=2 lb=2:     21 shell pairs
          la=3 lb=0:     81 shell pairs
          la=3 lb=1:     39 shell pairs
          la=3 lb=2:     18 shell pairs
          la=3 lb=3:      6 shell pairs

Calculating one electron integrals          ... done (  0.0 sec)
Calculating RI/J V-Matrix + Cholesky decomp.... done (  0.0 sec)
Calculating Nuclear repulsion               ... done (  0.0 sec) ENN=     75.620063065128 Eh

SHARK setup successfully completed in   0.1 seconds

Maximum memory used throughout the entire GTOINT-calculation: 14.9 MB


           ************************************************************
           *        Program running with 8 parallel MPI-processes     *
           *              working on a common directory               *
           ************************************************************
-------------------------------------------------------------------------------
                                 ORCA SCF
-------------------------------------------------------------------------------

------------
SCF SETTINGS
------------
Hamiltonian:
 Density Functional     Method          .... DFT(GTOs)
 Exchange Functional    Exchange        .... PBE
   PBE kappa parameter   XKappa         ....  0.804000
   PBE mue parameter    XMuePBE         ....  0.219520
 Correlation Functional Correlation     .... PBE
   PBE beta parameter  CBetaPBE         ....  0.066725
 LDA part of GGA corr.  LDAOpt          .... PW91-LDA
 Gradients option       PostSCFGGA      .... off
 Hybrid DFT is turned on
   Fraction HF Exchange ScalHFX         ....  0.250000
   Scaling of DF-GGA-X  ScalDFX         ....  0.750000
   Scaling of DF-GGA-C  ScalDFC         ....  1.000000
   Scaling of DF-LDA-C  ScalLDAC        ....  1.000000
   Perturbative correction              ....  0.000000
   Density functional embedding theory  .... OFF
   NL short-range parameter             ....  6.900000
 RI-approximation to the Coulomb term is turned on
   Number of AuxJ basis functions       .... 191
   RIJ-COSX (HFX calculated with COS-X)).... on


General Settings:
 Integral files         IntName         .... ox_gs_A_orca0000
 Hartree-Fock type      HFTyp           .... RHF
 Total Charge           Charge          ....    0
 Multiplicity           Mult            ....    1
 Number of Electrons    NEL             ....   24
 Basis Dimension        Dim             ....  117
 Nuclear Repulsion      ENuc            ....     75.6200630651 Eh

Convergence Acceleration:
 DIIS                   CNVDIIS         .... on
   Start iteration      DIISMaxIt       ....    12
   Startup error        DIISStart       ....  0.200000
   # of expansion vecs  DIISMaxEq       ....     5
   Bias factor          DIISBfac        ....   1.050
   Max. coefficient     DIISMaxC        ....  10.000
 Trust-Rad. Augm. Hess. CNVTRAH         .... auto
   Auto Start mean grad. ratio tolernc. ....  1.125000
   Auto Start start iteration           ....    20
   Auto Start num. interpolation iter.  ....    10
   Max. Number of Micro iterations      ....    16
   Max. Number of Macro iterations      .... Maxiter - #DIIS iter
   Number of Davidson start vectors     ....     2
   Converg. threshold I  (grad. norm)   ....   1.000e-05
   Converg. threshold II (energy diff.) ....   1.000e-08
   Grad. Scal. Fac. for Micro threshold ....   0.100
   Minimum threshold for Micro iter.    ....   0.010
   NR start threshold (gradient norm)   ....   0.001
   Initial trust radius                 ....   0.400
   Minimum AH scaling param. (alpha)    ....   1.000
   Maximum AH scaling param. (alpha)    .... 1000.000
   Orbital update algorithm             .... Taylor
   White noise on init. David. guess    .... on
   Maximum white noise                  ....   0.010
   Quad. conv. algorithm                .... NR
 SOSCF                  CNVSOSCF        .... on
   Start iteration      SOSCFMaxIt      ....   150
   Startup grad/error   SOSCFStart      ....  0.003300
 Level Shifting         CNVShift        .... on
   Level shift para.    LevelShift      ....    0.2500
   Turn off err/grad.   ShiftErr        ....    0.0010
 Zerner damping         CNVZerner       .... off
 Static damping         CNVDamp         .... on
   Fraction old density DampFac         ....    0.7000
   Max. Damping (<1)    DampMax         ....    0.9800
   Min. Damping (>=0)   DampMin         ....    0.0000
   Turn off err/grad.   DampErr         ....    0.1000
 Fernandez-Rico         CNVRico         .... off

SCF Procedure:
 Maximum # iterations   MaxIter         ....   125
 SCF integral mode      SCFMode         .... Direct
   Integral package                     .... SHARK and LIBINT hybrid scheme
 Reset frequency        DirectResetFreq ....    20
 Integral Threshold     Thresh          ....  2.500e-11 Eh
 Primitive CutOff       TCut            ....  2.500e-12 Eh

Convergence Tolerance:
 Convergence Check Mode ConvCheckMode   .... Total+1el-Energy
 Convergence forced     ConvForced      .... 0
 Energy Change          TolE            ....  1.000e-08 Eh
 1-El. energy change                    ....  1.000e-05 Eh
 Orbital Gradient       TolG            ....  1.000e-05
 Orbital Rotation angle TolX            ....  1.000e-05
 DIIS Error             TolErr          ....  5.000e-07


Diagonalization of the overlap matrix:
Smallest eigenvalue                        ... 3.670e-04
Time for diagonalization                   ...    0.003 sec
Threshold for overlap eigenvalues          ... 1.000e-08
Number of eigenvalues below threshold      ... 0
Time for construction of square roots      ...    0.001 sec
Total time needed                          ...    0.005 sec

Time for model grid setup =    0.022 sec

------------------------------
INITIAL GUESS: MODEL POTENTIAL
------------------------------
Loading Hartree-Fock densities                     ... done
Calculating cut-offs                               ... done
Initializing the effective Hamiltonian             ... done
Setting up the integral package (SHARK)            ... done
Starting the Coulomb interaction                   ... done (   0.0 sec)
Reading the grid                                   ... done
Mapping shells                                     ... done
Starting the XC term evaluation                    ... done (   0.0 sec)
  promolecular density results
     # of electrons  =     23.997390910
     EX              =    -19.540282072
     EC              =     -0.782322934
     EX+EC           =    -20.322605007
Transforming the Hamiltonian                       ... done (   0.0 sec)
Diagonalizing the Hamiltonian                      ... done (   0.0 sec)
Back transforming the eigenvectors                 ... done (   0.0 sec)
Now organizing SCF variables                       ... done
                      ------------------
                      INITIAL GUESS DONE (   0.0 sec)
                      ------------------
-------------------
DFT GRID GENERATION
-------------------

General Integration Accuracy     IntAcc      ... 4.388
Radial Grid Type                 RadialGrid  ... OptM3 with GC (2021)
Angular Grid (max. ang.)         AngularGrid ... 4 (Lebedev-302)
Angular grid pruning method      GridPruning ... 4 (adaptive)
Weight generation scheme         WeightScheme... Becke
Basis function cutoff            BFCut       ... 1.0000e-11
Integration weight cutoff        WCut        ... 1.0000e-14
Angular grids for H and He will be reduced by one unit
Partially contracted basis set               ... off
Rotationally invariant grid construction     ... off

Total number of grid points                  ...    31312
Total number of batches                      ...      494
Average number of points per batch           ...       63
Average number of grid points per atom       ...     4473
Time for grid setup =    0.113 sec

--------------------
COSX GRID GENERATION
--------------------

GRIDX 1
-------
General Integration Accuracy     IntAcc      ... 3.816
Radial Grid Type                 RadialGrid  ... OptM3 with GC (2021)
Angular Grid (max. ang.)         AngularGrid ... 1 (Lebedev-50)
Angular grid pruning method      GridPruning ... 4 (adaptive)
Weight generation scheme         WeightScheme... Becke
Basis function cutoff            BFCut       ... 1.0000e-11
Integration weight cutoff        WCut        ... 1.0000e-14
Angular grids for H and He will be reduced by one unit
Partially contracted basis set               ... on
Rotationally invariant grid construction     ... off

Total number of grid points                  ...     4031
Total number of batches                      ...       68
Average number of points per batch           ...       59
Average number of grid points per atom       ...      576
UseSFitting                                  ... on

GRIDX 2
-------
General Integration Accuracy     IntAcc      ... 4.020
Radial Grid Type                 RadialGrid  ... OptM3 with GC (2021)
Angular Grid (max. ang.)         AngularGrid ... 2 (Lebedev-110)
Angular grid pruning method      GridPruning ... 4 (adaptive)
Weight generation scheme         WeightScheme... Becke
Basis function cutoff            BFCut       ... 1.0000e-11
Integration weight cutoff        WCut        ... 1.0000e-14
Angular grids for H and He will be reduced by one unit
Partially contracted basis set               ... on
Rotationally invariant grid construction     ... off

Total number of grid points                  ...     8696
Total number of batches                      ...      141
Average number of points per batch           ...       61
Average number of grid points per atom       ...     1242
UseSFitting                                  ... on

GRIDX 3
-------
General Integration Accuracy     IntAcc      ... 4.338
Radial Grid Type                 RadialGrid  ... OptM3 with GC (2021)
Angular Grid (max. ang.)         AngularGrid ... 3 (Lebedev-194)
Angular grid pruning method      GridPruning ... 4 (adaptive)
Weight generation scheme         WeightScheme... Becke
Basis function cutoff            BFCut       ... 1.0000e-11
Integration weight cutoff        WCut        ... 1.0000e-14
Angular grids for H and He will be reduced by one unit
Partially contracted basis set               ... on
Rotationally invariant grid construction     ... off

Total number of grid points                  ...    19234
Total number of batches                      ...      303
Average number of points per batch           ...       63
Average number of grid points per atom       ...     2748
UseSFitting                                  ... on

Time for X-Grid setup             =    0.073 sec

--------------
SCF ITERATIONS
--------------
ITER       Energy         Delta-E        Max-DP      RMS-DP      [F,P]     Damp
               ***  Starting incremental Fock matrix formation  ***
  0   -153.5946357777   0.000000000000 0.03316488  0.00114274  0.1700428 0.7000
  1   -153.6233078267  -0.028672049070 0.01825607  0.00084681  0.0717457 0.7000
                               ***Turning on DIIS***
  2   -153.6349694435  -0.011661616807 0.02579967  0.00142326  0.0317079 0.0000
  3   -153.6534552042  -0.018485760701 0.01359239  0.00063764  0.0394174 0.0000
  4   -153.6573542956  -0.003899091315 0.00327018  0.00017870  0.0069914 0.0000
  5   -153.6575170569  -0.000162761290 0.00145529  0.00006639  0.0039325 0.0000
                      *** Initiating the SOSCF procedure ***
                           *** Shutting down DIIS ***
                      *** Re-Reading the Fockian *** 
                      *** Removing any level shift *** 
ITER      Energy       Delta-E        Grad      Rot      Max-DP    RMS-DP
  6   -153.65754026  -0.0000232049  0.000131  0.000131  0.000895  0.000032
               *** Restarting incremental Fock matrix formation ***
  7   -153.65753247   0.0000077911  0.000052  0.000073  0.000101  0.000004
  8   -153.65753244   0.0000000260  0.000081  0.000045  0.000070  0.000003
  9   -153.65753251  -0.0000000649  0.000007  0.000013  0.000015  0.000001
 10   -153.65753251   0.0000000012  0.000009  0.000007  0.000010  0.000000
                 **** Energy Check signals convergence ****
              ***Rediagonalizing the Fockian in SOSCF/NRSCF***

               *****************************************************
               *                     SUCCESS                       *
               *           SCF CONVERGED AFTER  11 CYCLES          *
               *****************************************************

Old exchange energy                            =     -4.990857836 Eh
New exchange energy                            =     -4.990853055 Eh
Exchange energy change after final integration =      0.000004781 Eh
Total energy after final integration           =   -153.657527730 Eh
Final COS-X integration done in                =     0.247 sec

----------------
TOTAL SCF ENERGY
----------------

Total Energy       :         -153.65752773 Eh           -4181.23390 eV

Components:
Nuclear Repulsion  :           75.62006307 Eh            2057.72653 eV
Electronic Energy  :         -229.27759080 Eh           -6238.96043 eV
One Electron Energy:         -357.84342388 Eh           -9737.41460 eV
Two Electron Energy:          128.56583308 Eh            3498.45418 eV
Max COSX asymmetry :            0.00000250 Eh               0.00007 eV

Virial components:
Potential Energy   :         -306.55519650 Eh           -8341.79099 eV
Kinetic Energy     :          152.89766877 Eh            4160.55709 eV
Virial Ratio       :            2.00496972


DFT components:
N(Alpha)           :       12.000002735082 electrons
N(Beta)            :       12.000002735082 electrons
N(Total)           :       24.000005470165 electrons
E(X)               :      -14.944286203723 Eh       
E(C)               :       -0.790965934963 Eh       
E(XC)              :      -15.735252138686 Eh       
DFET-embed. en.    :        0.000000000000 Eh       

---------------
SCF CONVERGENCE
---------------

  Last Energy change         ...   -3.0429e-09  Tolerance :   1.0000e-08
  Last MAX-Density change    ...    3.8858e-16  Tolerance :   1.0000e-07
  Last RMS-Density change    ...    1.5008e-17  Tolerance :   5.0000e-09
  Last Orbital Gradient      ...    2.8126e-07  Tolerance :   1.0000e-05
  Last Orbital Rotation      ...    5.4355e-07  Tolerance :   1.0000e-05

             **** THE GBW FILE WAS UPDATED (ox_gs_A_orca0000.gbw) ****
             **** DENSITY ox_gs_A_orca0000.scfp WAS UPDATED ****
             **** ENERGY FILE WAS UPDATED (ox_gs_A_orca0000.en.tmp) ****
             **** THE GBW FILE WAS UPDATED (ox_gs_A_orca0000.gbw) ****
             **** DENSITY ox_gs_A_orca0000.scfp WAS UPDATED ****
----------------
ORBITAL ENERGIES
----------------

  NO   OCC          E(Eh)            E(eV) 
   0   2.0000     -19.231667      -523.3203 
   1   2.0000     -10.282873      -279.8112 
   2   2.0000     -10.276178      -279.6290 
   3   2.0000      -1.127114       -30.6703 
   4   2.0000      -0.702046       -19.1036 
   5   2.0000      -0.646992       -17.6055 
   6   2.0000      -0.534230       -14.5371 
   7   2.0000      -0.502295       -13.6681 
   8   2.0000      -0.428548       -11.6614 
   9   2.0000      -0.387024       -10.5315 
  10   2.0000      -0.324663        -8.8345 
  11   2.0000      -0.295514        -8.0414 
  12   0.0000       0.053246         1.4489 
  13   0.0000       0.081384         2.2146 
  14   0.0000       0.082634         2.2486 
  15   0.0000       0.092938         2.5290 
  16   0.0000       0.109016         2.9665 
  17   0.0000       0.152744         4.1564 
  18   0.0000       0.188095         5.1183 
  19   0.0000       0.214555         5.8383 
  20   0.0000       0.267438         7.2773 
  21   0.0000       0.277395         7.5483 
  22   0.0000       0.306973         8.3532 
  23   0.0000       0.342874         9.3301 
  24   0.0000       0.348354         9.4792 
  25   0.0000       0.388816        10.5802 
  26   0.0000       0.402414        10.9502 
  27   0.0000       0.419103        11.4044 
  28   0.0000       0.447545        12.1783 
  29   0.0000       0.459567        12.5055 
  30   0.0000       0.478696        13.0260 
  31   0.0000       0.517654        14.0861 
  32   0.0000       0.541951        14.7472 
  33   0.0000       0.693887        18.8816 
  34   0.0000       0.710640        19.3375 
  35   0.0000       0.719845        19.5880 
  36   0.0000       0.826938        22.5021 
  37   0.0000       0.889839        24.2138 
  38   0.0000       0.908944        24.7336 
  39   0.0000       0.945771        25.7357 
  40   0.0000       1.022752        27.8305 
  41   0.0000       1.036490        28.2043 
  42   0.0000       1.053358        28.6633 
  43   0.0000       1.084123        29.5005 
  44   0.0000       1.142617        31.0922 
  45   0.0000       1.375685        37.4343 
  46   0.0000       1.450567        39.4719 
  47   0.0000       1.499625        40.8069 
  48   0.0000       1.513572        41.1864 
  49   0.0000       1.531552        41.6756 
  50   0.0000       1.560334        42.4589 
  51   0.0000       1.622222        44.1429 
  52   0.0000       1.659227        45.1499 
  53   0.0000       1.677787        45.6549 
  54   0.0000       1.786901        48.6240 
  55   0.0000       1.797822        48.9212 
  56   0.0000       1.842823        50.1458 
  57   0.0000       1.914067        52.0844 
  58   0.0000       1.940565        52.8055 
  59   0.0000       1.963178        53.4208 
  60   0.0000       2.096008        57.0353 
  61   0.0000       2.158635        58.7394 
  62   0.0000       2.165514        58.9266 
  63   0.0000       2.227904        60.6244 
  64   0.0000       2.258795        61.4649 
  65   0.0000       2.409847        65.5753 
  66   0.0000       2.465342        67.0854 
  67   0.0000       2.489837        67.7519 
  68   0.0000       2.497665        67.9649 
  69   0.0000       2.589102        70.4531 
  70   0.0000       2.610520        71.0359 
  71   0.0000       2.635326        71.7109 
  72   0.0000       2.692022        73.2536 
  73   0.0000       2.722292        74.0773 
  74   0.0000       2.747698        74.7687 
  75   0.0000       2.785508        75.7975 
  76   0.0000       2.876280        78.2675 
  77   0.0000       2.932760        79.8044 
  78   0.0000       2.997009        81.5528 
  79   0.0000       3.013993        82.0149 
  80   0.0000       3.068916        83.5094 
  81   0.0000       3.080307        83.8194 
  82   0.0000       3.132206        85.2317 
  83   0.0000       3.253871        88.5423 
  84   0.0000       3.311275        90.1044 
  85   0.0000       3.329316        90.5953 
  86   0.0000       3.391640        92.2912 
  87   0.0000       3.425564        93.2143 
  88   0.0000       3.563507        96.9680 
  89   0.0000       3.605343        98.1064 
  90   0.0000       3.660744        99.6139 
  91   0.0000       3.737907       101.7136 
  92   0.0000       3.875714       105.4635 
  93   0.0000       3.918468       106.6269 
  94   0.0000       4.060978       110.5048 
  95   0.0000       4.096293       111.4658 
  96   0.0000       4.255545       115.7993 
  97   0.0000       4.296417       116.9115 
  98   0.0000       4.366565       118.8203 
  99   0.0000       4.558156       124.0337 
 100   0.0000       4.656512       126.7101 
 101   0.0000       4.839630       131.6930 
 102   0.0000       5.304558       144.3444 
 103   0.0000       5.479337       149.1003 
 104   0.0000       5.752213       156.5257 
 105   0.0000       5.775505       157.1595 
 106   0.0000       5.807265       158.0237 
 107   0.0000       5.948451       161.8656 
 108   0.0000       6.086532       165.6229 
 109   0.0000       6.618787       180.1063 
 110   0.0000       6.633099       180.4958 
 111   0.0000       6.800571       185.0529 
 112   0.0000       6.966279       189.5621 
 113   0.0000       7.172045       195.1613 
 114   0.0000      22.245412       605.3284 
 115   0.0000      22.417982       610.0243 
 116   0.0000      43.887250      1194.2328 

                    ********************************
                    * MULLIKEN POPULATION ANALYSIS *
                    ********************************

-----------------------
MULLIKEN ATOMIC CHARGES
-----------------------
   0 O :   -0.299371
   1 C :   -0.083886
   2 C :   -0.061766
   3 H :    0.118591
   4 H :    0.106635
   5 H :    0.115590
   6 H :    0.104206
Sum of atomic charges:   -0.0000000

--------------------------------
MULLIKEN REDUCED ORBITAL CHARGES
--------------------------------
  0 O s       :     3.850208  s :     3.850208
      pz      :     1.815062  p :     4.400381
      px      :     1.302691
      py      :     1.282628
      dz2     :     0.006015  d :     0.046396
      dxz     :     0.002812
      dyz     :     0.007344
      dx2y2   :     0.013557
      dxy     :     0.016669
      f0      :     0.000287  f :     0.002386
      f+1     :     0.000216
      f-1     :     0.000486
      f+2     :     0.000097
      f-2     :     0.000224
      f+3     :     0.000387
      f-3     :     0.000689
  1 C s       :     3.233412  s :     3.233412
      pz      :     1.043272  p :     2.718896
      px      :     0.903311
      py      :     0.772313
      dz2     :     0.005283  d :     0.119161
      dxz     :     0.028782
      dyz     :     0.034454
      dx2y2   :     0.029690
      dxy     :     0.020953
      f0      :     0.001606  f :     0.012417
      f+1     :     0.001338
      f-1     :     0.000730
      f+2     :     0.001549
      f-2     :     0.001780
      f+3     :     0.002234
      f-3     :     0.003180
  2 C s       :     3.218196  s :     3.218196
      pz      :     1.016766  p :     2.717724
      px      :     0.918731
      py      :     0.782227
      dz2     :     0.007671  d :     0.113968
      dxz     :     0.024987
      dyz     :     0.031287
      dx2y2   :     0.027965
      dxy     :     0.022058
      f0      :     0.001732  f :     0.011879
      f+1     :     0.001272
      f-1     :     0.000803
      f+2     :     0.000893
      f-2     :     0.001950
      f+3     :     0.002236
      f-3     :     0.002993
  3 H s       :     0.860664  s :     0.860664
      pz      :     0.010204  p :     0.020745
      px      :     0.006677
      py      :     0.003864
  4 H s       :     0.876249  s :     0.876249
      pz      :     0.008882  p :     0.017116
      px      :     0.005285
      py      :     0.002949
  5 H s       :     0.860834  s :     0.860834
      pz      :     0.011417  p :     0.023575
      px      :     0.006962
      py      :     0.005196
  6 H s       :     0.876116  s :     0.876116
      pz      :     0.010962  p :     0.019678
      px      :     0.004843
      py      :     0.003873


                     *******************************
                     * LOEWDIN POPULATION ANALYSIS *
                     *******************************

----------------------
LOEWDIN ATOMIC CHARGES
----------------------
   0 O :    0.162415
   1 C :   -0.337921
   2 C :   -0.308105
   3 H :    0.115731
   4 H :    0.129109
   5 H :    0.104524
   6 H :    0.134248

-------------------------------
LOEWDIN REDUCED ORBITAL CHARGES
-------------------------------
  0 O s       :     3.357729  s :     3.357729
      pz      :     1.693016  p :     4.369511
      px      :     1.286774
      py      :     1.389720
      dz2     :     0.012022  d :     0.102713
      dxz     :     0.008839
      dyz     :     0.016236
      dx2y2   :     0.037746
      dxy     :     0.027870
      f0      :     0.000706  f :     0.007632
      f+1     :     0.000292
      f-1     :     0.000960
      f+2     :     0.000192
      f-2     :     0.001043
      f+3     :     0.001343
      f-3     :     0.003096
  1 C s       :     2.837459  s :     2.837459
      pz      :     1.038005  p :     2.917990
      px      :     1.032213
      py      :     0.847772
      dz2     :     0.051029  d :     0.504617
      dxz     :     0.140948
      dyz     :     0.097629
      dx2y2   :     0.113410
      dxy     :     0.101600
      f0      :     0.010354  f :     0.077856
      f+1     :     0.005520
      f-1     :     0.006063
      f+2     :     0.009788
      f-2     :     0.007398
      f+3     :     0.015616
      f-3     :     0.023117
  2 C s       :     2.818537  s :     2.818537
      pz      :     1.041480  p :     2.930418
      px      :     1.048893
      py      :     0.840045
      dz2     :     0.058481  d :     0.482393
      dxz     :     0.118293
      dyz     :     0.098366
      dx2y2   :     0.104902
      dxy     :     0.102351
      f0      :     0.011928  f :     0.076757
      f+1     :     0.005772
      f-1     :     0.006014
      f+2     :     0.006106
      f-2     :     0.008702
      f+3     :     0.016329
      f-3     :     0.021907
  3 H s       :     0.824751  s :     0.824751
      pz      :     0.030797  p :     0.059518
      px      :     0.017560
      py      :     0.011162
  4 H s       :     0.824818  s :     0.824818
      pz      :     0.025263  p :     0.046074
      px      :     0.012985
      py      :     0.007825
  5 H s       :     0.823006  s :     0.823006
      pz      :     0.036142  p :     0.072471
      px      :     0.019970
      py      :     0.016358
  6 H s       :     0.812620  s :     0.812620
      pz      :     0.030034  p :     0.053133
      px      :     0.012397
      py      :     0.010702


                      *****************************
                      * MAYER POPULATION ANALYSIS *
                      *****************************

  NA   - Mulliken gross atomic population
  ZA   - Total nuclear charge
  QA   - Mulliken gross atomic charge
  VA   - Mayer's total valence
  BVA  - Mayer's bonded valence
  FA   - Mayer's free valence

  ATOM       NA         ZA         QA         VA         BVA        FA
  0 O      8.2994     8.0000    -0.2994     2.0325     2.0325     0.0000
  1 C      6.0839     6.0000    -0.0839     3.9482     3.9482    -0.0000
  2 C      6.0618     6.0000    -0.0618     3.9767     3.9767    -0.0000
  3 H      0.8814     1.0000     0.1186     0.9609     0.9609     0.0000
  4 H      0.8934     1.0000     0.1066     0.9620     0.9620    -0.0000
  5 H      0.8844     1.0000     0.1156     0.9574     0.9574     0.0000
  6 H      0.8958     1.0000     0.1042     0.9639     0.9639    -0.0000

  Mayer bond orders larger than 0.100000
B(  0-O ,  1-C ) :   0.9882 B(  0-O ,  2-C ) :   1.0080 B(  1-C ,  2-C ) :   1.0541 
B(  1-C ,  3-H ) :   0.9541 B(  1-C ,  4-H ) :   0.9402 B(  2-C ,  5-H ) :   0.9515 
B(  2-C ,  6-H ) :   0.9490 

-------
TIMINGS
-------

Total SCF time: 0 days 0 hours 0 min 2 sec 

Total time                  ....       2.469 sec
Sum of individual times     ....       2.279 sec  ( 92.3%)

Fock matrix formation       ....       2.012 sec  ( 81.5%)
  Split-RI-J                ....       0.231 sec  ( 11.5% of F)
  Chain of spheres X        ....       1.369 sec  ( 68.0% of F)
  XC integration            ....       0.391 sec  ( 19.5% of F)
    Basis function eval.    ....       0.103 sec  ( 26.3% of XC)
    Density eval.           ....       0.077 sec  ( 19.6% of XC)
    XC-Functional eval.     ....       0.022 sec  (  5.5% of XC)
    XC-Potential eval.      ....       0.137 sec  ( 35.1% of XC)
Diagonalization             ....       0.015 sec  (  0.6%)
Density matrix formation    ....       0.001 sec  (  0.1%)
Population analysis         ....       0.002 sec  (  0.1%)
Initial guess               ....       0.017 sec  (  0.7%)
Orbital Transformation      ....       0.000 sec  (  0.0%)
Orbital Orthonormalization  ....       0.000 sec  (  0.0%)
DIIS solution               ....       0.012 sec  (  0.5%)
SOSCF solution              ....       0.010 sec  (  0.4%)
Grid generation             ....       0.208 sec  (  8.4%)

Maximum memory used throughout the entire SCF-calculation: 61.1 MB


-------------------------------------------------------------------------------
                          DFT DISPERSION CORRECTION                            
                                                                               
                              DFTD3 V3.1  Rev 1                                
                          USING Becke-Johnson damping                          
-------------------------------------------------------------------------------
The PBE0 functional is recognized
Active option DFTDOPT                   ...         4   

molecular C6(AA) [au] = 351.275270 


            DFT-D V3
 parameters
 s6 scaling factor         :     1.0000 
 a1 scaling factor         :     0.4145 
 s8 scaling factor         :     1.2177 
 a2 scaling factor         :     4.8593 
 ad hoc parameters k1-k3   :    16.0000     1.3333    -4.0000 

 Edisp/kcal,au: -1.512480411973  -0.002410290702 
 E6   /kcal   :  -0.991696489 
 E8   /kcal   :  -0.520783923 
 % E8         :  34.432440830 

-------------------------   ----------------
Dispersion correction           -0.002410291
-------------------------   ----------------


-------------------------   --------------------
FINAL SINGLE POINT ENERGY      -153.659938020997
-------------------------   --------------------



           ************************************************************
           *        Program running with 8 parallel MPI-processes     *
           *              working on a common directory               *
           ************************************************************
------------------------------------------------------------------------------
                         ORCA SCF GRADIENT CALCULATION
------------------------------------------------------------------------------

 ... reading COSX grid (gridx3)
Gradient of the Kohn-Sham DFT energy:
Kohn-Sham wavefunction type      ... RKS
Hartree-Fock exchange scaling    ...    0.250
Number of operators              ...    1
Number of atoms                  ...    7
Basis set dimensions             ...  117
Integral neglect threshold       ... 2.5e-11
Integral primitive cutoff        ... 2.5e-12
SHARK Integral package           ... ON

Nuc. rep. gradient       (SHARK) ... done (  0.0 sec)
HCore & Overlap gradient (SHARK) ... done (  0.0 sec)
RI-J gradient            (SHARK) ... done (  0.4 sec)
COSX-gradient                    ... done (  0.3 sec)
Exchange-correlation gradient    ... done
Dispersion correction            ... done

------------------
CARTESIAN GRADIENT
------------------

   1   O   :   -0.005101798   -0.009457718    0.013175370
   2   C   :    0.044496775    0.018960947    0.030864075
   3   C   :    0.029514500    0.018187091   -0.082503690
   4   H   :   -0.009366553    0.000543827    0.007549468
   5   H   :   -0.028309167   -0.019134564   -0.040655494
   6   H   :   -0.029171696    0.003430083    0.037919597
   7   H   :   -0.002006340   -0.012749521    0.033775820

Difference to translation invariance:
           :    0.0000557197   -0.0002198552    0.0001251459

Difference to rotation invariance:
           :    0.0003216378   -0.0000013855   -0.0002697744

Norm of the cartesian gradient     ...    0.1347714242
RMS gradient                       ...    0.0294095358
MAX gradient                       ...    0.0825036902

-------
TIMINGS
-------

Total SCF gradient time            ...        0.998 sec

One electron gradient       ....       0.010 sec  (  1.0%)
RI-J Coulomb gradient       ....       0.374 sec  ( 37.5%)
COSX gradient               ....       0.297 sec  ( 29.8%)
XC gradient                 ....       0.165 sec  ( 16.6%)

Maximum memory used throughout the entire SCFGRAD-calculation: 35.9 MB

                            ***************************************
                            *     ORCA property calculations      *
                            ***************************************

                                    ---------------------
                                    Active property flags
                                    ---------------------
   (+) Dipole Moment


------------------------------------------------------------------------------
                       ORCA ELECTRIC PROPERTIES CALCULATION
------------------------------------------------------------------------------

Dipole Moment Calculation                       ... on
Quadrupole Moment Calculation                   ... off
Polarizability Calculation                      ... off
GBWName                                         ... ox_gs_A_orca0000.gbw
Electron density                                ... ox_gs_A_orca0000.scfp
The origin for moment calculation is the CENTER OF MASS  = ( 0.095481, -0.051267  0.003211)

-------------
DIPOLE MOMENT
-------------
                                X             Y             Z
Electronic contribution:      0.23909       1.90011       0.00184
Nuclear contribution   :     -0.22216      -2.61962      -0.02519
                        -----------------------------------------
Total Dipole Moment    :      0.01693      -0.71952      -0.02335
                        -----------------------------------------
Magnitude (a.u.)       :      0.72009
Magnitude (Debye)      :      1.83033



--------------------
Rotational spectrum 
--------------------
 
Rotational constants in cm-1:     0.861966     0.744219     0.482637 
Rotational constants in MHz : 25841.087032 22311.137241 14469.095572 

 Dipole components along the rotational axes: 
x,y,z [a.u.] :     0.011754    -0.719859     0.014159 
x,y,z [Debye]:     0.029878    -1.829736     0.035990 

 

Timings for individual modules:

Sum of individual times         ...        4.282 sec (=   0.071 min)
GTO integral calculation        ...        0.375 sec (=   0.006 min)   8.8 %
SCF iterations                  ...        2.667 sec (=   0.044 min)  62.3 %
SCF Gradient evaluation         ...        1.240 sec (=   0.021 min)  29.0 %
                             ****ORCA TERMINATED NORMALLY****
TOTAL RUN TIME: 0 days 0 hours 0 minutes 4 seconds 594 msec
