
                                 *****************
                                 * O   R   C   A *
                                 *****************

                                            #,                                       
                                            ###                                      
                                            ####                                     
                                            #####                                    
                                            ######                                   
                                           ########,                                 
                                     ,,################,,,,,                         
                               ,,#################################,,                 
                          ,,##########################################,,             
                       ,#########################################, ''#####,          
                    ,#############################################,,   '####,        
                  ,##################################################,,,,####,       
                ,###########''''           ''''###############################       
              ,#####''   ,,,,##########,,,,          '''####'''          '####       
            ,##' ,,,,###########################,,,                        '##       
           ' ,,###''''                  '''############,,,                           
         ,,##''                                '''############,,,,        ,,,,,,###''
      ,#''                                            '''#######################'''  
     '                                                          ''''####''''         
             ,#######,   #######,   ,#######,      ##                                
            ,#'     '#,  ##    ##  ,#'     '#,    #''#        ######   ,####,        
            ##       ##  ##   ,#'  ##            #'  '#       #        #'  '#        
            ##       ##  #######   ##           ,######,      #####,   #    #        
            '#,     ,#'  ##    ##  '#,     ,#' ,#      #,         ##   #,  ,#        
             '#######'   ##     ##  '#######'  #'      '#     #####' # '####'        



                  #######################################################
                  #                        -***-                        #
                  #          Department of theory and spectroscopy      #
                  #    Directorship and core code : Frank Neese         #
                  #        Max Planck Institute fuer Kohlenforschung    #
                  #                Kaiser Wilhelm Platz 1               #
                  #                 D-45470 Muelheim/Ruhr               #
                  #                      Germany                        #
                  #                                                     #
                  #                  All rights reserved                #
                  #                        -***-                        #
                  #######################################################


                         Program Version 5.0.2 -  RELEASE  -


 With contributions from (in alphabetic order):
   Daniel Aravena         : Magnetic Suceptibility
   Michael Atanasov       : Ab Initio Ligand Field Theory (pilot matlab implementation)
   Alexander A. Auer      : GIAO ZORA, VPT2 properties, NMR spectrum
   Ute Becker             : Parallelization
   Giovanni Bistoni       : ED, misc. LED, open-shell LED, HFLD
   Martin Brehm           : Molecular dynamics
   Dmytro Bykov           : SCF Hessian
   Vijay G. Chilkuri      : MRCI spin determinant printing, contributions to CSF-ICE
   Dipayan Datta          : RHF DLPNO-CCSD density
   Achintya Kumar Dutta   : EOM-CC, STEOM-CC
   Dmitry Ganyushin       : Spin-Orbit,Spin-Spin,Magnetic field MRCI
   Miquel Garcia          : C-PCM and meta-GGA Hessian, CC/C-PCM, Gaussian charge scheme
   Yang Guo               : DLPNO-NEVPT2, F12-NEVPT2, CIM, IAO-localization
   Andreas Hansen         : Spin unrestricted coupled pair/coupled cluster methods
   Benjamin Helmich-Paris : MC-RPA, TRAH-SCF, COSX integrals
   Lee Huntington         : MR-EOM, pCC
   Robert Izsak           : Overlap fitted RIJCOSX, COSX-SCS-MP3, EOM
   Marcus Kettner         : VPT2
   Christian Kollmar      : KDIIS, OOCD, Brueckner-CCSD(T), CCSD density, CASPT2, CASPT2-K
   Simone Kossmann        : Meta GGA functionals, TD-DFT gradient, OOMP2, MP2 Hessian
   Martin Krupicka        : Initial AUTO-CI
   Lucas Lang             : DCDCAS
   Marvin Lechner         : AUTO-CI (C++ implementation), FIC-MRCC
   Dagmar Lenk            : GEPOL surface, SMD
   Dimitrios Liakos       : Extrapolation schemes; Compound Job, initial MDCI parallelization
   Dimitrios Manganas     : Further ROCIS development; embedding schemes
   Dimitrios Pantazis     : SARC Basis sets
   Anastasios Papadopoulos: AUTO-CI, single reference methods and gradients
   Taras Petrenko         : DFT Hessian,TD-DFT gradient, ASA, ECA, R-Raman, ABS, FL, XAS/XES, NRVS
   Peter Pinski           : DLPNO-MP2, DLPNO-MP2 Gradient
   Christoph Reimann      : Effective Core Potentials
   Marius Retegan         : Local ZFS, SOC
   Christoph Riplinger    : Optimizer, TS searches, QM/MM, DLPNO-CCSD(T), (RO)-DLPNO pert. Triples
   Tobias Risthaus        : Range-separated hybrids, TD-DFT gradient, RPA, STAB
   Michael Roemelt        : Original ROCIS implementation
   Masaaki Saitow         : Open-shell DLPNO-CCSD energy and density
   Barbara Sandhoefer     : DKH picture change effects
   Avijit Sen             : IP-ROCIS
   Kantharuban Sivalingam : CASSCF convergence, NEVPT2, FIC-MRCI
   Bernardo de Souza      : ESD, SOC TD-DFT
   Georgi Stoychev        : AutoAux, RI-MP2 NMR, DLPNO-MP2 response
   Willem Van den Heuvel  : Paramagnetic NMR
   Boris Wezisla          : Elementary symmetry handling
   Frank Wennmohs         : Technical directorship


 We gratefully acknowledge several colleagues who have allowed us to
 interface, adapt or use parts of their codes:
   Stefan Grimme, W. Hujo, H. Kruse, P. Pracht,  : VdW corrections, initial TS optimization,
                  C. Bannwarth, S. Ehlert          DFT functionals, gCP, sTDA/sTD-DF
   Ed Valeev, F. Pavosevic, A. Kumar             : LibInt (2-el integral package), F12 methods
   Garnet Chan, S. Sharma, J. Yang, R. Olivares  : DMRG
   Ulf Ekstrom                                   : XCFun DFT Library
   Mihaly Kallay                                 : mrcc  (arbitrary order and MRCC methods)
   Jiri Pittner, Ondrej Demel                    : Mk-CCSD
   Frank Weinhold                                : gennbo (NPA and NBO analysis)
   Christopher J. Cramer and Donald G. Truhlar   : smd solvation model
   Lars Goerigk                                  : TD-DFT with DH, B97 family of functionals
   V. Asgeirsson, H. Jonsson                     : NEB implementation
   FAccTs GmbH                                   : IRC, NEB, NEB-TS, DLPNO-Multilevel, CI-OPT
                                                   MM, QMMM, 2- and 3-layer-ONIOM, Crystal-QMMM,
                                                   LR-CPCM, SF, NACMEs, symmetry and pop. for TD-DFT,
                                                   nearIR, NL-DFT gradient (VV10), updates on ESD,
                                                   ML-optimized integration grids
   S Lehtola, MJT Oliveira, MAL Marques          : LibXC Library
   Liviu Ungur et al                             : ANISO software


 Your calculation uses the libint2 library for the computation of 2-el integrals
 For citations please refer to: http://libint.valeyev.net

 Your ORCA version has been built with support for libXC version: 5.1.0
 For citations please refer to: https://tddft.org/programs/libxc/

 This ORCA versions uses:
   CBLAS   interface :  Fast vector & matrix operations
   LAPACKE interface :  Fast linear algebra routines
   SCALAPACK package :  Parallel linear algebra routines
   Shared memory     :  Shared parallel matrices
   BLAS/LAPACK       :  OpenBLAS 0.3.15  USE64BITINT DYNAMIC_ARCH NO_AFFINITY SkylakeX SINGLE_THREADED
        Core in use  :  SkylakeX
   Copyright (c) 2011-2014, The OpenBLAS Project


Your calculation utilizes the atom-pairwise dispersion correction
with the Becke-Johnson damping scheme (D3BJ)
Cite in your paper:
S.Grimme, S.Ehrlich, L.Goerigk, J Comput Chem, (2011), 32, 1456–1465 
S.Grimme, J.Antony, S.Ehrlich and H.Krieg, J.Chem.Phys., 132, (2010), 154104 
   

================================================================================

----- Orbital basis set information -----
Your calculation utilizes the basis: def2-TZVP
   F. Weigend and R. Ahlrichs, Phys. Chem. Chem. Phys. 7, 3297 (2005).

----- AuxJ basis set information -----
Your calculation utilizes the auxiliary basis: def2/J
   F. Weigend, Phys. Chem. Chem. Phys. 8, 1057 (2006).

================================================================================
                                        WARNINGS
                       Please study these warnings very carefully!
================================================================================


INFO   : the flag for use of the SHARK integral package has been found!

================================================================================
                                       INPUT FILE
================================================================================
NAME = ox_gs_A_orca0015.inp
|  1> ! engrad PBE0 D3BJ def2-TZVP  
|  2> %pal nprocs 8 end
|  3> %maxcore 3000
|  4>  
|  5> *xyz 0 1 
|  6> O   0.0010502420816379523 0.8010219585647482 -0.015513227829672804
|  7> C   -0.7126812723755779 -0.4535276427183842 0.00484979824963591
|  8> C   0.7586473912718457 -0.4879315241616736 0.10461936378427301
|  9> H   -1.314123799074985 -0.7289802406393866 0.9778817636750035
| 10> H   -1.2242396353018532 -0.6370649191473923 -0.888558944536786
| 11> H   1.2632104813576541 -0.7131335785742916 -0.9161859920903137
| 12> H   1.2299647844243944 -0.6195148233291125 0.9126233009248931
| 13> *
| 14> 
| 15>                          ****END OF INPUT****
================================================================================

                     *******************************
                     * Energy+Gradient Calculation *
                     *******************************

---------------------------------
CARTESIAN COORDINATES (ANGSTROEM)
---------------------------------
  O      0.001050    0.801022   -0.015513
  C     -0.712681   -0.453528    0.004850
  C      0.758647   -0.487932    0.104619
  H     -1.314124   -0.728980    0.977882
  H     -1.224240   -0.637065   -0.888559
  H      1.263210   -0.713134   -0.916186
  H      1.229965   -0.619515    0.912623

----------------------------
CARTESIAN COORDINATES (A.U.)
----------------------------
  NO LB      ZA    FRAG     MASS         X           Y           Z
   0 O     8.0000    0    15.999    0.001985    1.513712   -0.029316
   1 C     6.0000    0    12.011   -1.346772   -0.857043    0.009165
   2 C     6.0000    0    12.011    1.433636   -0.922057    0.197702
   3 H     1.0000    0     1.008   -2.483334   -1.377573    1.847929
   4 H     1.0000    0     1.008   -2.313478   -1.203878   -1.679133
   5 H     1.0000    0     1.008    2.387122   -1.347627   -1.731341
   6 H     1.0000    0     1.008    2.324297   -1.170713    1.724608

--------------------------------
INTERNAL COORDINATES (ANGSTROEM)
--------------------------------
 O      0   0   0     0.000000000000     0.00000000     0.00000000
 C      1   0   0     1.443510315045     0.00000000     0.00000000
 C      2   1   0     1.475108684042    61.83901397     0.00000000
 H      2   1   3     1.176604628736   117.89618922   106.98794442
 H      2   1   3     1.045732791972   112.47982203   243.68211179
 H      3   2   1     1.160751244570   112.24803057   261.54535289
 H      3   2   1     0.944629351726   123.97060664   101.84980631

---------------------------
INTERNAL COORDINATES (A.U.)
---------------------------
 O      0   0   0     0.000000000000     0.00000000     0.00000000
 C      1   0   0     2.727839166925     0.00000000     0.00000000
 C      2   1   0     2.787551430608    61.83901397     0.00000000
 H      2   1   3     2.223460516216   117.89618922   106.98794442
 H      2   1   3     1.976148586088   112.47982203   243.68211179
 H      3   2   1     2.193501961846   112.24803057   261.54535289
 H      3   2   1     1.785090772826   123.97060664   101.84980631

---------------------
BASIS SET INFORMATION
---------------------
There are 3 groups of distinct atoms

 Group   1 Type O   : 11s6p2d1f contracted to 5s3p2d1f pattern {62111/411/11/1}
 Group   2 Type C   : 11s6p2d1f contracted to 5s3p2d1f pattern {62111/411/11/1}
 Group   3 Type H   : 5s1p contracted to 3s1p pattern {311/1}

Atom   0O    basis set group =>   1
Atom   1C    basis set group =>   2
Atom   2C    basis set group =>   2
Atom   3H    basis set group =>   3
Atom   4H    basis set group =>   3
Atom   5H    basis set group =>   3
Atom   6H    basis set group =>   3
---------------------------------
AUXILIARY/J BASIS SET INFORMATION
---------------------------------
There are 3 groups of distinct atoms

 Group   1 Type O   : 12s5p4d2f1g contracted to 6s4p3d1f1g pattern {711111/2111/211/2/1}
 Group   2 Type C   : 12s5p4d2f1g contracted to 6s4p3d1f1g pattern {711111/2111/211/2/1}
 Group   3 Type H   : 5s2p1d contracted to 3s1p1d pattern {311/2/1}

Atom   0O    basis set group =>   1
Atom   1C    basis set group =>   2
Atom   2C    basis set group =>   2
Atom   3H    basis set group =>   3
Atom   4H    basis set group =>   3
Atom   5H    basis set group =>   3
Atom   6H    basis set group =>   3


           ************************************************************
           *        Program running with 8 parallel MPI-processes     *
           *              working on a common directory               *
           ************************************************************
------------------------------------------------------------------------------
                           ORCA GTO INTEGRAL CALCULATION
                           -- RI-GTO INTEGRALS CHOSEN --
------------------------------------------------------------------------------
------------------------------------------------------------------------------
                   ___                                                        
                  /   \      - P O W E R E D   B Y -                         
                 /     \                                                     
                 |  |  |   _    _      __       _____    __    __             
                 |  |  |  | |  | |    /  \     |  _  \  |  |  /  |          
                  \  \/   | |  | |   /    \    | | | |  |  | /  /          
                 / \  \   | |__| |  /  /\  \   | |_| |  |  |/  /          
                |  |  |   |  __  | /  /__\  \  |    /   |      \           
                |  |  |   | |  | | |   __   |  |    \   |  |\   \          
                \     /   | |  | | |  |  |  |  | |\  \  |  | \   \       
                 \___/    |_|  |_| |__|  |__|  |_| \__\ |__|  \__/        
                                                                              
                      - O R C A' S   B I G   F R I E N D -                    
                                      &                                       
                       - I N T E G R A L  F E E D E R -                       
                                                                              
 v1 FN, 2020, v2 2021                                                         
------------------------------------------------------------------------------


Reading SHARK input file ox_gs_A_orca0015.SHARKINP.tmp ... ok
----------------------
SHARK INTEGRAL PACKAGE
----------------------

Number of atoms                             ...      7
Number of basis functions                   ...    117
Number of shells                            ...     49
Maximum angular momentum                    ...      3
Integral batch strategy                     ... SHARK/LIBINT Hybrid
RI-J (if used) integral strategy            ... SPLIT-RIJ (Revised 2003 algorithm where possible)
Printlevel                                  ...      1
Contraction scheme used                     ... SEGMENTED contraction
Coulomb Range Separation                    ... NOT USED
Exchange Range Separation                   ... NOT USED
Finite Nucleus Model                        ... NOT USED
Auxiliary Coulomb fitting basis             ... AVAILABLE
   # of basis functions in Aux-J            ...    191
   # of shells in Aux-J                     ...     65
   Maximum angular momentum in Aux-J        ...      4
Auxiliary J/K fitting basis                 ... NOT available
Auxiliary Correlation fitting basis         ... NOT available
Auxiliary 'external' fitting basis          ... NOT available
Integral threshold                          ...     2.500000e-11
Primitive cut-off                           ...     2.500000e-12
Primitive pair pre-selection threshold      ...     2.500000e-12

Calculating pre-screening integrals         ... done (  0.0 sec) Dimension = 49
Organizing shell pair data                  ... done (  0.0 sec)
Shell pair information
Total number of shell pairs                 ...      1225
Shell pairs after pre-screening             ...      1220
Total number of primitive shell pairs       ...      3648
Primitive shell pairs kept                  ...      3143
          la=0 lb=0:    373 shell pairs
          la=1 lb=0:    351 shell pairs
          la=1 lb=1:     91 shell pairs
          la=2 lb=0:    162 shell pairs
          la=2 lb=1:     78 shell pairs
          la=2 lb=2:     21 shell pairs
          la=3 lb=0:     81 shell pairs
          la=3 lb=1:     39 shell pairs
          la=3 lb=2:     18 shell pairs
          la=3 lb=3:      6 shell pairs

Calculating one electron integrals          ... done (  0.0 sec)
Calculating RI/J V-Matrix + Cholesky decomp.... done (  0.0 sec)
Calculating Nuclear repulsion               ... done (  0.0 sec) ENN=     74.253099555448 Eh

SHARK setup successfully completed in   0.1 seconds

Maximum memory used throughout the entire GTOINT-calculation: 14.9 MB


           ************************************************************
           *        Program running with 8 parallel MPI-processes     *
           *              working on a common directory               *
           ************************************************************
-------------------------------------------------------------------------------
                                 ORCA SCF
-------------------------------------------------------------------------------

------------
SCF SETTINGS
------------
Hamiltonian:
 Density Functional     Method          .... DFT(GTOs)
 Exchange Functional    Exchange        .... PBE
   PBE kappa parameter   XKappa         ....  0.804000
   PBE mue parameter    XMuePBE         ....  0.219520
 Correlation Functional Correlation     .... PBE
   PBE beta parameter  CBetaPBE         ....  0.066725
 LDA part of GGA corr.  LDAOpt          .... PW91-LDA
 Gradients option       PostSCFGGA      .... off
 Hybrid DFT is turned on
   Fraction HF Exchange ScalHFX         ....  0.250000
   Scaling of DF-GGA-X  ScalDFX         ....  0.750000
   Scaling of DF-GGA-C  ScalDFC         ....  1.000000
   Scaling of DF-LDA-C  ScalLDAC        ....  1.000000
   Perturbative correction              ....  0.000000
   Density functional embedding theory  .... OFF
   NL short-range parameter             ....  6.900000
 RI-approximation to the Coulomb term is turned on
   Number of AuxJ basis functions       .... 191
   RIJ-COSX (HFX calculated with COS-X)).... on


General Settings:
 Integral files         IntName         .... ox_gs_A_orca0015
 Hartree-Fock type      HFTyp           .... RHF
 Total Charge           Charge          ....    0
 Multiplicity           Mult            ....    1
 Number of Electrons    NEL             ....   24
 Basis Dimension        Dim             ....  117
 Nuclear Repulsion      ENuc            ....     74.2530995554 Eh

Convergence Acceleration:
 DIIS                   CNVDIIS         .... on
   Start iteration      DIISMaxIt       ....    12
   Startup error        DIISStart       ....  0.200000
   # of expansion vecs  DIISMaxEq       ....     5
   Bias factor          DIISBfac        ....   1.050
   Max. coefficient     DIISMaxC        ....  10.000
 Trust-Rad. Augm. Hess. CNVTRAH         .... auto
   Auto Start mean grad. ratio tolernc. ....  1.125000
   Auto Start start iteration           ....    20
   Auto Start num. interpolation iter.  ....    10
   Max. Number of Micro iterations      ....    16
   Max. Number of Macro iterations      .... Maxiter - #DIIS iter
   Number of Davidson start vectors     ....     2
   Converg. threshold I  (grad. norm)   ....   1.000e-05
   Converg. threshold II (energy diff.) ....   1.000e-08
   Grad. Scal. Fac. for Micro threshold ....   0.100
   Minimum threshold for Micro iter.    ....   0.010
   NR start threshold (gradient norm)   ....   0.001
   Initial trust radius                 ....   0.400
   Minimum AH scaling param. (alpha)    ....   1.000
   Maximum AH scaling param. (alpha)    .... 1000.000
   Orbital update algorithm             .... Taylor
   White noise on init. David. guess    .... on
   Maximum white noise                  ....   0.010
   Quad. conv. algorithm                .... NR
 SOSCF                  CNVSOSCF        .... on
   Start iteration      SOSCFMaxIt      ....   150
   Startup grad/error   SOSCFStart      ....  0.003300
 Level Shifting         CNVShift        .... on
   Level shift para.    LevelShift      ....    0.2500
   Turn off err/grad.   ShiftErr        ....    0.0010
 Zerner damping         CNVZerner       .... off
 Static damping         CNVDamp         .... on
   Fraction old density DampFac         ....    0.7000
   Max. Damping (<1)    DampMax         ....    0.9800
   Min. Damping (>=0)   DampMin         ....    0.0000
   Turn off err/grad.   DampErr         ....    0.1000
 Fernandez-Rico         CNVRico         .... off

SCF Procedure:
 Maximum # iterations   MaxIter         ....   125
 SCF integral mode      SCFMode         .... Direct
   Integral package                     .... SHARK and LIBINT hybrid scheme
 Reset frequency        DirectResetFreq ....    20
 Integral Threshold     Thresh          ....  2.500e-11 Eh
 Primitive CutOff       TCut            ....  2.500e-12 Eh

Convergence Tolerance:
 Convergence Check Mode ConvCheckMode   .... Total+1el-Energy
 Convergence forced     ConvForced      .... 0
 Energy Change          TolE            ....  1.000e-08 Eh
 1-El. energy change                    ....  1.000e-05 Eh
 Orbital Gradient       TolG            ....  1.000e-05
 Orbital Rotation angle TolX            ....  1.000e-05
 DIIS Error             TolErr          ....  5.000e-07


Diagonalization of the overlap matrix:
Smallest eigenvalue                        ... 4.295e-04
Time for diagonalization                   ...    0.001 sec
Threshold for overlap eigenvalues          ... 1.000e-08
Number of eigenvalues below threshold      ... 0
Time for construction of square roots      ...    0.001 sec
Total time needed                          ...    0.003 sec

Time for model grid setup =    0.023 sec

------------------------------
INITIAL GUESS: MODEL POTENTIAL
------------------------------
Loading Hartree-Fock densities                     ... done
Calculating cut-offs                               ... done
Initializing the effective Hamiltonian             ... done
Setting up the integral package (SHARK)            ... done
Starting the Coulomb interaction                   ... done (   0.0 sec)
Reading the grid                                   ... done
Mapping shells                                     ... done
Starting the XC term evaluation                    ... done (   0.0 sec)
  promolecular density results
     # of electrons  =     23.997140597
     EX              =    -19.524904074
     EC              =     -0.779245928
     EX+EC           =    -20.304150002
Transforming the Hamiltonian                       ... done (   0.0 sec)
Diagonalizing the Hamiltonian                      ... done (   0.0 sec)
Back transforming the eigenvectors                 ... done (   0.0 sec)
Now organizing SCF variables                       ... done
                      ------------------
                      INITIAL GUESS DONE (   0.0 sec)
                      ------------------
-------------------
DFT GRID GENERATION
-------------------

General Integration Accuracy     IntAcc      ... 4.388
Radial Grid Type                 RadialGrid  ... OptM3 with GC (2021)
Angular Grid (max. ang.)         AngularGrid ... 4 (Lebedev-302)
Angular grid pruning method      GridPruning ... 4 (adaptive)
Weight generation scheme         WeightScheme... Becke
Basis function cutoff            BFCut       ... 1.0000e-11
Integration weight cutoff        WCut        ... 1.0000e-14
Angular grids for H and He will be reduced by one unit
Partially contracted basis set               ... off
Rotationally invariant grid construction     ... off

Total number of grid points                  ...    31321
Total number of batches                      ...      494
Average number of points per batch           ...       63
Average number of grid points per atom       ...     4474
Time for grid setup =    0.110 sec

--------------------
COSX GRID GENERATION
--------------------

GRIDX 1
-------
General Integration Accuracy     IntAcc      ... 3.816
Radial Grid Type                 RadialGrid  ... OptM3 with GC (2021)
Angular Grid (max. ang.)         AngularGrid ... 1 (Lebedev-50)
Angular grid pruning method      GridPruning ... 4 (adaptive)
Weight generation scheme         WeightScheme... Becke
Basis function cutoff            BFCut       ... 1.0000e-11
Integration weight cutoff        WCut        ... 1.0000e-14
Angular grids for H and He will be reduced by one unit
Partially contracted basis set               ... on
Rotationally invariant grid construction     ... off

Total number of grid points                  ...     4039
Total number of batches                      ...       68
Average number of points per batch           ...       59
Average number of grid points per atom       ...      577
UseSFitting                                  ... on

GRIDX 2
-------
General Integration Accuracy     IntAcc      ... 4.020
Radial Grid Type                 RadialGrid  ... OptM3 with GC (2021)
Angular Grid (max. ang.)         AngularGrid ... 2 (Lebedev-110)
Angular grid pruning method      GridPruning ... 4 (adaptive)
Weight generation scheme         WeightScheme... Becke
Basis function cutoff            BFCut       ... 1.0000e-11
Integration weight cutoff        WCut        ... 1.0000e-14
Angular grids for H and He will be reduced by one unit
Partially contracted basis set               ... on
Rotationally invariant grid construction     ... off

Total number of grid points                  ...     8718
Total number of batches                      ...      141
Average number of points per batch           ...       61
Average number of grid points per atom       ...     1245
UseSFitting                                  ... on

GRIDX 3
-------
General Integration Accuracy     IntAcc      ... 4.338
Radial Grid Type                 RadialGrid  ... OptM3 with GC (2021)
Angular Grid (max. ang.)         AngularGrid ... 3 (Lebedev-194)
Angular grid pruning method      GridPruning ... 4 (adaptive)
Weight generation scheme         WeightScheme... Becke
Basis function cutoff            BFCut       ... 1.0000e-11
Integration weight cutoff        WCut        ... 1.0000e-14
Angular grids for H and He will be reduced by one unit
Partially contracted basis set               ... on
Rotationally invariant grid construction     ... off

Total number of grid points                  ...    19254
Total number of batches                      ...      304
Average number of points per batch           ...       63
Average number of grid points per atom       ...     2751
UseSFitting                                  ... on

Time for X-Grid setup             =    0.073 sec

--------------
SCF ITERATIONS
--------------
ITER       Energy         Delta-E        Max-DP      RMS-DP      [F,P]     Damp
               ***  Starting incremental Fock matrix formation  ***
  0   -153.5810801879   0.000000000000 0.03195509  0.00113011  0.1726216 0.7000
  1   -153.6091221708  -0.028041982854 0.01715708  0.00083581  0.0717989 0.7000
                               ***Turning on DIIS***
  2   -153.6207613708  -0.011639200057 0.02730031  0.00142712  0.0339129 0.0000
  3   -153.6396192281  -0.018857857237 0.01369470  0.00063337  0.0386447 0.0000
  4   -153.6431878276  -0.003568599563 0.00403010  0.00017178  0.0085379 0.0000
  5   -153.6433739739  -0.000186146310 0.00143461  0.00006081  0.0042360 0.0000
                      *** Initiating the SOSCF procedure ***
                           *** Shutting down DIIS ***
                      *** Re-Reading the Fockian *** 
                      *** Removing any level shift *** 
ITER      Energy       Delta-E        Grad      Rot      Max-DP    RMS-DP
  6   -153.64340122  -0.0000272464  0.000123  0.000123  0.000893  0.000028
               *** Restarting incremental Fock matrix formation ***
  7   -153.64338676   0.0000144626  0.000053  0.000065  0.000111  0.000004
  8   -153.64338671   0.0000000479  0.000095  0.000042  0.000074  0.000003
  9   -153.64338680  -0.0000000859  0.000008  0.000013  0.000016  0.000001
 10   -153.64338680  -0.0000000001  0.000009  0.000007  0.000010  0.000000
                 **** Energy Check signals convergence ****
              ***Rediagonalizing the Fockian in SOSCF/NRSCF***

               *****************************************************
               *                     SUCCESS                       *
               *           SCF CONVERGED AFTER  11 CYCLES          *
               *****************************************************

Old exchange energy                            =     -4.990856809 Eh
New exchange energy                            =     -4.990850559 Eh
Exchange energy change after final integration =      0.000006250 Eh
Total energy after final integration           =   -153.643380548 Eh
Final COS-X integration done in                =     0.257 sec

----------------
TOTAL SCF ENERGY
----------------

Total Energy       :         -153.64338055 Eh           -4180.84893 eV

Components:
Nuclear Repulsion  :           74.25309956 Eh            2020.52956 eV
Electronic Energy  :         -227.89648010 Eh           -6201.37850 eV
One Electron Energy:         -355.20710256 Eh           -9665.67665 eV
Two Electron Energy:          127.31062245 Eh            3464.29816 eV
Max COSX asymmetry :            0.00000202 Eh               0.00005 eV

Virial components:
Potential Energy   :         -306.58045358 Eh           -8342.47827 eV
Kinetic Energy     :          152.93707304 Eh            4161.62933 eV
Virial Ratio       :            2.00461829


DFT components:
N(Alpha)           :       12.000002144089 electrons
N(Beta)            :       12.000002144089 electrons
N(Total)           :       24.000004288178 electrons
E(X)               :      -14.947964034773 Eh       
E(C)               :       -0.787625128062 Eh       
E(XC)              :      -15.735589162835 Eh       
DFET-embed. en.    :        0.000000000000 Eh       

---------------
SCF CONVERGENCE
---------------

  Last Energy change         ...   -2.3505e-09  Tolerance :   1.0000e-08
  Last MAX-Density change    ...    1.2212e-15  Tolerance :   1.0000e-07
  Last RMS-Density change    ...    2.1969e-17  Tolerance :   5.0000e-09
  Last Orbital Gradient      ...    3.1792e-07  Tolerance :   1.0000e-05
  Last Orbital Rotation      ...    3.5718e-07  Tolerance :   1.0000e-05

             **** THE GBW FILE WAS UPDATED (ox_gs_A_orca0015.gbw) ****
             **** DENSITY ox_gs_A_orca0015.scfp WAS UPDATED ****
             **** ENERGY FILE WAS UPDATED (ox_gs_A_orca0015.en.tmp) ****
             **** THE GBW FILE WAS UPDATED (ox_gs_A_orca0015.gbw) ****
             **** DENSITY ox_gs_A_orca0015.scfp WAS UPDATED ****
----------------
ORBITAL ENERGIES
----------------

  NO   OCC          E(Eh)            E(eV) 
   0   2.0000     -19.221825      -523.0524 
   1   2.0000     -10.282343      -279.7968 
   2   2.0000     -10.273706      -279.5617 
   3   2.0000      -1.079812       -29.3832 
   4   2.0000      -0.711644       -19.3648 
   5   2.0000      -0.657993       -17.9049 
   6   2.0000      -0.526456       -14.3256 
   7   2.0000      -0.499095       -13.5811 
   8   2.0000      -0.409714       -11.1489 
   9   2.0000      -0.391224       -10.6458 
  10   2.0000      -0.332737        -9.0542 
  11   2.0000      -0.288914        -7.8617 
  12   0.0000       0.059057         1.6070 
  13   0.0000       0.064880         1.7655 
  14   0.0000       0.080466         2.1896 
  15   0.0000       0.086751         2.3606 
  16   0.0000       0.108980         2.9655 
  17   0.0000       0.151691         4.1277 
  18   0.0000       0.190876         5.1940 
  19   0.0000       0.207780         5.6540 
  20   0.0000       0.266018         7.2387 
  21   0.0000       0.270989         7.3740 
  22   0.0000       0.293017         7.9734 
  23   0.0000       0.312374         8.5001 
  24   0.0000       0.392398        10.6777 
  25   0.0000       0.404120        10.9967 
  26   0.0000       0.406806        11.0698 
  27   0.0000       0.420907        11.4535 
  28   0.0000       0.438806        11.9405 
  29   0.0000       0.464047        12.6274 
  30   0.0000       0.493384        13.4257 
  31   0.0000       0.524234        14.2651 
  32   0.0000       0.562683        15.3114 
  33   0.0000       0.690356        18.7856 
  34   0.0000       0.709387        19.3034 
  35   0.0000       0.726988        19.7824 
  36   0.0000       0.821292        22.3485 
  37   0.0000       0.856426        23.3045 
  38   0.0000       0.891280        24.2530 
  39   0.0000       0.933674        25.4066 
  40   0.0000       1.009524        27.4706 
  41   0.0000       1.028221        27.9793 
  42   0.0000       1.060979        28.8707 
  43   0.0000       1.083019        29.4705 
  44   0.0000       1.163643        31.6643 
  45   0.0000       1.354081        36.8464 
  46   0.0000       1.462645        39.8006 
  47   0.0000       1.497017        40.7359 
  48   0.0000       1.507003        41.0076 
  49   0.0000       1.516541        41.2672 
  50   0.0000       1.574190        42.8359 
  51   0.0000       1.632348        44.4184 
  52   0.0000       1.652773        44.9742 
  53   0.0000       1.696062        46.1522 
  54   0.0000       1.779095        48.4116 
  55   0.0000       1.834446        49.9178 
  56   0.0000       1.856147        50.5083 
  57   0.0000       1.875786        51.0427 
  58   0.0000       1.905974        51.8642 
  59   0.0000       1.950578        53.0779 
  60   0.0000       2.134693        58.0879 
  61   0.0000       2.167570        58.9826 
  62   0.0000       2.204811        59.9959 
  63   0.0000       2.216196        60.3058 
  64   0.0000       2.264525        61.6208 
  65   0.0000       2.410902        65.6040 
  66   0.0000       2.434795        66.2541 
  67   0.0000       2.480052        67.4856 
  68   0.0000       2.502981        68.1096 
  69   0.0000       2.578124        70.1543 
  70   0.0000       2.659783        72.3764 
  71   0.0000       2.668817        72.6222 
  72   0.0000       2.681621        72.9706 
  73   0.0000       2.730894        74.3114 
  74   0.0000       2.739885        74.5561 
  75   0.0000       2.815213        76.6058 
  76   0.0000       2.885202        78.5103 
  77   0.0000       2.948951        80.2450 
  78   0.0000       2.986237        81.2596 
  79   0.0000       3.003776        81.7369 
  80   0.0000       3.055524        83.1450 
  81   0.0000       3.103716        84.4564 
  82   0.0000       3.141735        85.4910 
  83   0.0000       3.231767        87.9408 
  84   0.0000       3.272803        89.0575 
  85   0.0000       3.330757        90.6345 
  86   0.0000       3.381152        92.0058 
  87   0.0000       3.404882        92.6515 
  88   0.0000       3.555830        96.7591 
  89   0.0000       3.579264        97.3967 
  90   0.0000       3.652735        99.3960 
  91   0.0000       3.710689       100.9730 
  92   0.0000       3.874276       105.4244 
  93   0.0000       4.010039       109.1187 
  94   0.0000       4.084910       111.1561 
  95   0.0000       4.099753       111.5600 
  96   0.0000       4.234880       115.2370 
  97   0.0000       4.321612       117.5971 
  98   0.0000       4.404963       119.8651 
  99   0.0000       4.611623       125.4886 
 100   0.0000       4.767560       129.7319 
 101   0.0000       4.850269       131.9825 
 102   0.0000       5.275849       143.5631 
 103   0.0000       5.415396       147.3604 
 104   0.0000       5.632956       153.2805 
 105   0.0000       5.701893       155.1564 
 106   0.0000       5.727292       155.8475 
 107   0.0000       5.829280       158.6228 
 108   0.0000       5.992905       163.0752 
 109   0.0000       6.571614       178.8227 
 110   0.0000       6.601074       179.6243 
 111   0.0000       6.771910       184.2730 
 112   0.0000       6.961436       189.4303 
 113   0.0000       7.179614       195.3672 
 114   0.0000      22.272265       606.0591 
 115   0.0000      22.386107       609.1569 
 116   0.0000      43.825649      1192.5565 

                    ********************************
                    * MULLIKEN POPULATION ANALYSIS *
                    ********************************

-----------------------
MULLIKEN ATOMIC CHARGES
-----------------------
   0 O :   -0.322545
   1 C :   -0.061321
   2 C :   -0.094221
   3 H :    0.105665
   4 H :    0.122400
   5 H :    0.115630
   6 H :    0.134392
Sum of atomic charges:   -0.0000000

--------------------------------
MULLIKEN REDUCED ORBITAL CHARGES
--------------------------------
  0 O s       :     3.868266  s :     3.868266
      pz      :     1.853776  p :     4.413779
      px      :     1.327750
      py      :     1.232253
      dz2     :     0.005426  d :     0.038556
      dxz     :     0.002233
      dyz     :     0.005946
      dx2y2   :     0.011080
      dxy     :     0.013872
      f0      :     0.000221  f :     0.001944
      f+1     :     0.000170
      f-1     :     0.000435
      f+2     :     0.000082
      f-2     :     0.000174
      f+3     :     0.000361
      f-3     :     0.000500
  1 C s       :     3.231555  s :     3.231555
      pz      :     1.037308  p :     2.705964
      px      :     0.900803
      py      :     0.767853
      dz2     :     0.005842  d :     0.112522
      dxz     :     0.025870
      dyz     :     0.030829
      dx2y2   :     0.028663
      dxy     :     0.021319
      f0      :     0.001459  f :     0.011280
      f+1     :     0.001407
      f-1     :     0.000617
      f+2     :     0.001370
      f-2     :     0.001539
      f+3     :     0.001966
      f-3     :     0.002922
  2 C s       :     3.232345  s :     3.232345
      pz      :     1.047430  p :     2.748097
      px      :     0.920396
      py      :     0.780271
      dz2     :     0.008327  d :     0.103204
      dxz     :     0.023623
      dyz     :     0.026157
      dx2y2   :     0.025868
      dxy     :     0.019230
      f0      :     0.001455  f :     0.010576
      f+1     :     0.001458
      f-1     :     0.000541
      f+2     :     0.001214
      f-2     :     0.001354
      f+3     :     0.001993
      f-3     :     0.002560
  3 H s       :     0.876313  s :     0.876313
      pz      :     0.009309  p :     0.018021
      px      :     0.005652
      py      :     0.003060
  4 H s       :     0.855005  s :     0.855005
      pz      :     0.011349  p :     0.022595
      px      :     0.006874
      py      :     0.004372
  5 H s       :     0.865533  s :     0.865533
      pz      :     0.010579  p :     0.018837
      px      :     0.004884
      py      :     0.003374
  6 H s       :     0.840689  s :     0.840689
      pz      :     0.011211  p :     0.024919
      px      :     0.008040
      py      :     0.005667


                     *******************************
                     * LOEWDIN POPULATION ANALYSIS *
                     *******************************

----------------------
LOEWDIN ATOMIC CHARGES
----------------------
   0 O :    0.074345
   1 C :   -0.296535
   2 C :   -0.224230
   3 H :    0.130412
   4 H :    0.105072
   5 H :    0.139222
   6 H :    0.071714

-------------------------------
LOEWDIN REDUCED ORBITAL CHARGES
-------------------------------
  0 O s       :     3.430222  s :     3.430222
      pz      :     1.751076  p :     4.408683
      px      :     1.317390
      py      :     1.340217
      dz2     :     0.011092  d :     0.081248
      dxz     :     0.006454
      dyz     :     0.012644
      dx2y2   :     0.028099
      dxy     :     0.022959
      f0      :     0.000500  f :     0.005502
      f+1     :     0.000216
      f-1     :     0.000834
      f+2     :     0.000169
      f-2     :     0.000752
      f+3     :     0.001048
      f-3     :     0.001984
  1 C s       :     2.836454  s :     2.836454
      pz      :     1.050777  p :     2.909878
      px      :     1.030992
      py      :     0.828110
      dz2     :     0.052989  d :     0.480235
      dxz     :     0.130352
      dyz     :     0.085977
      dx2y2   :     0.108969
      dxy     :     0.101948
      f0      :     0.009133  f :     0.069969
      f+1     :     0.005604
      f-1     :     0.005667
      f+2     :     0.008394
      f-2     :     0.006532
      f+3     :     0.014765
      f-3     :     0.019872
  2 C s       :     2.824720  s :     2.824720
      pz      :     1.061165  p :     2.913125
      px      :     1.041276
      py      :     0.810684
      dz2     :     0.054826  d :     0.424627
      dxz     :     0.117580
      dyz     :     0.068544
      dx2y2   :     0.096320
      dxy     :     0.087357
      f0      :     0.008436  f :     0.061757
      f+1     :     0.005792
      f-1     :     0.005270
      f+2     :     0.007220
      f-2     :     0.005122
      f+3     :     0.013160
      f-3     :     0.016757
  3 H s       :     0.820769  s :     0.820769
      pz      :     0.026416  p :     0.048818
      px      :     0.014038
      py      :     0.008364
  4 H s       :     0.825993  s :     0.825993
      pz      :     0.035955  p :     0.068936
      px      :     0.019340
      py      :     0.013640
  5 H s       :     0.810067  s :     0.810067
      pz      :     0.028948  p :     0.050711
      px      :     0.012581
      py      :     0.009182
  6 H s       :     0.839623  s :     0.839623
      pz      :     0.041912  p :     0.088663
      px      :     0.026835
      py      :     0.019916


                      *****************************
                      * MAYER POPULATION ANALYSIS *
                      *****************************

  NA   - Mulliken gross atomic population
  ZA   - Total nuclear charge
  QA   - Mulliken gross atomic charge
  VA   - Mayer's total valence
  BVA  - Mayer's bonded valence
  FA   - Mayer's free valence

  ATOM       NA         ZA         QA         VA         BVA        FA
  0 O      8.3225     8.0000    -0.3225     1.9856     1.9856    -0.0000
  1 C      6.0613     6.0000    -0.0613     3.9758     3.9758     0.0000
  2 C      6.0942     6.0000    -0.0942     3.9751     3.9751    -0.0000
  3 H      0.8943     1.0000     0.1057     0.9603     0.9603    -0.0000
  4 H      0.8776     1.0000     0.1224     0.9583     0.9583    -0.0000
  5 H      0.8844     1.0000     0.1156     0.9655     0.9655    -0.0000
  6 H      0.8656     1.0000     0.1344     0.9576     0.9576     0.0000

  Mayer bond orders larger than 0.100000
B(  0-O ,  1-C ) :   0.9995 B(  0-O ,  2-C ) :   0.9702 B(  1-C ,  2-C ) :   1.0704 
B(  1-C ,  3-H ) :   0.9403 B(  1-C ,  4-H ) :   0.9559 B(  2-C ,  5-H ) :   0.9549 
B(  2-C ,  6-H ) :   0.9623 

-------
TIMINGS
-------

Total SCF time: 0 days 0 hours 0 min 2 sec 

Total time                  ....       2.516 sec
Sum of individual times     ....       2.332 sec  ( 92.7%)

Fock matrix formation       ....       2.065 sec  ( 82.1%)
  Split-RI-J                ....       0.231 sec  ( 11.2% of F)
  Chain of spheres X        ....       1.417 sec  ( 68.6% of F)
  XC integration            ....       0.395 sec  ( 19.1% of F)
    Basis function eval.    ....       0.105 sec  ( 26.6% of XC)
    Density eval.           ....       0.079 sec  ( 19.9% of XC)
    XC-Functional eval.     ....       0.022 sec  (  5.7% of XC)
    XC-Potential eval.      ....       0.138 sec  ( 34.8% of XC)
Diagonalization             ....       0.015 sec  (  0.6%)
Density matrix formation    ....       0.002 sec  (  0.1%)
Population analysis         ....       0.003 sec  (  0.1%)
Initial guess               ....       0.017 sec  (  0.7%)
Orbital Transformation      ....       0.000 sec  (  0.0%)
Orbital Orthonormalization  ....       0.000 sec  (  0.0%)
DIIS solution               ....       0.013 sec  (  0.5%)
SOSCF solution              ....       0.011 sec  (  0.4%)
Grid generation             ....       0.206 sec  (  8.2%)

Maximum memory used throughout the entire SCF-calculation: 61.0 MB


-------------------------------------------------------------------------------
                          DFT DISPERSION CORRECTION                            
                                                                               
                              DFTD3 V3.1  Rev 1                                
                          USING Becke-Johnson damping                          
-------------------------------------------------------------------------------
The PBE0 functional is recognized
Active option DFTDOPT                   ...         4   

molecular C6(AA) [au] = 351.289732 


            DFT-D V3
 parameters
 s6 scaling factor         :     1.0000 
 a1 scaling factor         :     0.4145 
 s8 scaling factor         :     1.2177 
 a2 scaling factor         :     4.8593 
 ad hoc parameters k1-k3   :    16.0000     1.3333    -4.0000 

 Edisp/kcal,au: -1.511650954512  -0.002408968877 
 E6   /kcal   :  -0.991073800 
 E8   /kcal   :  -0.520577154 
 % E8         :  34.437655896 

-------------------------   ----------------
Dispersion correction           -0.002408969
-------------------------   ----------------


-------------------------   --------------------
FINAL SINGLE POINT ENERGY      -153.645789517251
-------------------------   --------------------



           ************************************************************
           *        Program running with 8 parallel MPI-processes     *
           *              working on a common directory               *
           ************************************************************
------------------------------------------------------------------------------
                         ORCA SCF GRADIENT CALCULATION
------------------------------------------------------------------------------

 ... reading COSX grid (gridx3)
Gradient of the Kohn-Sham DFT energy:
Kohn-Sham wavefunction type      ... RKS
Hartree-Fock exchange scaling    ...    0.250
Number of operators              ...    1
Number of atoms                  ...    7
Basis set dimensions             ...  117
Integral neglect threshold       ... 2.5e-11
Integral primitive cutoff        ... 2.5e-12
SHARK Integral package           ... ON

Nuc. rep. gradient       (SHARK) ... done (  0.0 sec)
HCore & Overlap gradient (SHARK) ... done (  0.0 sec)
RI-J gradient            (SHARK) ... done (  0.1 sec)
COSX-gradient                    ... done (  0.3 sec)
Exchange-correlation gradient    ... done
Dispersion correction            ... done

------------------
CARTESIAN GRADIENT
------------------

   1   O   :   -0.006315982    0.042491351   -0.014931702
   2   C   :   -0.008490961   -0.011325960   -0.068544119
   3   C   :    0.084508799   -0.042296383    0.185202722
   4   H   :   -0.020918686   -0.016361183    0.036265032
   5   H   :    0.011342098    0.011951754    0.025721415
   6   H   :    0.008929178   -0.004925215   -0.041061443
   7   H   :   -0.068930104    0.020407045   -0.122789101

Difference to translation invariance:
           :    0.0001243418   -0.0000585920   -0.0001371963

Difference to rotation invariance:
           :   -0.0001682730   -0.0000389858   -0.0002660041

Norm of the cartesian gradient     ...    0.2742012269
RMS gradient                       ...    0.0598356132
MAX gradient                       ...    0.1852027224

-------
TIMINGS
-------

Total SCF gradient time            ...        0.688 sec

One electron gradient       ....       0.010 sec  (  1.4%)
RI-J Coulomb gradient       ....       0.077 sec  ( 11.2%)
COSX gradient               ....       0.307 sec  ( 44.6%)
XC gradient                 ....       0.156 sec  ( 22.6%)

Maximum memory used throughout the entire SCFGRAD-calculation: 35.9 MB

                            ***************************************
                            *     ORCA property calculations      *
                            ***************************************

                                    ---------------------
                                    Active property flags
                                    ---------------------
   (+) Dipole Moment


------------------------------------------------------------------------------
                       ORCA ELECTRIC PROPERTIES CALCULATION
------------------------------------------------------------------------------

Dipole Moment Calculation                       ... on
Quadrupole Moment Calculation                   ... off
Polarizability Calculation                      ... off
GBWName                                         ... ox_gs_A_orca0015.gbw
Electron density                                ... ox_gs_A_orca0015.scfp
The origin for moment calculation is the CENTER OF MASS  = ( 0.022450, -0.052016  0.049463)

-------------
DIPOLE MOMENT
-------------
                                X             Y             Z
Electronic contribution:      0.11387       1.61021       0.05307
Nuclear contribution   :     -0.08714      -2.41630      -0.01839
                        -----------------------------------------
Total Dipole Moment    :      0.02674      -0.80609       0.03469
                        -----------------------------------------
Magnitude (a.u.)       :      0.80728
Magnitude (Debye)      :      2.05195



--------------------
Rotational spectrum 
--------------------
 
Rotational constants in cm-1:     0.810013     0.732639     0.457122 
Rotational constants in MHz : 24283.590344 21963.950001 13704.177292 

 Dipole components along the rotational axes: 
x,y,z [a.u.] :    -0.214255    -0.778180    -0.015367 
x,y,z [Debye]:    -0.544593    -1.977976    -0.039061 

 

Timings for individual modules:

Sum of individual times         ...        3.963 sec (=   0.066 min)
GTO integral calculation        ...        0.302 sec (=   0.005 min)   7.6 %
SCF iterations                  ...        2.714 sec (=   0.045 min)  68.5 %
SCF Gradient evaluation         ...        0.946 sec (=   0.016 min)  23.9 %
                             ****ORCA TERMINATED NORMALLY****
TOTAL RUN TIME: 0 days 0 hours 0 minutes 4 seconds 242 msec
