
                                 *****************
                                 * O   R   C   A *
                                 *****************

                                            #,                                       
                                            ###                                      
                                            ####                                     
                                            #####                                    
                                            ######                                   
                                           ########,                                 
                                     ,,################,,,,,                         
                               ,,#################################,,                 
                          ,,##########################################,,             
                       ,#########################################, ''#####,          
                    ,#############################################,,   '####,        
                  ,##################################################,,,,####,       
                ,###########''''           ''''###############################       
              ,#####''   ,,,,##########,,,,          '''####'''          '####       
            ,##' ,,,,###########################,,,                        '##       
           ' ,,###''''                  '''############,,,                           
         ,,##''                                '''############,,,,        ,,,,,,###''
      ,#''                                            '''#######################'''  
     '                                                          ''''####''''         
             ,#######,   #######,   ,#######,      ##                                
            ,#'     '#,  ##    ##  ,#'     '#,    #''#        ######   ,####,        
            ##       ##  ##   ,#'  ##            #'  '#       #        #'  '#        
            ##       ##  #######   ##           ,######,      #####,   #    #        
            '#,     ,#'  ##    ##  '#,     ,#' ,#      #,         ##   #,  ,#        
             '#######'   ##     ##  '#######'  #'      '#     #####' # '####'        



                  #######################################################
                  #                        -***-                        #
                  #          Department of theory and spectroscopy      #
                  #    Directorship and core code : Frank Neese         #
                  #        Max Planck Institute fuer Kohlenforschung    #
                  #                Kaiser Wilhelm Platz 1               #
                  #                 D-45470 Muelheim/Ruhr               #
                  #                      Germany                        #
                  #                                                     #
                  #                  All rights reserved                #
                  #                        -***-                        #
                  #######################################################


                         Program Version 5.0.2 -  RELEASE  -


 With contributions from (in alphabetic order):
   Daniel Aravena         : Magnetic Suceptibility
   Michael Atanasov       : Ab Initio Ligand Field Theory (pilot matlab implementation)
   Alexander A. Auer      : GIAO ZORA, VPT2 properties, NMR spectrum
   Ute Becker             : Parallelization
   Giovanni Bistoni       : ED, misc. LED, open-shell LED, HFLD
   Martin Brehm           : Molecular dynamics
   Dmytro Bykov           : SCF Hessian
   Vijay G. Chilkuri      : MRCI spin determinant printing, contributions to CSF-ICE
   Dipayan Datta          : RHF DLPNO-CCSD density
   Achintya Kumar Dutta   : EOM-CC, STEOM-CC
   Dmitry Ganyushin       : Spin-Orbit,Spin-Spin,Magnetic field MRCI
   Miquel Garcia          : C-PCM and meta-GGA Hessian, CC/C-PCM, Gaussian charge scheme
   Yang Guo               : DLPNO-NEVPT2, F12-NEVPT2, CIM, IAO-localization
   Andreas Hansen         : Spin unrestricted coupled pair/coupled cluster methods
   Benjamin Helmich-Paris : MC-RPA, TRAH-SCF, COSX integrals
   Lee Huntington         : MR-EOM, pCC
   Robert Izsak           : Overlap fitted RIJCOSX, COSX-SCS-MP3, EOM
   Marcus Kettner         : VPT2
   Christian Kollmar      : KDIIS, OOCD, Brueckner-CCSD(T), CCSD density, CASPT2, CASPT2-K
   Simone Kossmann        : Meta GGA functionals, TD-DFT gradient, OOMP2, MP2 Hessian
   Martin Krupicka        : Initial AUTO-CI
   Lucas Lang             : DCDCAS
   Marvin Lechner         : AUTO-CI (C++ implementation), FIC-MRCC
   Dagmar Lenk            : GEPOL surface, SMD
   Dimitrios Liakos       : Extrapolation schemes; Compound Job, initial MDCI parallelization
   Dimitrios Manganas     : Further ROCIS development; embedding schemes
   Dimitrios Pantazis     : SARC Basis sets
   Anastasios Papadopoulos: AUTO-CI, single reference methods and gradients
   Taras Petrenko         : DFT Hessian,TD-DFT gradient, ASA, ECA, R-Raman, ABS, FL, XAS/XES, NRVS
   Peter Pinski           : DLPNO-MP2, DLPNO-MP2 Gradient
   Christoph Reimann      : Effective Core Potentials
   Marius Retegan         : Local ZFS, SOC
   Christoph Riplinger    : Optimizer, TS searches, QM/MM, DLPNO-CCSD(T), (RO)-DLPNO pert. Triples
   Tobias Risthaus        : Range-separated hybrids, TD-DFT gradient, RPA, STAB
   Michael Roemelt        : Original ROCIS implementation
   Masaaki Saitow         : Open-shell DLPNO-CCSD energy and density
   Barbara Sandhoefer     : DKH picture change effects
   Avijit Sen             : IP-ROCIS
   Kantharuban Sivalingam : CASSCF convergence, NEVPT2, FIC-MRCI
   Bernardo de Souza      : ESD, SOC TD-DFT
   Georgi Stoychev        : AutoAux, RI-MP2 NMR, DLPNO-MP2 response
   Willem Van den Heuvel  : Paramagnetic NMR
   Boris Wezisla          : Elementary symmetry handling
   Frank Wennmohs         : Technical directorship


 We gratefully acknowledge several colleagues who have allowed us to
 interface, adapt or use parts of their codes:
   Stefan Grimme, W. Hujo, H. Kruse, P. Pracht,  : VdW corrections, initial TS optimization,
                  C. Bannwarth, S. Ehlert          DFT functionals, gCP, sTDA/sTD-DF
   Ed Valeev, F. Pavosevic, A. Kumar             : LibInt (2-el integral package), F12 methods
   Garnet Chan, S. Sharma, J. Yang, R. Olivares  : DMRG
   Ulf Ekstrom                                   : XCFun DFT Library
   Mihaly Kallay                                 : mrcc  (arbitrary order and MRCC methods)
   Jiri Pittner, Ondrej Demel                    : Mk-CCSD
   Frank Weinhold                                : gennbo (NPA and NBO analysis)
   Christopher J. Cramer and Donald G. Truhlar   : smd solvation model
   Lars Goerigk                                  : TD-DFT with DH, B97 family of functionals
   V. Asgeirsson, H. Jonsson                     : NEB implementation
   FAccTs GmbH                                   : IRC, NEB, NEB-TS, DLPNO-Multilevel, CI-OPT
                                                   MM, QMMM, 2- and 3-layer-ONIOM, Crystal-QMMM,
                                                   LR-CPCM, SF, NACMEs, symmetry and pop. for TD-DFT,
                                                   nearIR, NL-DFT gradient (VV10), updates on ESD,
                                                   ML-optimized integration grids
   S Lehtola, MJT Oliveira, MAL Marques          : LibXC Library
   Liviu Ungur et al                             : ANISO software


 Your calculation uses the libint2 library for the computation of 2-el integrals
 For citations please refer to: http://libint.valeyev.net

 Your ORCA version has been built with support for libXC version: 5.1.0
 For citations please refer to: https://tddft.org/programs/libxc/

 This ORCA versions uses:
   CBLAS   interface :  Fast vector & matrix operations
   LAPACKE interface :  Fast linear algebra routines
   SCALAPACK package :  Parallel linear algebra routines
   Shared memory     :  Shared parallel matrices
   BLAS/LAPACK       :  OpenBLAS 0.3.15  USE64BITINT DYNAMIC_ARCH NO_AFFINITY SkylakeX SINGLE_THREADED
        Core in use  :  SkylakeX
   Copyright (c) 2011-2014, The OpenBLAS Project


Your calculation utilizes the atom-pairwise dispersion correction
with the Becke-Johnson damping scheme (D3BJ)
Cite in your paper:
S.Grimme, S.Ehrlich, L.Goerigk, J Comput Chem, (2011), 32, 1456–1465 
S.Grimme, J.Antony, S.Ehrlich and H.Krieg, J.Chem.Phys., 132, (2010), 154104 
   

================================================================================

----- Orbital basis set information -----
Your calculation utilizes the basis: def2-TZVP
   F. Weigend and R. Ahlrichs, Phys. Chem. Chem. Phys. 7, 3297 (2005).

----- AuxJ basis set information -----
Your calculation utilizes the auxiliary basis: def2/J
   F. Weigend, Phys. Chem. Chem. Phys. 8, 1057 (2006).

================================================================================
                                        WARNINGS
                       Please study these warnings very carefully!
================================================================================


INFO   : the flag for use of the SHARK integral package has been found!

================================================================================
                                       INPUT FILE
================================================================================
NAME = ox_gs_A_orca0021.inp
|  1> ! engrad PBE0 D3BJ def2-TZVP  
|  2> %pal nprocs 8 end
|  3> %maxcore 3000
|  4>  
|  5> *xyz 0 1 
|  6> O   -0.0016346874047046558 0.6635522049980063 -0.00445589197563942
|  7> C   -0.7941130650252426 -0.4135368625584981 0.018329912304842415
|  8> C   0.6818955506836322 -0.4727138358668347 -0.05296067609444758
|  9> H   -1.2669568848636585 -0.620513693974938 0.8706899176832228
| 10> H   -1.2386204442241078 -0.6947837909186221 -0.9596198616131172
| 11> H   1.258471302002272 -0.7200329761209687 -0.9476586852673591
| 12> H   1.2039289753705575 -0.5700345533541805 0.9217393475985864
| 13> *
| 14> 
| 15>                          ****END OF INPUT****
================================================================================

                     *******************************
                     * Energy+Gradient Calculation *
                     *******************************

---------------------------------
CARTESIAN COORDINATES (ANGSTROEM)
---------------------------------
  O     -0.001635    0.663552   -0.004456
  C     -0.794113   -0.413537    0.018330
  C      0.681896   -0.472714   -0.052961
  H     -1.266957   -0.620514    0.870690
  H     -1.238620   -0.694784   -0.959620
  H      1.258471   -0.720033   -0.947659
  H      1.203929   -0.570035    0.921739

----------------------------
CARTESIAN COORDINATES (A.U.)
----------------------------
  NO LB      ZA    FRAG     MASS         X           Y           Z
   0 O     8.0000    0    15.999   -0.003089    1.253932   -0.008420
   1 C     6.0000    0    12.011   -1.500656   -0.781471    0.034639
   2 C     6.0000    0    12.011    1.288596   -0.893300   -0.100081
   3 H     1.0000    0     1.008   -2.394202   -1.172601    1.645365
   4 H     1.0000    0     1.008   -2.340653   -1.312951   -1.813419
   5 H     1.0000    0     1.008    2.378166   -1.360665   -1.790815
   6 H     1.0000    0     1.008    2.275096   -1.077209    1.741835

--------------------------------
INTERNAL COORDINATES (ANGSTROEM)
--------------------------------
 O      0   0   0     0.000000000000     0.00000000     0.00000000
 C      1   0   0     1.337408700182     0.00000000     0.00000000
 C      1   2   0     1.326901208111    67.43155668     0.00000000
 H      2   1   3     0.996462877116   117.58293443   109.67360665
 H      2   1   3     1.110437933961   115.22466006   261.69352600
 H      3   1   2     1.092744655335   119.70578219   114.64915891
 H      3   1   2     1.109968627813   106.57414620   250.00822871

---------------------------
INTERNAL COORDINATES (A.U.)
---------------------------
 O      0   0   0     0.000000000000     0.00000000     0.00000000
 C      1   0   0     2.527336172468     0.00000000     0.00000000
 C      1   2   0     2.507479890099    67.43155668     0.00000000
 H      2   1   3     1.883041940369   117.58293443   109.67360665
 H      2   1   3     2.098423583904   115.22466006   261.69352600
 H      3   1   2     2.064988132889   119.70578219   114.64915891
 H      3   1   2     2.097536723812   106.57414620   250.00822871

---------------------
BASIS SET INFORMATION
---------------------
There are 3 groups of distinct atoms

 Group   1 Type O   : 11s6p2d1f contracted to 5s3p2d1f pattern {62111/411/11/1}
 Group   2 Type C   : 11s6p2d1f contracted to 5s3p2d1f pattern {62111/411/11/1}
 Group   3 Type H   : 5s1p contracted to 3s1p pattern {311/1}

Atom   0O    basis set group =>   1
Atom   1C    basis set group =>   2
Atom   2C    basis set group =>   2
Atom   3H    basis set group =>   3
Atom   4H    basis set group =>   3
Atom   5H    basis set group =>   3
Atom   6H    basis set group =>   3
---------------------------------
AUXILIARY/J BASIS SET INFORMATION
---------------------------------
There are 3 groups of distinct atoms

 Group   1 Type O   : 12s5p4d2f1g contracted to 6s4p3d1f1g pattern {711111/2111/211/2/1}
 Group   2 Type C   : 12s5p4d2f1g contracted to 6s4p3d1f1g pattern {711111/2111/211/2/1}
 Group   3 Type H   : 5s2p1d contracted to 3s1p1d pattern {311/2/1}

Atom   0O    basis set group =>   1
Atom   1C    basis set group =>   2
Atom   2C    basis set group =>   2
Atom   3H    basis set group =>   3
Atom   4H    basis set group =>   3
Atom   5H    basis set group =>   3
Atom   6H    basis set group =>   3


           ************************************************************
           *        Program running with 8 parallel MPI-processes     *
           *              working on a common directory               *
           ************************************************************
------------------------------------------------------------------------------
                           ORCA GTO INTEGRAL CALCULATION
                           -- RI-GTO INTEGRALS CHOSEN --
------------------------------------------------------------------------------
------------------------------------------------------------------------------
                   ___                                                        
                  /   \      - P O W E R E D   B Y -                         
                 /     \                                                     
                 |  |  |   _    _      __       _____    __    __             
                 |  |  |  | |  | |    /  \     |  _  \  |  |  /  |          
                  \  \/   | |  | |   /    \    | | | |  |  | /  /          
                 / \  \   | |__| |  /  /\  \   | |_| |  |  |/  /          
                |  |  |   |  __  | /  /__\  \  |    /   |      \           
                |  |  |   | |  | | |   __   |  |    \   |  |\   \          
                \     /   | |  | | |  |  |  |  | |\  \  |  | \   \       
                 \___/    |_|  |_| |__|  |__|  |_| \__\ |__|  \__/        
                                                                              
                      - O R C A' S   B I G   F R I E N D -                    
                                      &                                       
                       - I N T E G R A L  F E E D E R -                       
                                                                              
 v1 FN, 2020, v2 2021                                                         
------------------------------------------------------------------------------


Reading SHARK input file ox_gs_A_orca0021.SHARKINP.tmp ... ok
----------------------
SHARK INTEGRAL PACKAGE
----------------------

Number of atoms                             ...      7
Number of basis functions                   ...    117
Number of shells                            ...     49
Maximum angular momentum                    ...      3
Integral batch strategy                     ... SHARK/LIBINT Hybrid
RI-J (if used) integral strategy            ... SPLIT-RIJ (Revised 2003 algorithm where possible)
Printlevel                                  ...      1
Contraction scheme used                     ... SEGMENTED contraction
Coulomb Range Separation                    ... NOT USED
Exchange Range Separation                   ... NOT USED
Finite Nucleus Model                        ... NOT USED
Auxiliary Coulomb fitting basis             ... AVAILABLE
   # of basis functions in Aux-J            ...    191
   # of shells in Aux-J                     ...     65
   Maximum angular momentum in Aux-J        ...      4
Auxiliary J/K fitting basis                 ... NOT available
Auxiliary Correlation fitting basis         ... NOT available
Auxiliary 'external' fitting basis          ... NOT available
Integral threshold                          ...     2.500000e-11
Primitive cut-off                           ...     2.500000e-12
Primitive pair pre-selection threshold      ...     2.500000e-12

Calculating pre-screening integrals         ... done (  0.0 sec) Dimension = 49
Organizing shell pair data                  ... done (  0.0 sec)
Shell pair information
Total number of shell pairs                 ...      1225
Shell pairs after pre-screening             ...      1222
Total number of primitive shell pairs       ...      3648
Primitive shell pairs kept                  ...      3167
          la=0 lb=0:    375 shell pairs
          la=1 lb=0:    351 shell pairs
          la=1 lb=1:     91 shell pairs
          la=2 lb=0:    162 shell pairs
          la=2 lb=1:     78 shell pairs
          la=2 lb=2:     21 shell pairs
          la=3 lb=0:     81 shell pairs
          la=3 lb=1:     39 shell pairs
          la=3 lb=2:     18 shell pairs
          la=3 lb=3:      6 shell pairs

Calculating one electron integrals          ... done (  0.0 sec)
Calculating RI/J V-Matrix + Cholesky decomp.... done (  0.0 sec)
Calculating Nuclear repulsion               ... done (  0.0 sec) ENN=     78.292871575177 Eh

SHARK setup successfully completed in   0.1 seconds

Maximum memory used throughout the entire GTOINT-calculation: 14.9 MB


           ************************************************************
           *        Program running with 8 parallel MPI-processes     *
           *              working on a common directory               *
           ************************************************************
-------------------------------------------------------------------------------
                                 ORCA SCF
-------------------------------------------------------------------------------

------------
SCF SETTINGS
------------
Hamiltonian:
 Density Functional     Method          .... DFT(GTOs)
 Exchange Functional    Exchange        .... PBE
   PBE kappa parameter   XKappa         ....  0.804000
   PBE mue parameter    XMuePBE         ....  0.219520
 Correlation Functional Correlation     .... PBE
   PBE beta parameter  CBetaPBE         ....  0.066725
 LDA part of GGA corr.  LDAOpt          .... PW91-LDA
 Gradients option       PostSCFGGA      .... off
 Hybrid DFT is turned on
   Fraction HF Exchange ScalHFX         ....  0.250000
   Scaling of DF-GGA-X  ScalDFX         ....  0.750000
   Scaling of DF-GGA-C  ScalDFC         ....  1.000000
   Scaling of DF-LDA-C  ScalLDAC        ....  1.000000
   Perturbative correction              ....  0.000000
   Density functional embedding theory  .... OFF
   NL short-range parameter             ....  6.900000
 RI-approximation to the Coulomb term is turned on
   Number of AuxJ basis functions       .... 191
   RIJ-COSX (HFX calculated with COS-X)).... on


General Settings:
 Integral files         IntName         .... ox_gs_A_orca0021
 Hartree-Fock type      HFTyp           .... RHF
 Total Charge           Charge          ....    0
 Multiplicity           Mult            ....    1
 Number of Electrons    NEL             ....   24
 Basis Dimension        Dim             ....  117
 Nuclear Repulsion      ENuc            ....     78.2928715752 Eh

Convergence Acceleration:
 DIIS                   CNVDIIS         .... on
   Start iteration      DIISMaxIt       ....    12
   Startup error        DIISStart       ....  0.200000
   # of expansion vecs  DIISMaxEq       ....     5
   Bias factor          DIISBfac        ....   1.050
   Max. coefficient     DIISMaxC        ....  10.000
 Trust-Rad. Augm. Hess. CNVTRAH         .... auto
   Auto Start mean grad. ratio tolernc. ....  1.125000
   Auto Start start iteration           ....    20
   Auto Start num. interpolation iter.  ....    10
   Max. Number of Micro iterations      ....    16
   Max. Number of Macro iterations      .... Maxiter - #DIIS iter
   Number of Davidson start vectors     ....     2
   Converg. threshold I  (grad. norm)   ....   1.000e-05
   Converg. threshold II (energy diff.) ....   1.000e-08
   Grad. Scal. Fac. for Micro threshold ....   0.100
   Minimum threshold for Micro iter.    ....   0.010
   NR start threshold (gradient norm)   ....   0.001
   Initial trust radius                 ....   0.400
   Minimum AH scaling param. (alpha)    ....   1.000
   Maximum AH scaling param. (alpha)    .... 1000.000
   Orbital update algorithm             .... Taylor
   White noise on init. David. guess    .... on
   Maximum white noise                  ....   0.010
   Quad. conv. algorithm                .... NR
 SOSCF                  CNVSOSCF        .... on
   Start iteration      SOSCFMaxIt      ....   150
   Startup grad/error   SOSCFStart      ....  0.003300
 Level Shifting         CNVShift        .... on
   Level shift para.    LevelShift      ....    0.2500
   Turn off err/grad.   ShiftErr        ....    0.0010
 Zerner damping         CNVZerner       .... off
 Static damping         CNVDamp         .... on
   Fraction old density DampFac         ....    0.7000
   Max. Damping (<1)    DampMax         ....    0.9800
   Min. Damping (>=0)   DampMin         ....    0.0000
   Turn off err/grad.   DampErr         ....    0.1000
 Fernandez-Rico         CNVRico         .... off

SCF Procedure:
 Maximum # iterations   MaxIter         ....   125
 SCF integral mode      SCFMode         .... Direct
   Integral package                     .... SHARK and LIBINT hybrid scheme
 Reset frequency        DirectResetFreq ....    20
 Integral Threshold     Thresh          ....  2.500e-11 Eh
 Primitive CutOff       TCut            ....  2.500e-12 Eh

Convergence Tolerance:
 Convergence Check Mode ConvCheckMode   .... Total+1el-Energy
 Convergence forced     ConvForced      .... 0
 Energy Change          TolE            ....  1.000e-08 Eh
 1-El. energy change                    ....  1.000e-05 Eh
 Orbital Gradient       TolG            ....  1.000e-05
 Orbital Rotation angle TolX            ....  1.000e-05
 DIIS Error             TolErr          ....  5.000e-07


Diagonalization of the overlap matrix:
Smallest eigenvalue                        ... 3.848e-04
Time for diagonalization                   ...    0.001 sec
Threshold for overlap eigenvalues          ... 1.000e-08
Number of eigenvalues below threshold      ... 0
Time for construction of square roots      ...    0.001 sec
Total time needed                          ...    0.003 sec

Time for model grid setup =    0.023 sec

------------------------------
INITIAL GUESS: MODEL POTENTIAL
------------------------------
Loading Hartree-Fock densities                     ... done
Calculating cut-offs                               ... done
Initializing the effective Hamiltonian             ... done
Setting up the integral package (SHARK)            ... done
Starting the Coulomb interaction                   ... done (   0.0 sec)
Reading the grid                                   ... done
Mapping shells                                     ... done
Starting the XC term evaluation                    ... done (   0.0 sec)
  promolecular density results
     # of electrons  =     23.997325809
     EX              =    -19.606196488
     EC              =     -0.790218154
     EX+EC           =    -20.396414642
Transforming the Hamiltonian                       ... done (   0.0 sec)
Diagonalizing the Hamiltonian                      ... done (   0.0 sec)
Back transforming the eigenvectors                 ... done (   0.0 sec)
Now organizing SCF variables                       ... done
                      ------------------
                      INITIAL GUESS DONE (   0.0 sec)
                      ------------------
-------------------
DFT GRID GENERATION
-------------------

General Integration Accuracy     IntAcc      ... 4.388
Radial Grid Type                 RadialGrid  ... OptM3 with GC (2021)
Angular Grid (max. ang.)         AngularGrid ... 4 (Lebedev-302)
Angular grid pruning method      GridPruning ... 4 (adaptive)
Weight generation scheme         WeightScheme... Becke
Basis function cutoff            BFCut       ... 1.0000e-11
Integration weight cutoff        WCut        ... 1.0000e-14
Angular grids for H and He will be reduced by one unit
Partially contracted basis set               ... off
Rotationally invariant grid construction     ... off

Total number of grid points                  ...    31285
Total number of batches                      ...      493
Average number of points per batch           ...       63
Average number of grid points per atom       ...     4469
Time for grid setup =    0.108 sec

--------------------
COSX GRID GENERATION
--------------------

GRIDX 1
-------
General Integration Accuracy     IntAcc      ... 3.816
Radial Grid Type                 RadialGrid  ... OptM3 with GC (2021)
Angular Grid (max. ang.)         AngularGrid ... 1 (Lebedev-50)
Angular grid pruning method      GridPruning ... 4 (adaptive)
Weight generation scheme         WeightScheme... Becke
Basis function cutoff            BFCut       ... 1.0000e-11
Integration weight cutoff        WCut        ... 1.0000e-14
Angular grids for H and He will be reduced by one unit
Partially contracted basis set               ... on
Rotationally invariant grid construction     ... off

Total number of grid points                  ...     4029
Total number of batches                      ...       66
Average number of points per batch           ...       61
Average number of grid points per atom       ...      576
UseSFitting                                  ... on

GRIDX 2
-------
General Integration Accuracy     IntAcc      ... 4.020
Radial Grid Type                 RadialGrid  ... OptM3 with GC (2021)
Angular Grid (max. ang.)         AngularGrid ... 2 (Lebedev-110)
Angular grid pruning method      GridPruning ... 4 (adaptive)
Weight generation scheme         WeightScheme... Becke
Basis function cutoff            BFCut       ... 1.0000e-11
Integration weight cutoff        WCut        ... 1.0000e-14
Angular grids for H and He will be reduced by one unit
Partially contracted basis set               ... on
Rotationally invariant grid construction     ... off

Total number of grid points                  ...     8690
Total number of batches                      ...      139
Average number of points per batch           ...       62
Average number of grid points per atom       ...     1241
UseSFitting                                  ... on

GRIDX 3
-------
General Integration Accuracy     IntAcc      ... 4.338
Radial Grid Type                 RadialGrid  ... OptM3 with GC (2021)
Angular Grid (max. ang.)         AngularGrid ... 3 (Lebedev-194)
Angular grid pruning method      GridPruning ... 4 (adaptive)
Weight generation scheme         WeightScheme... Becke
Basis function cutoff            BFCut       ... 1.0000e-11
Integration weight cutoff        WCut        ... 1.0000e-14
Angular grids for H and He will be reduced by one unit
Partially contracted basis set               ... on
Rotationally invariant grid construction     ... off

Total number of grid points                  ...    19236
Total number of batches                      ...      305
Average number of points per batch           ...       63
Average number of grid points per atom       ...     2748
UseSFitting                                  ... on

Time for X-Grid setup             =    0.073 sec

--------------
SCF ITERATIONS
--------------
ITER       Energy         Delta-E        Max-DP      RMS-DP      [F,P]     Damp
               ***  Starting incremental Fock matrix formation  ***
  0   -153.5795766424   0.000000000000 0.03603260  0.00123451  0.1836420 0.7000
  1   -153.6126375629  -0.033060920437 0.02024555  0.00091967  0.0801514 0.7000
                               ***Turning on DIIS***
  2   -153.6263238148  -0.013686251908 0.02810595  0.00155758  0.0342693 0.0000
  3   -153.6479364502  -0.021612635459 0.01446960  0.00067968  0.0422099 0.0000
  4   -153.6524178342  -0.004481384000 0.00368044  0.00019753  0.0063144 0.0000
  5   -153.6525861487  -0.000168314491 0.00170858  0.00007342  0.0036658 0.0000
                      *** Initiating the SOSCF procedure ***
                           *** Shutting down DIIS ***
                      *** Re-Reading the Fockian *** 
                      *** Removing any level shift *** 
ITER      Energy       Delta-E        Grad      Rot      Max-DP    RMS-DP
  6   -153.65260677  -0.0000206186  0.000144  0.000144  0.001118  0.000038
               *** Restarting incremental Fock matrix formation ***
  7   -153.65258987   0.0000168988  0.000044  0.000062  0.000107  0.000004
  8   -153.65258986   0.0000000108  0.000059  0.000039  0.000061  0.000003
  9   -153.65258991  -0.0000000475  0.000007  0.000009  0.000011  0.000001
 10   -153.65258990   0.0000000003  0.000006  0.000005  0.000007  0.000000
                 **** Energy Check signals convergence ****
              ***Rediagonalizing the Fockian in SOSCF/NRSCF***

               *****************************************************
               *                     SUCCESS                       *
               *           SCF CONVERGED AFTER  11 CYCLES          *
               *****************************************************

Old exchange energy                            =     -5.023561726 Eh
New exchange energy                            =     -5.023550455 Eh
Exchange energy change after final integration =      0.000011271 Eh
Total energy after final integration           =   -153.652578635 Eh
Final COS-X integration done in                =     0.249 sec

----------------
TOTAL SCF ENERGY
----------------

Total Energy       :         -153.65257864 Eh           -4181.09923 eV

Components:
Nuclear Repulsion  :           78.29287158 Eh            2130.45735 eV
Electronic Energy  :         -231.94545021 Eh           -6311.55657 eV
One Electron Energy:         -362.98002179 Eh           -9877.18854 eV
Two Electron Energy:          131.03457158 Eh            3565.63197 eV
Max COSX asymmetry :            0.00000286 Eh               0.00008 eV

Virial components:
Potential Energy   :         -307.01788419 Eh           -8354.38136 eV
Kinetic Energy     :          153.36530556 Eh            4173.28213 eV
Virial Ratio       :            2.00187313


DFT components:
N(Alpha)           :       12.000002640165 electrons
N(Beta)            :       12.000002640165 electrons
N(Total)           :       24.000005280331 electrons
E(X)               :      -15.028805295826 Eh       
E(C)               :       -0.797585580714 Eh       
E(XC)              :      -15.826390876541 Eh       
DFET-embed. en.    :        0.000000000000 Eh       

---------------
SCF CONVERGENCE
---------------

  Last Energy change         ...   -1.6298e-09  Tolerance :   1.0000e-08
  Last MAX-Density change    ...    8.8818e-16  Tolerance :   1.0000e-07
  Last RMS-Density change    ...    2.2061e-17  Tolerance :   5.0000e-09
  Last Orbital Gradient      ...    1.1736e-07  Tolerance :   1.0000e-05
  Last Orbital Rotation      ...    2.3728e-07  Tolerance :   1.0000e-05

             **** THE GBW FILE WAS UPDATED (ox_gs_A_orca0021.gbw) ****
             **** DENSITY ox_gs_A_orca0021.scfp WAS UPDATED ****
             **** ENERGY FILE WAS UPDATED (ox_gs_A_orca0021.en.tmp) ****
             **** THE GBW FILE WAS UPDATED (ox_gs_A_orca0021.gbw) ****
             **** DENSITY ox_gs_A_orca0021.scfp WAS UPDATED ****
----------------
ORBITAL ENERGIES
----------------

  NO   OCC          E(Eh)            E(eV) 
   0   2.0000     -19.222183      -523.0622 
   1   2.0000     -10.270501      -279.4745 
   2   2.0000     -10.265945      -279.3506 
   3   2.0000      -1.169642       -31.8276 
   4   2.0000      -0.688396       -18.7322 
   5   2.0000      -0.669929       -18.2297 
   6   2.0000      -0.555949       -15.1282 
   7   2.0000      -0.514930       -14.0120 
   8   2.0000      -0.445514       -12.1230 
   9   2.0000      -0.401412       -10.9230 
  10   2.0000      -0.315081        -8.5738 
  11   2.0000      -0.288177        -7.8417 
  12   0.0000       0.064268         1.7488 
  13   0.0000       0.082068         2.2332 
  14   0.0000       0.095900         2.6096 
  15   0.0000       0.107826         2.9341 
  16   0.0000       0.123233         3.3533 
  17   0.0000       0.154333         4.1996 
  18   0.0000       0.193180         5.2567 
  19   0.0000       0.213947         5.8218 
  20   0.0000       0.273398         7.4395 
  21   0.0000       0.277470         7.5503 
  22   0.0000       0.302302         8.2261 
  23   0.0000       0.371441        10.1074 
  24   0.0000       0.395119        10.7517 
  25   0.0000       0.396258        10.7827 
  26   0.0000       0.412965        11.2373 
  27   0.0000       0.441371        12.0103 
  28   0.0000       0.465358        12.6630 
  29   0.0000       0.467119        12.7109 
  30   0.0000       0.487260        13.2590 
  31   0.0000       0.539292        14.6749 
  32   0.0000       0.548160        14.9162 
  33   0.0000       0.705820        19.2063 
  34   0.0000       0.719794        19.5866 
  35   0.0000       0.733815        19.9681 
  36   0.0000       0.844905        22.9910 
  37   0.0000       0.860710        23.4211 
  38   0.0000       0.906756        24.6741 
  39   0.0000       0.935410        25.4538 
  40   0.0000       1.040970        28.3262 
  41   0.0000       1.044178        28.4135 
  42   0.0000       1.054118        28.6840 
  43   0.0000       1.081783        29.4368 
  44   0.0000       1.169704        31.8293 
  45   0.0000       1.362566        37.0773 
  46   0.0000       1.423100        38.7245 
  47   0.0000       1.513295        41.1789 
  48   0.0000       1.525217        41.5033 
  49   0.0000       1.540916        41.9304 
  50   0.0000       1.607685        43.7473 
  51   0.0000       1.639683        44.6180 
  52   0.0000       1.646473        44.8028 
  53   0.0000       1.687832        45.9282 
  54   0.0000       1.762034        47.9474 
  55   0.0000       1.800886        49.0046 
  56   0.0000       1.836264        49.9673 
  57   0.0000       1.928126        52.4670 
  58   0.0000       1.976861        53.7931 
  59   0.0000       2.004523        54.5459 
  60   0.0000       2.125030        57.8250 
  61   0.0000       2.184763        59.4504 
  62   0.0000       2.213291        60.2267 
  63   0.0000       2.260845        61.5207 
  64   0.0000       2.301039        62.6145 
  65   0.0000       2.433137        66.2090 
  66   0.0000       2.479560        67.4723 
  67   0.0000       2.503547        68.1250 
  68   0.0000       2.566467        69.8371 
  69   0.0000       2.598048        70.6965 
  70   0.0000       2.642591        71.9086 
  71   0.0000       2.714077        73.8538 
  72   0.0000       2.739554        74.5471 
  73   0.0000       2.769313        75.3568 
  74   0.0000       2.790437        75.9316 
  75   0.0000       2.867349        78.0245 
  76   0.0000       2.919561        79.4453 
  77   0.0000       2.972083        80.8745 
  78   0.0000       2.997677        81.5709 
  79   0.0000       3.037990        82.6679 
  80   0.0000       3.092038        84.1386 
  81   0.0000       3.103903        84.4615 
  82   0.0000       3.153145        85.8014 
  83   0.0000       3.310604        90.0861 
  84   0.0000       3.325980        90.5045 
  85   0.0000       3.375822        91.8608 
  86   0.0000       3.411375        92.8282 
  87   0.0000       3.451230        93.9127 
  88   0.0000       3.591039        97.7171 
  89   0.0000       3.629151        98.7542 
  90   0.0000       3.743240       101.8587 
  91   0.0000       3.770742       102.6071 
  92   0.0000       3.884509       105.7029 
  93   0.0000       3.975294       108.1732 
  94   0.0000       4.071726       110.7973 
  95   0.0000       4.081513       111.0636 
  96   0.0000       4.220769       114.8530 
  97   0.0000       4.329900       117.8226 
  98   0.0000       4.415370       120.1483 
  99   0.0000       4.627009       125.9073 
 100   0.0000       4.772440       129.8647 
 101   0.0000       4.854842       132.1070 
 102   0.0000       5.404780       147.0715 
 103   0.0000       5.586626       152.0198 
 104   0.0000       5.879916       160.0006 
 105   0.0000       5.900198       160.5525 
 106   0.0000       5.960759       162.2005 
 107   0.0000       6.055591       164.7810 
 108   0.0000       6.215555       169.1339 
 109   0.0000       6.675269       181.6433 
 110   0.0000       6.740612       183.4214 
 111   0.0000       6.841012       186.1534 
 112   0.0000       7.021874       191.0749 
 113   0.0000       7.211695       196.2402 
 114   0.0000      22.458642       611.1307 
 115   0.0000      22.659887       616.6069 
 116   0.0000      43.941331      1195.7044 

                    ********************************
                    * MULLIKEN POPULATION ANALYSIS *
                    ********************************

-----------------------
MULLIKEN ATOMIC CHARGES
-----------------------
   0 O :   -0.285598
   1 C :   -0.058548
   2 C :   -0.079574
   3 H :    0.110268
   4 H :    0.094440
   5 H :    0.117486
   6 H :    0.101526
Sum of atomic charges:   -0.0000000

--------------------------------
MULLIKEN REDUCED ORBITAL CHARGES
--------------------------------
  0 O s       :     3.819683  s :     3.819683
      pz      :     1.799376  p :     4.409567
      px      :     1.286540
      py      :     1.323651
      dz2     :     0.006109  d :     0.053536
      dxz     :     0.004318
      dyz     :     0.008647
      dx2y2   :     0.015954
      dxy     :     0.018508
      f0      :     0.000368  f :     0.002813
      f+1     :     0.000265
      f-1     :     0.000510
      f+2     :     0.000091
      f-2     :     0.000345
      f+3     :     0.000356
      f-3     :     0.000878
  1 C s       :     3.203909  s :     3.203909
      pz      :     1.026672  p :     2.724137
      px      :     0.887954
      py      :     0.809511
      dz2     :     0.006256  d :     0.117066
      dxz     :     0.027868
      dyz     :     0.031628
      dx2y2   :     0.031363
      dxy     :     0.019952
      f0      :     0.001979  f :     0.013436
      f+1     :     0.001538
      f-1     :     0.000658
      f+2     :     0.000988
      f-2     :     0.002383
      f+3     :     0.002632
      f-3     :     0.003258
  2 C s       :     3.214810  s :     3.214810
      pz      :     1.047489  p :     2.729046
      px      :     0.885865
      py      :     0.795692
      dz2     :     0.005960  d :     0.121831
      dxz     :     0.028603
      dyz     :     0.034916
      dx2y2   :     0.033062
      dxy     :     0.019290
      f0      :     0.002007  f :     0.013886
      f+1     :     0.001503
      f-1     :     0.000684
      f+2     :     0.001540
      f-2     :     0.002175
      f+3     :     0.002485
      f-3     :     0.003491
  3 H s       :     0.865733  s :     0.865733
      pz      :     0.011303  p :     0.023999
      px      :     0.007282
      py      :     0.005414
  4 H s       :     0.884714  s :     0.884714
      pz      :     0.011164  p :     0.020847
      px      :     0.005378
      py      :     0.004305
  5 H s       :     0.861685  s :     0.861685
      pz      :     0.010218  p :     0.020829
      px      :     0.006609
      py      :     0.004002
  6 H s       :     0.877422  s :     0.877422
      pz      :     0.011209  p :     0.021051
      px      :     0.005721
      py      :     0.004122


                     *******************************
                     * LOEWDIN POPULATION ANALYSIS *
                     *******************************

----------------------
LOEWDIN ATOMIC CHARGES
----------------------
   0 O :    0.234709
   1 C :   -0.328565
   2 C :   -0.356587
   3 H :    0.091529
   4 H :    0.124805
   5 H :    0.113942
   6 H :    0.120168

-------------------------------
LOEWDIN REDUCED ORBITAL CHARGES
-------------------------------
  0 O s       :     3.277569  s :     3.277569
      pz      :     1.646945  p :     4.345821
      px      :     1.268585
      py      :     1.430291
      dz2     :     0.012590  d :     0.131309
      dxz     :     0.013801
      dyz     :     0.021967
      dx2y2   :     0.049705
      dxy     :     0.033245
      f0      :     0.001098  f :     0.010592
      f+1     :     0.000410
      f-1     :     0.001021
      f+2     :     0.000184
      f-2     :     0.001727
      f+3     :     0.001660
      f-3     :     0.004493
  1 C s       :     2.795658  s :     2.795658
      pz      :     1.044758  p :     2.933446
      px      :     1.010510
      py      :     0.878177
      dz2     :     0.059717  d :     0.509977
      dxz     :     0.134978
      dyz     :     0.100188
      dx2y2   :     0.110076
      dxy     :     0.105018
      f0      :     0.014198  f :     0.089484
      f+1     :     0.007116
      f-1     :     0.006040
      f+2     :     0.006292
      f-2     :     0.012151
      f+3     :     0.018345
      f-3     :     0.025343
  2 C s       :     2.814881  s :     2.814881
      pz      :     1.039403  p :     2.926793
      px      :     1.003182
      py      :     0.884209
      dz2     :     0.057007  d :     0.522548
      dxz     :     0.143421
      dyz     :     0.101152
      dx2y2   :     0.118371
      dxy     :     0.102597
      f0      :     0.013858  f :     0.092365
      f+1     :     0.006792
      f-1     :     0.006372
      f+2     :     0.010232
      f-2     :     0.010736
      f+3     :     0.016763
      f-3     :     0.027611
  3 H s       :     0.831439  s :     0.831439
      pz      :     0.037673  p :     0.077032
      px      :     0.021703
      py      :     0.017655
  4 H s       :     0.817743  s :     0.817743
      pz      :     0.031306  p :     0.057452
      px      :     0.014062
      py      :     0.012084
  5 H s       :     0.825344  s :     0.825344
      pz      :     0.030795  p :     0.060715
      px      :     0.018172
      py      :     0.011748
  6 H s       :     0.822158  s :     0.822158
      pz      :     0.031561  p :     0.057674
      px      :     0.014749
      py      :     0.011364


                      *****************************
                      * MAYER POPULATION ANALYSIS *
                      *****************************

  NA   - Mulliken gross atomic population
  ZA   - Total nuclear charge
  QA   - Mulliken gross atomic charge
  VA   - Mayer's total valence
  BVA  - Mayer's bonded valence
  FA   - Mayer's free valence

  ATOM       NA         ZA         QA         VA         BVA        FA
  0 O      8.2856     8.0000    -0.2856     2.0053     2.0053    -0.0000
  1 C      6.0585     6.0000    -0.0585     3.9896     3.9896     0.0000
  2 C      6.0796     6.0000    -0.0796     3.9685     3.9685    -0.0000
  3 H      0.8897     1.0000     0.1103     0.9603     0.9603     0.0000
  4 H      0.9056     1.0000     0.0944     0.9648     0.9648     0.0000
  5 H      0.8825     1.0000     0.1175     0.9614     0.9614    -0.0000
  6 H      0.8985     1.0000     0.1015     0.9700     0.9700    -0.0000

  Mayer bond orders larger than 0.100000
B(  0-O ,  1-C ) :   1.0072 B(  0-O ,  2-C ) :   0.9826 B(  1-C ,  2-C ) :   1.0542 
B(  1-C ,  3-H ) :   0.9602 B(  1-C ,  4-H ) :   0.9540 B(  2-C ,  5-H ) :   0.9488 
B(  2-C ,  6-H ) :   0.9678 

-------
TIMINGS
-------

Total SCF time: 0 days 0 hours 0 min 2 sec 

Total time                  ....       2.492 sec
Sum of individual times     ....       2.306 sec  ( 92.5%)

Fock matrix formation       ....       2.043 sec  ( 82.0%)
  Split-RI-J                ....       0.231 sec  ( 11.3% of F)
  Chain of spheres X        ....       1.394 sec  ( 68.2% of F)
  XC integration            ....       0.397 sec  ( 19.4% of F)
    Basis function eval.    ....       0.105 sec  ( 26.5% of XC)
    Density eval.           ....       0.080 sec  ( 20.2% of XC)
    XC-Functional eval.     ....       0.022 sec  (  5.5% of XC)
    XC-Potential eval.      ....       0.140 sec  ( 35.3% of XC)
Diagonalization             ....       0.015 sec  (  0.6%)
Density matrix formation    ....       0.001 sec  (  0.1%)
Population analysis         ....       0.002 sec  (  0.1%)
Initial guess               ....       0.017 sec  (  0.7%)
Orbital Transformation      ....       0.000 sec  (  0.0%)
Orbital Orthonormalization  ....       0.000 sec  (  0.0%)
DIIS solution               ....       0.013 sec  (  0.5%)
SOSCF solution              ....       0.010 sec  (  0.4%)
Grid generation             ....       0.204 sec  (  8.2%)

Maximum memory used throughout the entire SCF-calculation: 61.1 MB


-------------------------------------------------------------------------------
                          DFT DISPERSION CORRECTION                            
                                                                               
                              DFTD3 V3.1  Rev 1                                
                          USING Becke-Johnson damping                          
-------------------------------------------------------------------------------
The PBE0 functional is recognized
Active option DFTDOPT                   ...         4   

molecular C6(AA) [au] = 350.681760 


            DFT-D V3
 parameters
 s6 scaling factor         :     1.0000 
 a1 scaling factor         :     0.4145 
 s8 scaling factor         :     1.2177 
 a2 scaling factor         :     4.8593 
 ad hoc parameters k1-k3   :    16.0000     1.3333    -4.0000 

 Edisp/kcal,au: -1.515118352048  -0.002414494526 
 E6   /kcal   :  -0.994113953 
 E8   /kcal   :  -0.521004399 
 % E8         :  34.387043017 

-------------------------   ----------------
Dispersion correction           -0.002414495
-------------------------   ----------------


-------------------------   --------------------
FINAL SINGLE POINT ENERGY      -153.654993129888
-------------------------   --------------------



           ************************************************************
           *        Program running with 8 parallel MPI-processes     *
           *              working on a common directory               *
           ************************************************************
------------------------------------------------------------------------------
                         ORCA SCF GRADIENT CALCULATION
------------------------------------------------------------------------------

 ... reading COSX grid (gridx3)
Gradient of the Kohn-Sham DFT energy:
Kohn-Sham wavefunction type      ... RKS
Hartree-Fock exchange scaling    ...    0.250
Number of operators              ...    1
Number of atoms                  ...    7
Basis set dimensions             ...  117
Integral neglect threshold       ... 2.5e-11
Integral primitive cutoff        ... 2.5e-12
SHARK Integral package           ... ON

Nuc. rep. gradient       (SHARK) ... done (  0.0 sec)
HCore & Overlap gradient (SHARK) ... done (  0.0 sec)
RI-J gradient            (SHARK) ... done (  0.1 sec)
COSX-gradient                    ... done (  0.3 sec)
Exchange-correlation gradient    ... done
Dispersion correction            ... done

------------------
CARTESIAN GRADIENT
------------------

   1   O   :    0.010192932   -0.109207369    0.015393858
   2   C   :   -0.026062450    0.039859514    0.088251787
   3   C   :   -0.034503625    0.041555260   -0.038709806
   4   H   :    0.039608671    0.017724409   -0.064416933
   5   H   :    0.006508136   -0.006110988   -0.015243542
   6   H   :    0.006262846    0.000553120   -0.000067699
   7   H   :   -0.001990141    0.015576362    0.014830795

Difference to translation invariance:
           :    0.0000163688   -0.0000496930    0.0000384598

Difference to rotation invariance:
           :    0.0000545141    0.0000282264    0.0000883757

Norm of the cartesian gradient     ...    0.1832757306
RMS gradient                       ...    0.0399940433
MAX gradient                       ...    0.1092073690

-------
TIMINGS
-------

Total SCF gradient time            ...        0.683 sec

One electron gradient       ....       0.010 sec  (  1.4%)
RI-J Coulomb gradient       ....       0.077 sec  ( 11.2%)
COSX gradient               ....       0.299 sec  ( 43.8%)
XC gradient                 ....       0.160 sec  ( 23.4%)

Maximum memory used throughout the entire SCFGRAD-calculation: 35.9 MB

                            ***************************************
                            *     ORCA property calculations      *
                            ***************************************

                                    ---------------------
                                    Active property flags
                                    ---------------------
   (+) Dipole Moment


------------------------------------------------------------------------------
                       ORCA ELECTRIC PROPERTIES CALCULATION
------------------------------------------------------------------------------

Dipole Moment Calculation                       ... on
Quadrupole Moment Calculation                   ... off
Polarizability Calculation                      ... off
GBWName                                         ... ox_gs_A_orca0021.gbw
Electron density                                ... ox_gs_A_orca0021.scfp
The origin for moment calculation is the CENTER OF MASS  = (-0.060807, -0.113882 -0.025867)

-------------
DIPOLE MOMENT
-------------
                                X             Y             Z
Electronic contribution:     -0.10792       1.66583       0.05525
Nuclear contribution   :      0.08070      -2.20744      -0.05624
                        -----------------------------------------
Total Dipole Moment    :     -0.02722      -0.54161      -0.00100
                        -----------------------------------------
Magnitude (a.u.)       :      0.54229
Magnitude (Debye)      :      1.37840



--------------------
Rotational spectrum 
--------------------
 
Rotational constants in cm-1:     1.003048     0.739297     0.515137 
Rotational constants in MHz : 30070.617180 22163.564707 15443.412969 

 Dipole components along the rotational axes: 
x,y,z [a.u.] :     0.027923    -0.541187     0.020460 
x,y,z [Debye]:     0.070974    -1.375589     0.052004 

 

Timings for individual modules:

Sum of individual times         ...        3.918 sec (=   0.065 min)
GTO integral calculation        ...        0.318 sec (=   0.005 min)   8.1 %
SCF iterations                  ...        2.690 sec (=   0.045 min)  68.7 %
SCF Gradient evaluation         ...        0.910 sec (=   0.015 min)  23.2 %
                             ****ORCA TERMINATED NORMALLY****
TOTAL RUN TIME: 0 days 0 hours 0 minutes 4 seconds 196 msec
