
                                 *****************
                                 * O   R   C   A *
                                 *****************

                                            #,                                       
                                            ###                                      
                                            ####                                     
                                            #####                                    
                                            ######                                   
                                           ########,                                 
                                     ,,################,,,,,                         
                               ,,#################################,,                 
                          ,,##########################################,,             
                       ,#########################################, ''#####,          
                    ,#############################################,,   '####,        
                  ,##################################################,,,,####,       
                ,###########''''           ''''###############################       
              ,#####''   ,,,,##########,,,,          '''####'''          '####       
            ,##' ,,,,###########################,,,                        '##       
           ' ,,###''''                  '''############,,,                           
         ,,##''                                '''############,,,,        ,,,,,,###''
      ,#''                                            '''#######################'''  
     '                                                          ''''####''''         
             ,#######,   #######,   ,#######,      ##                                
            ,#'     '#,  ##    ##  ,#'     '#,    #''#        ######   ,####,        
            ##       ##  ##   ,#'  ##            #'  '#       #        #'  '#        
            ##       ##  #######   ##           ,######,      #####,   #    #        
            '#,     ,#'  ##    ##  '#,     ,#' ,#      #,         ##   #,  ,#        
             '#######'   ##     ##  '#######'  #'      '#     #####' # '####'        



                  #######################################################
                  #                        -***-                        #
                  #          Department of theory and spectroscopy      #
                  #    Directorship and core code : Frank Neese         #
                  #        Max Planck Institute fuer Kohlenforschung    #
                  #                Kaiser Wilhelm Platz 1               #
                  #                 D-45470 Muelheim/Ruhr               #
                  #                      Germany                        #
                  #                                                     #
                  #                  All rights reserved                #
                  #                        -***-                        #
                  #######################################################


                         Program Version 5.0.2 -  RELEASE  -


 With contributions from (in alphabetic order):
   Daniel Aravena         : Magnetic Suceptibility
   Michael Atanasov       : Ab Initio Ligand Field Theory (pilot matlab implementation)
   Alexander A. Auer      : GIAO ZORA, VPT2 properties, NMR spectrum
   Ute Becker             : Parallelization
   Giovanni Bistoni       : ED, misc. LED, open-shell LED, HFLD
   Martin Brehm           : Molecular dynamics
   Dmytro Bykov           : SCF Hessian
   Vijay G. Chilkuri      : MRCI spin determinant printing, contributions to CSF-ICE
   Dipayan Datta          : RHF DLPNO-CCSD density
   Achintya Kumar Dutta   : EOM-CC, STEOM-CC
   Dmitry Ganyushin       : Spin-Orbit,Spin-Spin,Magnetic field MRCI
   Miquel Garcia          : C-PCM and meta-GGA Hessian, CC/C-PCM, Gaussian charge scheme
   Yang Guo               : DLPNO-NEVPT2, F12-NEVPT2, CIM, IAO-localization
   Andreas Hansen         : Spin unrestricted coupled pair/coupled cluster methods
   Benjamin Helmich-Paris : MC-RPA, TRAH-SCF, COSX integrals
   Lee Huntington         : MR-EOM, pCC
   Robert Izsak           : Overlap fitted RIJCOSX, COSX-SCS-MP3, EOM
   Marcus Kettner         : VPT2
   Christian Kollmar      : KDIIS, OOCD, Brueckner-CCSD(T), CCSD density, CASPT2, CASPT2-K
   Simone Kossmann        : Meta GGA functionals, TD-DFT gradient, OOMP2, MP2 Hessian
   Martin Krupicka        : Initial AUTO-CI
   Lucas Lang             : DCDCAS
   Marvin Lechner         : AUTO-CI (C++ implementation), FIC-MRCC
   Dagmar Lenk            : GEPOL surface, SMD
   Dimitrios Liakos       : Extrapolation schemes; Compound Job, initial MDCI parallelization
   Dimitrios Manganas     : Further ROCIS development; embedding schemes
   Dimitrios Pantazis     : SARC Basis sets
   Anastasios Papadopoulos: AUTO-CI, single reference methods and gradients
   Taras Petrenko         : DFT Hessian,TD-DFT gradient, ASA, ECA, R-Raman, ABS, FL, XAS/XES, NRVS
   Peter Pinski           : DLPNO-MP2, DLPNO-MP2 Gradient
   Christoph Reimann      : Effective Core Potentials
   Marius Retegan         : Local ZFS, SOC
   Christoph Riplinger    : Optimizer, TS searches, QM/MM, DLPNO-CCSD(T), (RO)-DLPNO pert. Triples
   Tobias Risthaus        : Range-separated hybrids, TD-DFT gradient, RPA, STAB
   Michael Roemelt        : Original ROCIS implementation
   Masaaki Saitow         : Open-shell DLPNO-CCSD energy and density
   Barbara Sandhoefer     : DKH picture change effects
   Avijit Sen             : IP-ROCIS
   Kantharuban Sivalingam : CASSCF convergence, NEVPT2, FIC-MRCI
   Bernardo de Souza      : ESD, SOC TD-DFT
   Georgi Stoychev        : AutoAux, RI-MP2 NMR, DLPNO-MP2 response
   Willem Van den Heuvel  : Paramagnetic NMR
   Boris Wezisla          : Elementary symmetry handling
   Frank Wennmohs         : Technical directorship


 We gratefully acknowledge several colleagues who have allowed us to
 interface, adapt or use parts of their codes:
   Stefan Grimme, W. Hujo, H. Kruse, P. Pracht,  : VdW corrections, initial TS optimization,
                  C. Bannwarth, S. Ehlert          DFT functionals, gCP, sTDA/sTD-DF
   Ed Valeev, F. Pavosevic, A. Kumar             : LibInt (2-el integral package), F12 methods
   Garnet Chan, S. Sharma, J. Yang, R. Olivares  : DMRG
   Ulf Ekstrom                                   : XCFun DFT Library
   Mihaly Kallay                                 : mrcc  (arbitrary order and MRCC methods)
   Jiri Pittner, Ondrej Demel                    : Mk-CCSD
   Frank Weinhold                                : gennbo (NPA and NBO analysis)
   Christopher J. Cramer and Donald G. Truhlar   : smd solvation model
   Lars Goerigk                                  : TD-DFT with DH, B97 family of functionals
   V. Asgeirsson, H. Jonsson                     : NEB implementation
   FAccTs GmbH                                   : IRC, NEB, NEB-TS, DLPNO-Multilevel, CI-OPT
                                                   MM, QMMM, 2- and 3-layer-ONIOM, Crystal-QMMM,
                                                   LR-CPCM, SF, NACMEs, symmetry and pop. for TD-DFT,
                                                   nearIR, NL-DFT gradient (VV10), updates on ESD,
                                                   ML-optimized integration grids
   S Lehtola, MJT Oliveira, MAL Marques          : LibXC Library
   Liviu Ungur et al                             : ANISO software


 Your calculation uses the libint2 library for the computation of 2-el integrals
 For citations please refer to: http://libint.valeyev.net

 Your ORCA version has been built with support for libXC version: 5.1.0
 For citations please refer to: https://tddft.org/programs/libxc/

 This ORCA versions uses:
   CBLAS   interface :  Fast vector & matrix operations
   LAPACKE interface :  Fast linear algebra routines
   SCALAPACK package :  Parallel linear algebra routines
   Shared memory     :  Shared parallel matrices
   BLAS/LAPACK       :  OpenBLAS 0.3.15  USE64BITINT DYNAMIC_ARCH NO_AFFINITY SkylakeX SINGLE_THREADED
        Core in use  :  SkylakeX
   Copyright (c) 2011-2014, The OpenBLAS Project


Your calculation utilizes the atom-pairwise dispersion correction
with the Becke-Johnson damping scheme (D3BJ)
Cite in your paper:
S.Grimme, S.Ehrlich, L.Goerigk, J Comput Chem, (2011), 32, 1456–1465 
S.Grimme, J.Antony, S.Ehrlich and H.Krieg, J.Chem.Phys., 132, (2010), 154104 
   

================================================================================

----- Orbital basis set information -----
Your calculation utilizes the basis: def2-TZVP
   F. Weigend and R. Ahlrichs, Phys. Chem. Chem. Phys. 7, 3297 (2005).

----- AuxJ basis set information -----
Your calculation utilizes the auxiliary basis: def2/J
   F. Weigend, Phys. Chem. Chem. Phys. 8, 1057 (2006).

================================================================================
                                        WARNINGS
                       Please study these warnings very carefully!
================================================================================


INFO   : the flag for use of the SHARK integral package has been found!

================================================================================
                                       INPUT FILE
================================================================================
NAME = ox_gs_C_orca0006.inp
|  1> ! engrad PBE0 D3BJ def2-TZVP  
|  2> %pal nprocs 8 end
|  3> %maxcore 3000
|  4>  
|  5> *xyz 0 1 
|  6> O   -0.48203221220339765 0.9901050448972251 0.03135717568607584
|  7> C   -0.7801281765859114 -0.38874446733346923 0.00385217578321308
|  8> C   0.7148602817100185 -0.3875977987453234 0.02283686010310669
|  9> H   -1.3242677238863252 -0.5804179795578225 0.9730947772978293
| 10> H   -1.338241514365678 -0.6960418694295781 -0.974019867321175
| 11> H   1.1805210610925687 -0.5071548541482905 -0.9065326993833315
| 12> H   1.326443923376324 -0.6870238022766533 1.0014084146221551
| 13> *
| 14> 
| 15>                          ****END OF INPUT****
================================================================================

                     *******************************
                     * Energy+Gradient Calculation *
                     *******************************

---------------------------------
CARTESIAN COORDINATES (ANGSTROEM)
---------------------------------
  O     -0.482032    0.990105    0.031357
  C     -0.780128   -0.388744    0.003852
  C      0.714860   -0.387598    0.022837
  H     -1.324268   -0.580418    0.973095
  H     -1.338242   -0.696042   -0.974020
  H      1.180521   -0.507155   -0.906533
  H      1.326444   -0.687024    1.001408

----------------------------
CARTESIAN COORDINATES (A.U.)
----------------------------
  NO LB      ZA    FRAG     MASS         X           Y           Z
   0 O     8.0000    0    15.999   -0.910909    1.871027    0.059256
   1 C     6.0000    0    12.011   -1.474229   -0.734621    0.007280
   2 C     6.0000    0    12.011    1.350890   -0.732454    0.043155
   3 H     1.0000    0     1.008   -2.502503   -1.096831    1.838883
   4 H     1.0000    0     1.008   -2.528910   -1.315329   -1.840631
   5 H     1.0000    0     1.008    2.230862   -0.958384   -1.713099
   6 H     1.0000    0     1.008    2.506616   -1.298287    1.892388

--------------------------------
INTERNAL COORDINATES (ANGSTROEM)
--------------------------------
 O      0   0   0     0.000000000000     0.00000000     0.00000000
 C      1   0   0     1.410972610074     0.00000000     0.00000000
 C      2   1   0     1.495109435301    77.74577323     0.00000000
 H      2   1   3     1.127944060145   104.55044412   116.24488184
 H      2   1   3     1.167114357648   112.00356604   243.13139538
 H      3   2   1     1.046356358537   115.69808368   261.70822620
 H      3   2   1     1.192179839478   121.54611952   106.18283565

---------------------------
INTERNAL COORDINATES (A.U.)
---------------------------
 O      0   0   0     0.000000000000     0.00000000     0.00000000
 C      1   0   0     2.666351815504     0.00000000     0.00000000
 C      2   1   0     2.825347372960    77.74577323     0.00000000
 H      2   1   3     2.131505368057   104.55044412   116.24488184
 H      2   1   3     2.205526502922   112.00356604   243.13139538
 H      3   2   1     1.977326956123   115.69808368   261.70822620
 H      3   2   1     2.252893398996   121.54611952   106.18283565

---------------------
BASIS SET INFORMATION
---------------------
There are 3 groups of distinct atoms

 Group   1 Type O   : 11s6p2d1f contracted to 5s3p2d1f pattern {62111/411/11/1}
 Group   2 Type C   : 11s6p2d1f contracted to 5s3p2d1f pattern {62111/411/11/1}
 Group   3 Type H   : 5s1p contracted to 3s1p pattern {311/1}

Atom   0O    basis set group =>   1
Atom   1C    basis set group =>   2
Atom   2C    basis set group =>   2
Atom   3H    basis set group =>   3
Atom   4H    basis set group =>   3
Atom   5H    basis set group =>   3
Atom   6H    basis set group =>   3
---------------------------------
AUXILIARY/J BASIS SET INFORMATION
---------------------------------
There are 3 groups of distinct atoms

 Group   1 Type O   : 12s5p4d2f1g contracted to 6s4p3d1f1g pattern {711111/2111/211/2/1}
 Group   2 Type C   : 12s5p4d2f1g contracted to 6s4p3d1f1g pattern {711111/2111/211/2/1}
 Group   3 Type H   : 5s2p1d contracted to 3s1p1d pattern {311/2/1}

Atom   0O    basis set group =>   1
Atom   1C    basis set group =>   2
Atom   2C    basis set group =>   2
Atom   3H    basis set group =>   3
Atom   4H    basis set group =>   3
Atom   5H    basis set group =>   3
Atom   6H    basis set group =>   3


           ************************************************************
           *        Program running with 8 parallel MPI-processes     *
           *              working on a common directory               *
           ************************************************************
------------------------------------------------------------------------------
                           ORCA GTO INTEGRAL CALCULATION
                           -- RI-GTO INTEGRALS CHOSEN --
------------------------------------------------------------------------------
------------------------------------------------------------------------------
                   ___                                                        
                  /   \      - P O W E R E D   B Y -                         
                 /     \                                                     
                 |  |  |   _    _      __       _____    __    __             
                 |  |  |  | |  | |    /  \     |  _  \  |  |  /  |          
                  \  \/   | |  | |   /    \    | | | |  |  | /  /          
                 / \  \   | |__| |  /  /\  \   | |_| |  |  |/  /          
                |  |  |   |  __  | /  /__\  \  |    /   |      \           
                |  |  |   | |  | | |   __   |  |    \   |  |\   \          
                \     /   | |  | | |  |  |  |  | |\  \  |  | \   \       
                 \___/    |_|  |_| |__|  |__|  |_| \__\ |__|  \__/        
                                                                              
                      - O R C A' S   B I G   F R I E N D -                    
                                      &                                       
                       - I N T E G R A L  F E E D E R -                       
                                                                              
 v1 FN, 2020, v2 2021                                                         
------------------------------------------------------------------------------


Reading SHARK input file ox_gs_C_orca0006.SHARKINP.tmp ... ok
----------------------
SHARK INTEGRAL PACKAGE
----------------------

Number of atoms                             ...      7
Number of basis functions                   ...    117
Number of shells                            ...     49
Maximum angular momentum                    ...      3
Integral batch strategy                     ... SHARK/LIBINT Hybrid
RI-J (if used) integral strategy            ... SPLIT-RIJ (Revised 2003 algorithm where possible)
Printlevel                                  ...      1
Contraction scheme used                     ... SEGMENTED contraction
Coulomb Range Separation                    ... NOT USED
Exchange Range Separation                   ... NOT USED
Finite Nucleus Model                        ... NOT USED
Auxiliary Coulomb fitting basis             ... AVAILABLE
   # of basis functions in Aux-J            ...    191
   # of shells in Aux-J                     ...     65
   Maximum angular momentum in Aux-J        ...      4
Auxiliary J/K fitting basis                 ... NOT available
Auxiliary Correlation fitting basis         ... NOT available
Auxiliary 'external' fitting basis          ... NOT available
Integral threshold                          ...     2.500000e-11
Primitive cut-off                           ...     2.500000e-12
Primitive pair pre-selection threshold      ...     2.500000e-12

Calculating pre-screening integrals         ... done (  0.0 sec) Dimension = 49
Organizing shell pair data                  ... done (  0.0 sec)
Shell pair information
Total number of shell pairs                 ...      1225
Shell pairs after pre-screening             ...      1218
Total number of primitive shell pairs       ...      3648
Primitive shell pairs kept                  ...      3118
          la=0 lb=0:    371 shell pairs
          la=1 lb=0:    351 shell pairs
          la=1 lb=1:     91 shell pairs
          la=2 lb=0:    162 shell pairs
          la=2 lb=1:     78 shell pairs
          la=2 lb=2:     21 shell pairs
          la=3 lb=0:     81 shell pairs
          la=3 lb=1:     39 shell pairs
          la=3 lb=2:     18 shell pairs
          la=3 lb=3:      6 shell pairs

Calculating one electron integrals          ... done (  0.0 sec)
Calculating RI/J V-Matrix + Cholesky decomp.... done (  0.0 sec)
Calculating Nuclear repulsion               ... done (  0.0 sec) ENN=     70.200686989177 Eh

SHARK setup successfully completed in   0.1 seconds

Maximum memory used throughout the entire GTOINT-calculation: 14.9 MB


           ************************************************************
           *        Program running with 8 parallel MPI-processes     *
           *              working on a common directory               *
           ************************************************************
-------------------------------------------------------------------------------
                                 ORCA SCF
-------------------------------------------------------------------------------

------------
SCF SETTINGS
------------
Hamiltonian:
 Density Functional     Method          .... DFT(GTOs)
 Exchange Functional    Exchange        .... PBE
   PBE kappa parameter   XKappa         ....  0.804000
   PBE mue parameter    XMuePBE         ....  0.219520
 Correlation Functional Correlation     .... PBE
   PBE beta parameter  CBetaPBE         ....  0.066725
 LDA part of GGA corr.  LDAOpt          .... PW91-LDA
 Gradients option       PostSCFGGA      .... off
 Hybrid DFT is turned on
   Fraction HF Exchange ScalHFX         ....  0.250000
   Scaling of DF-GGA-X  ScalDFX         ....  0.750000
   Scaling of DF-GGA-C  ScalDFC         ....  1.000000
   Scaling of DF-LDA-C  ScalLDAC        ....  1.000000
   Perturbative correction              ....  0.000000
   Density functional embedding theory  .... OFF
   NL short-range parameter             ....  6.900000
 RI-approximation to the Coulomb term is turned on
   Number of AuxJ basis functions       .... 191
   RIJ-COSX (HFX calculated with COS-X)).... on


General Settings:
 Integral files         IntName         .... ox_gs_C_orca0006
 Hartree-Fock type      HFTyp           .... RHF
 Total Charge           Charge          ....    0
 Multiplicity           Mult            ....    1
 Number of Electrons    NEL             ....   24
 Basis Dimension        Dim             ....  117
 Nuclear Repulsion      ENuc            ....     70.2006869892 Eh

Convergence Acceleration:
 DIIS                   CNVDIIS         .... on
   Start iteration      DIISMaxIt       ....    12
   Startup error        DIISStart       ....  0.200000
   # of expansion vecs  DIISMaxEq       ....     5
   Bias factor          DIISBfac        ....   1.050
   Max. coefficient     DIISMaxC        ....  10.000
 Trust-Rad. Augm. Hess. CNVTRAH         .... auto
   Auto Start mean grad. ratio tolernc. ....  1.125000
   Auto Start start iteration           ....    20
   Auto Start num. interpolation iter.  ....    10
   Max. Number of Micro iterations      ....    16
   Max. Number of Macro iterations      .... Maxiter - #DIIS iter
   Number of Davidson start vectors     ....     2
   Converg. threshold I  (grad. norm)   ....   1.000e-05
   Converg. threshold II (energy diff.) ....   1.000e-08
   Grad. Scal. Fac. for Micro threshold ....   0.100
   Minimum threshold for Micro iter.    ....   0.010
   NR start threshold (gradient norm)   ....   0.001
   Initial trust radius                 ....   0.400
   Minimum AH scaling param. (alpha)    ....   1.000
   Maximum AH scaling param. (alpha)    .... 1000.000
   Orbital update algorithm             .... Taylor
   White noise on init. David. guess    .... on
   Maximum white noise                  ....   0.010
   Quad. conv. algorithm                .... NR
 SOSCF                  CNVSOSCF        .... on
   Start iteration      SOSCFMaxIt      ....   150
   Startup grad/error   SOSCFStart      ....  0.003300
 Level Shifting         CNVShift        .... on
   Level shift para.    LevelShift      ....    0.2500
   Turn off err/grad.   ShiftErr        ....    0.0010
 Zerner damping         CNVZerner       .... off
 Static damping         CNVDamp         .... on
   Fraction old density DampFac         ....    0.7000
   Max. Damping (<1)    DampMax         ....    0.9800
   Min. Damping (>=0)   DampMin         ....    0.0000
   Turn off err/grad.   DampErr         ....    0.1000
 Fernandez-Rico         CNVRico         .... off

SCF Procedure:
 Maximum # iterations   MaxIter         ....   125
 SCF integral mode      SCFMode         .... Direct
   Integral package                     .... SHARK and LIBINT hybrid scheme
 Reset frequency        DirectResetFreq ....    20
 Integral Threshold     Thresh          ....  2.500e-11 Eh
 Primitive CutOff       TCut            ....  2.500e-12 Eh

Convergence Tolerance:
 Convergence Check Mode ConvCheckMode   .... Total+1el-Energy
 Convergence forced     ConvForced      .... 0
 Energy Change          TolE            ....  1.000e-08 Eh
 1-El. energy change                    ....  1.000e-05 Eh
 Orbital Gradient       TolG            ....  1.000e-05
 Orbital Rotation angle TolX            ....  1.000e-05
 DIIS Error             TolErr          ....  5.000e-07


Diagonalization of the overlap matrix:
Smallest eigenvalue                        ... 5.219e-04
Time for diagonalization                   ...    0.001 sec
Threshold for overlap eigenvalues          ... 1.000e-08
Number of eigenvalues below threshold      ... 0
Time for construction of square roots      ...    0.001 sec
Total time needed                          ...    0.003 sec

Time for model grid setup =    0.022 sec

------------------------------
INITIAL GUESS: MODEL POTENTIAL
------------------------------
Loading Hartree-Fock densities                     ... done
Calculating cut-offs                               ... done
Initializing the effective Hamiltonian             ... done
Setting up the integral package (SHARK)            ... done
Starting the Coulomb interaction                   ... done (   0.0 sec)
Reading the grid                                   ... done
Mapping shells                                     ... done
Starting the XC term evaluation                    ... done (   0.0 sec)
  promolecular density results
     # of electrons  =     23.997939877
     EX              =    -19.444256578
     EC              =     -0.766923239
     EX+EC           =    -20.211179817
Transforming the Hamiltonian                       ... done (   0.0 sec)
Diagonalizing the Hamiltonian                      ... done (   0.0 sec)
Back transforming the eigenvectors                 ... done (   0.0 sec)
Now organizing SCF variables                       ... done
                      ------------------
                      INITIAL GUESS DONE (   0.0 sec)
                      ------------------
-------------------
DFT GRID GENERATION
-------------------

General Integration Accuracy     IntAcc      ... 4.388
Radial Grid Type                 RadialGrid  ... OptM3 with GC (2021)
Angular Grid (max. ang.)         AngularGrid ... 4 (Lebedev-302)
Angular grid pruning method      GridPruning ... 4 (adaptive)
Weight generation scheme         WeightScheme... Becke
Basis function cutoff            BFCut       ... 1.0000e-11
Integration weight cutoff        WCut        ... 1.0000e-14
Angular grids for H and He will be reduced by one unit
Partially contracted basis set               ... off
Rotationally invariant grid construction     ... off

Total number of grid points                  ...    31330
Total number of batches                      ...      494
Average number of points per batch           ...       63
Average number of grid points per atom       ...     4476
Time for grid setup =    0.110 sec

--------------------
COSX GRID GENERATION
--------------------

GRIDX 1
-------
General Integration Accuracy     IntAcc      ... 3.816
Radial Grid Type                 RadialGrid  ... OptM3 with GC (2021)
Angular Grid (max. ang.)         AngularGrid ... 1 (Lebedev-50)
Angular grid pruning method      GridPruning ... 4 (adaptive)
Weight generation scheme         WeightScheme... Becke
Basis function cutoff            BFCut       ... 1.0000e-11
Integration weight cutoff        WCut        ... 1.0000e-14
Angular grids for H and He will be reduced by one unit
Partially contracted basis set               ... on
Rotationally invariant grid construction     ... off

Total number of grid points                  ...     4038
Total number of batches                      ...       68
Average number of points per batch           ...       59
Average number of grid points per atom       ...      577
UseSFitting                                  ... on

GRIDX 2
-------
General Integration Accuracy     IntAcc      ... 4.020
Radial Grid Type                 RadialGrid  ... OptM3 with GC (2021)
Angular Grid (max. ang.)         AngularGrid ... 2 (Lebedev-110)
Angular grid pruning method      GridPruning ... 4 (adaptive)
Weight generation scheme         WeightScheme... Becke
Basis function cutoff            BFCut       ... 1.0000e-11
Integration weight cutoff        WCut        ... 1.0000e-14
Angular grids for H and He will be reduced by one unit
Partially contracted basis set               ... on
Rotationally invariant grid construction     ... off

Total number of grid points                  ...     8741
Total number of batches                      ...      141
Average number of points per batch           ...       61
Average number of grid points per atom       ...     1249
UseSFitting                                  ... on

GRIDX 3
-------
General Integration Accuracy     IntAcc      ... 4.338
Radial Grid Type                 RadialGrid  ... OptM3 with GC (2021)
Angular Grid (max. ang.)         AngularGrid ... 3 (Lebedev-194)
Angular grid pruning method      GridPruning ... 4 (adaptive)
Weight generation scheme         WeightScheme... Becke
Basis function cutoff            BFCut       ... 1.0000e-11
Integration weight cutoff        WCut        ... 1.0000e-14
Angular grids for H and He will be reduced by one unit
Partially contracted basis set               ... on
Rotationally invariant grid construction     ... off

Total number of grid points                  ...    19285
Total number of batches                      ...      306
Average number of points per batch           ...       63
Average number of grid points per atom       ...     2755
UseSFitting                                  ... on

Time for X-Grid setup             =    0.073 sec

--------------
SCF ITERATIONS
--------------
ITER       Energy         Delta-E        Max-DP      RMS-DP      [F,P]     Damp
               ***  Starting incremental Fock matrix formation  ***
  0   -153.5311433990   0.000000000000 0.04839146  0.00142089  0.2238517 0.7000
  1   -153.5714548474  -0.040311448389 0.02709257  0.00091975  0.0763007 0.7000
                               ***Turning on DIIS***
  2   -153.5830664297  -0.011611582254 0.02672698  0.00129688  0.0356391 0.0000
  3   -153.6077263783  -0.024659948663 0.01930419  0.00074996  0.0386531 0.0000
  4   -153.6105479501  -0.002821571739 0.00726684  0.00023271  0.0267751 0.0000
                      *** Initiating the SOSCF procedure ***
                           *** Shutting down DIIS ***
                      *** Re-Reading the Fockian *** 
                      *** Removing any level shift *** 
ITER      Energy       Delta-E        Grad      Rot      Max-DP    RMS-DP
  5   -153.61156103  -0.0010130786  0.000586  0.000586  0.001733  0.000055
               *** Restarting incremental Fock matrix formation ***
  6   -153.61159202  -0.0000309885  0.000666  0.002561  0.001670  0.000046
  7   -153.61158164   0.0000103773  0.001454  0.001573  0.001097  0.000031
  8   -153.61159562  -0.0000139821  0.000123  0.000250  0.000352  0.000011
  9   -153.61159545   0.0000001718  0.000126  0.000086  0.000192  0.000006
 10   -153.61159596  -0.0000005055  0.000007  0.000018  0.000015  0.000001
 11   -153.61159596   0.0000000002  0.000007  0.000005  0.000008  0.000000
                  ***Gradient check signals convergence***
              ***Rediagonalizing the Fockian in SOSCF/NRSCF***

               *****************************************************
               *                     SUCCESS                       *
               *           SCF CONVERGED AFTER  12 CYCLES          *
               *****************************************************

Old exchange energy                            =     -4.948595982 Eh
New exchange energy                            =     -4.948607680 Eh
Exchange energy change after final integration =     -0.000011698 Eh
Total energy after final integration           =   -153.611607655 Eh
Final COS-X integration done in                =     0.257 sec

----------------
TOTAL SCF ENERGY
----------------

Total Energy       :         -153.61160766 Eh           -4179.98435 eV

Components:
Nuclear Repulsion  :           70.20068699 Eh            1910.25781 eV
Electronic Energy  :         -223.81229464 Eh           -6090.24216 eV
One Electron Energy:         -347.30135286 Eh           -9450.55027 eV
Two Electron Energy:          123.48905821 Eh            3360.30811 eV
Max COSX asymmetry :            0.00000134 Eh               0.00004 eV

Virial components:
Potential Energy   :         -306.07520171 Eh           -8328.72966 eV
Kinetic Energy     :          152.46359406 Eh            4148.74531 eV
Virial Ratio       :            2.00752976


DFT components:
N(Alpha)           :       12.000002844527 electrons
N(Beta)            :       12.000002844527 electrons
N(Total)           :       24.000005689053 electrons
E(X)               :      -14.845524843305 Eh       
E(C)               :       -0.775907887717 Eh       
E(XC)              :      -15.621432731022 Eh       
DFET-embed. en.    :        0.000000000000 Eh       

---------------
SCF CONVERGENCE
---------------

  Last Energy change         ...   -1.7742e-09  Tolerance :   1.0000e-08
  Last MAX-Density change    ...    7.7716e-16  Tolerance :   1.0000e-07
  Last RMS-Density change    ...    2.3231e-17  Tolerance :   5.0000e-09
  Last Orbital Gradient      ...    9.3717e-07  Tolerance :   1.0000e-05
  Last Orbital Rotation      ...    1.3554e-06  Tolerance :   1.0000e-05

             **** THE GBW FILE WAS UPDATED (ox_gs_C_orca0006.gbw) ****
             **** DENSITY ox_gs_C_orca0006.scfp WAS UPDATED ****
             **** ENERGY FILE WAS UPDATED (ox_gs_C_orca0006.en.tmp) ****
             **** THE GBW FILE WAS UPDATED (ox_gs_C_orca0006.gbw) ****
             **** DENSITY ox_gs_C_orca0006.scfp WAS UPDATED ****
----------------
ORBITAL ENERGIES
----------------

  NO   OCC          E(Eh)            E(eV) 
   0   2.0000     -19.218101      -522.9511 
   1   2.0000     -10.309261      -280.5292 
   2   2.0000     -10.288585      -279.9666 
   3   2.0000      -1.030728       -28.0475 
   4   2.0000      -0.733367       -19.9559 
   5   2.0000      -0.624404       -16.9909 
   6   2.0000      -0.509234       -13.8570 
   7   2.0000      -0.478498       -13.0206 
   8   2.0000      -0.410300       -11.1648 
   9   2.0000      -0.393303       -10.7023 
  10   2.0000      -0.311501        -8.4764 
  11   2.0000      -0.275825        -7.5056 
  12   0.0000      -0.051342        -1.3971 
  13   0.0000       0.052242         1.4216 
  14   0.0000       0.070324         1.9136 
  15   0.0000       0.086936         2.3656 
  16   0.0000       0.113106         3.0778 
  17   0.0000       0.143686         3.9099 
  18   0.0000       0.183757         5.0003 
  19   0.0000       0.191281         5.2050 
  20   0.0000       0.246857         6.7173 
  21   0.0000       0.263636         7.1739 
  22   0.0000       0.278632         7.5820 
  23   0.0000       0.315040         8.5727 
  24   0.0000       0.375376        10.2145 
  25   0.0000       0.391883        10.6637 
  26   0.0000       0.401554        10.9268 
  27   0.0000       0.409161        11.1338 
  28   0.0000       0.425435        11.5767 
  29   0.0000       0.472542        12.8585 
  30   0.0000       0.490247        13.3403 
  31   0.0000       0.499131        13.5820 
  32   0.0000       0.539894        14.6913 
  33   0.0000       0.650568        17.7028 
  34   0.0000       0.674287        18.3483 
  35   0.0000       0.759916        20.6784 
  36   0.0000       0.814277        22.1576 
  37   0.0000       0.854973        23.2650 
  38   0.0000       0.858832        23.3700 
  39   0.0000       0.918494        24.9935 
  40   0.0000       0.969079        26.3700 
  41   0.0000       1.029650        28.0182 
  42   0.0000       1.051602        28.6155 
  43   0.0000       1.072458        29.1831 
  44   0.0000       1.155747        31.4495 
  45   0.0000       1.362362        37.0717 
  46   0.0000       1.409457        38.3533 
  47   0.0000       1.460411        39.7398 
  48   0.0000       1.500273        40.8245 
  49   0.0000       1.537222        41.8299 
  50   0.0000       1.589218        43.2448 
  51   0.0000       1.600429        43.5499 
  52   0.0000       1.648680        44.8629 
  53   0.0000       1.656517        45.0761 
  54   0.0000       1.703108        46.3439 
  55   0.0000       1.739793        47.3422 
  56   0.0000       1.825772        49.6818 
  57   0.0000       1.859406        50.5970 
  58   0.0000       1.914688        52.1013 
  59   0.0000       1.966125        53.5010 
  60   0.0000       1.976223        53.7758 
  61   0.0000       2.084415        56.7198 
  62   0.0000       2.125463        57.8368 
  63   0.0000       2.182441        59.3872 
  64   0.0000       2.298545        62.5466 
  65   0.0000       2.318755        63.0965 
  66   0.0000       2.407991        65.5248 
  67   0.0000       2.420797        65.8732 
  68   0.0000       2.464034        67.0498 
  69   0.0000       2.498013        67.9744 
  70   0.0000       2.537759        69.0559 
  71   0.0000       2.570115        69.9364 
  72   0.0000       2.643993        71.9467 
  73   0.0000       2.699027        73.4443 
  74   0.0000       2.737322        74.4863 
  75   0.0000       2.763023        75.1857 
  76   0.0000       2.838170        77.2305 
  77   0.0000       2.941442        80.0407 
  78   0.0000       2.984204        81.2043 
  79   0.0000       3.037232        82.6473 
  80   0.0000       3.057221        83.1912 
  81   0.0000       3.087770        84.0225 
  82   0.0000       3.112281        84.6895 
  83   0.0000       3.136821        85.3572 
  84   0.0000       3.172508        86.3283 
  85   0.0000       3.234640        88.0190 
  86   0.0000       3.333252        90.7024 
  87   0.0000       3.355899        91.3187 
  88   0.0000       3.455982        94.0421 
  89   0.0000       3.540225        96.3344 
  90   0.0000       3.584446        97.5377 
  91   0.0000       3.635038        98.9144 
  92   0.0000       3.801003       103.4305 
  93   0.0000       3.829151       104.1965 
  94   0.0000       3.939073       107.1876 
  95   0.0000       4.017494       109.3216 
  96   0.0000       4.055211       110.3479 
  97   0.0000       4.131877       112.4341 
  98   0.0000       4.340616       118.1142 
  99   0.0000       4.478050       121.8539 
 100   0.0000       4.602014       125.2272 
 101   0.0000       4.783892       130.1763 
 102   0.0000       5.253489       142.9547 
 103   0.0000       5.262029       143.1871 
 104   0.0000       5.368273       146.0781 
 105   0.0000       5.459658       148.5648 
 106   0.0000       5.761499       156.7784 
 107   0.0000       5.777454       157.2125 
 108   0.0000       5.955715       162.0632 
 109   0.0000       6.432934       175.0490 
 110   0.0000       6.512525       177.2148 
 111   0.0000       6.773519       184.3168 
 112   0.0000       6.938923       188.8177 
 113   0.0000       7.011048       190.7803 
 114   0.0000      22.083411       600.9202 
 115   0.0000      22.260757       605.7460 
 116   0.0000      43.710183      1189.4145 

                    ********************************
                    * MULLIKEN POPULATION ANALYSIS *
                    ********************************

-----------------------
MULLIKEN ATOMIC CHARGES
-----------------------
   0 O :   -0.343591
   1 C :   -0.021756
   2 C :   -0.159338
   3 H :    0.109898
   4 H :    0.105240
   5 H :    0.150916
   6 H :    0.158633
Sum of atomic charges:   -0.0000000

--------------------------------
MULLIKEN REDUCED ORBITAL CHARGES
--------------------------------
  0 O s       :     3.899476  s :     3.899476
      pz      :     1.881404  p :     4.413958
      px      :     1.314232
      py      :     1.218322
      dz2     :     0.004018  d :     0.028716
      dxz     :     0.000864
      dyz     :     0.005246
      dx2y2   :     0.008595
      dxy     :     0.009993
      f0      :     0.000166  f :     0.001441
      f+1     :     0.000099
      f-1     :     0.000355
      f+2     :     0.000126
      f-2     :     0.000059
      f+3     :     0.000363
      f-3     :     0.000274
  1 C s       :     3.214754  s :     3.214754
      pz      :     1.036206  p :     2.654946
      px      :     0.903978
      py      :     0.714762
      dz2     :     0.008798  d :     0.140979
      dxz     :     0.021618
      dyz     :     0.044653
      dx2y2   :     0.028641
      dxy     :     0.037270
      f0      :     0.001720  f :     0.011078
      f+1     :     0.001204
      f-1     :     0.000820
      f+2     :     0.002499
      f-2     :     0.000465
      f+3     :     0.001771
      f-3     :     0.002599
  2 C s       :     3.303651  s :     3.303651
      pz      :     1.038357  p :     2.780591
      px      :     0.955408
      py      :     0.786825
      dz2     :     0.008740  d :     0.068669
      dxz     :     0.021310
      dyz     :     0.010563
      dx2y2   :     0.011467
      dxy     :     0.016588
      f0      :     0.000693  f :     0.006428
      f+1     :     0.001169
      f-1     :     0.000197
      f+2     :     0.000709
      f-2     :     0.000614
      f+3     :     0.001492
      f-3     :     0.001553
  3 H s       :     0.870053  s :     0.870053
      pz      :     0.010737  p :     0.020049
      px      :     0.005781
      py      :     0.003532
  4 H s       :     0.876675  s :     0.876675
      pz      :     0.009701  p :     0.018085
      px      :     0.005331
      py      :     0.003053
  5 H s       :     0.825311  s :     0.825311
      pz      :     0.012532  p :     0.023774
      px      :     0.006683
      py      :     0.004559
  6 H s       :     0.822634  s :     0.822634
      pz      :     0.009413  p :     0.018733
      px      :     0.005747
      py      :     0.003573


                     *******************************
                     * LOEWDIN POPULATION ANALYSIS *
                     *******************************

----------------------
LOEWDIN ATOMIC CHARGES
----------------------
   0 O :   -0.008396
   1 C :   -0.399815
   2 C :   -0.103004
   3 H :    0.122394
   4 H :    0.123159
   5 H :    0.113174
   6 H :    0.152487

-------------------------------
LOEWDIN REDUCED ORBITAL CHARGES
-------------------------------
  0 O s       :     3.521928  s :     3.521928
      pz      :     1.800071  p :     4.420066
      px      :     1.280052
      py      :     1.339942
      dz2     :     0.008656  d :     0.062327
      dxz     :     0.002051
      dyz     :     0.012753
      dx2y2   :     0.019769
      dxy     :     0.019098
      f0      :     0.000380  f :     0.004075
      f+1     :     0.000144
      f-1     :     0.000682
      f+2     :     0.000532
      f-2     :     0.000217
      f+3     :     0.001137
      f-3     :     0.000983
  1 C s       :     2.856571  s :     2.856571
      pz      :     1.044208  p :     2.907892
      px      :     1.033889
      py      :     0.829794
      dz2     :     0.061434  d :     0.560217
      dxz     :     0.108464
      dyz     :     0.122165
      dx2y2   :     0.136116
      dxy     :     0.132037
      f0      :     0.010770  f :     0.075134
      f+1     :     0.004784
      f-1     :     0.007252
      f+2     :     0.015163
      f-2     :     0.002076
      f+3     :     0.013413
      f-3     :     0.021675
  2 C s       :     2.908412  s :     2.908412
      pz      :     1.069914  p :     2.893619
      px      :     1.071167
      py      :     0.752538
      dz2     :     0.039298  d :     0.271111
      dxz     :     0.101313
      dyz     :     0.023784
      dx2y2   :     0.051326
      dxy     :     0.055390
      f0      :     0.004130  f :     0.029862
      f+1     :     0.003660
      f-1     :     0.001795
      f+2     :     0.003974
      f-2     :     0.001910
      f+3     :     0.006682
      f-3     :     0.007711
  3 H s       :     0.822383  s :     0.822383
      pz      :     0.030758  p :     0.055223
      px      :     0.014922
      py      :     0.009543
  4 H s       :     0.827044  s :     0.827044
      pz      :     0.027743  p :     0.049797
      px      :     0.013679
      py      :     0.008374
  5 H s       :     0.814140  s :     0.814140
      pz      :     0.039338  p :     0.072686
      px      :     0.019560
      py      :     0.013788
  6 H s       :     0.796969  s :     0.796969
      pz      :     0.026680  p :     0.050545
      px      :     0.014518
      py      :     0.009346


                      *****************************
                      * MAYER POPULATION ANALYSIS *
                      *****************************

  NA   - Mulliken gross atomic population
  ZA   - Total nuclear charge
  QA   - Mulliken gross atomic charge
  VA   - Mayer's total valence
  BVA  - Mayer's bonded valence
  FA   - Mayer's free valence

  ATOM       NA         ZA         QA         VA         BVA        FA
  0 O      8.3436     8.0000    -0.3436     1.9406     1.9406    -0.0000
  1 C      6.0218     6.0000    -0.0218     3.9915     3.9915    -0.0000
  2 C      6.1593     6.0000    -0.1593     3.8773     3.8773    -0.0000
  3 H      0.8901     1.0000     0.1099     0.9627     0.9627    -0.0000
  4 H      0.8948     1.0000     0.1052     0.9558     0.9558     0.0000
  5 H      0.8491     1.0000     0.1509     0.9589     0.9589    -0.0000
  6 H      0.8414     1.0000     0.1586     0.9579     0.9579    -0.0000

  Mayer bond orders larger than 0.100000
B(  0-O ,  1-C ) :   1.0156 B(  0-O ,  2-C ) :   0.9073 B(  1-C ,  2-C ) :   1.0689 
B(  1-C ,  3-H ) :   0.9584 B(  1-C ,  4-H ) :   0.9371 B(  2-C ,  5-H ) :   0.9485 
B(  2-C ,  6-H ) :   0.9351 

-------
TIMINGS
-------

Total SCF time: 0 days 0 hours 0 min 2 sec 

Total time                  ....       2.809 sec
Sum of individual times     ....       2.538 sec  ( 90.3%)

Fock matrix formation       ....       2.272 sec  ( 80.9%)
  Split-RI-J                ....       0.245 sec  ( 10.8% of F)
  Chain of spheres X        ....       1.580 sec  ( 69.6% of F)
  XC integration            ....       0.419 sec  ( 18.5% of F)
    Basis function eval.    ....       0.113 sec  ( 26.9% of XC)
    Density eval.           ....       0.085 sec  ( 20.2% of XC)
    XC-Functional eval.     ....       0.024 sec  (  5.8% of XC)
    XC-Potential eval.      ....       0.142 sec  ( 33.8% of XC)
Diagonalization             ....       0.014 sec  (  0.5%)
Density matrix formation    ....       0.001 sec  (  0.0%)
Population analysis         ....       0.004 sec  (  0.1%)
Initial guess               ....       0.017 sec  (  0.6%)
Orbital Transformation      ....       0.000 sec  (  0.0%)
Orbital Orthonormalization  ....       0.000 sec  (  0.0%)
DIIS solution               ....       0.011 sec  (  0.4%)
SOSCF solution              ....       0.015 sec  (  0.5%)
Grid generation             ....       0.204 sec  (  7.3%)

Maximum memory used throughout the entire SCF-calculation: 61.1 MB


-------------------------------------------------------------------------------
                          DFT DISPERSION CORRECTION                            
                                                                               
                              DFTD3 V3.1  Rev 1                                
                          USING Becke-Johnson damping                          
-------------------------------------------------------------------------------
The PBE0 functional is recognized
Active option DFTDOPT                   ...         4   

molecular C6(AA) [au] = 371.847993 


            DFT-D V3
 parameters
 s6 scaling factor         :     1.0000 
 a1 scaling factor         :     0.4145 
 s8 scaling factor         :     1.2177 
 a2 scaling factor         :     4.8593 
 ad hoc parameters k1-k3   :    16.0000     1.3333    -4.0000 

 Edisp/kcal,au: -1.571540856392  -0.002504409501 
 E6   /kcal   :  -1.027062111 
 E8   /kcal   :  -0.544478746 
 % E8         :  34.646171832 

-------------------------   ----------------
Dispersion correction           -0.002504410
-------------------------   ----------------


-------------------------   --------------------
FINAL SINGLE POINT ENERGY      -153.614112064563
-------------------------   --------------------



           ************************************************************
           *        Program running with 8 parallel MPI-processes     *
           *              working on a common directory               *
           ************************************************************
------------------------------------------------------------------------------
                         ORCA SCF GRADIENT CALCULATION
------------------------------------------------------------------------------

 ... reading COSX grid (gridx3)
Gradient of the Kohn-Sham DFT energy:
Kohn-Sham wavefunction type      ... RKS
Hartree-Fock exchange scaling    ...    0.250
Number of operators              ...    1
Number of atoms                  ...    7
Basis set dimensions             ...  117
Integral neglect threshold       ... 2.5e-11
Integral primitive cutoff        ... 2.5e-12
SHARK Integral package           ... ON

Nuc. rep. gradient       (SHARK) ... done (  0.0 sec)
HCore & Overlap gradient (SHARK) ... done (  0.0 sec)
RI-J gradient            (SHARK) ... done (  0.1 sec)
COSX-gradient                    ... done (  0.3 sec)
Exchange-correlation gradient    ... done
Dispersion correction            ... done

------------------
CARTESIAN GRADIENT
------------------

   1   O   :   -0.066184116    0.047736913    0.005839429
   2   C   :    0.022330168   -0.009319523    0.001416355
   3   C   :    0.054990526   -0.016198849   -0.060563801
   4   H   :   -0.008975137    0.015755239    0.022569633
   5   H   :   -0.019049844   -0.002253719   -0.035162556
   6   H   :   -0.014639170   -0.008474110    0.023398429
   7   H   :    0.031591330   -0.027246039    0.042517561

Difference to translation invariance:
           :    0.0000637566   -0.0000000881    0.0000150496

Difference to rotation invariance:
           :   -0.0000230266    0.0000408083    0.0000424235

Norm of the cartesian gradient     ...    0.1451183440
RMS gradient                       ...    0.0316674189
MAX gradient                       ...    0.0661841157

-------
TIMINGS
-------

Total SCF gradient time            ...        0.690 sec

One electron gradient       ....       0.010 sec  (  1.4%)
RI-J Coulomb gradient       ....       0.079 sec  ( 11.5%)
COSX gradient               ....       0.307 sec  ( 44.5%)
XC gradient                 ....       0.148 sec  ( 21.5%)

Maximum memory used throughout the entire SCFGRAD-calculation: 35.9 MB

                            ***************************************
                            *     ORCA property calculations      *
                            ***************************************

                                    ---------------------
                                    Active property flags
                                    ---------------------
   (+) Dipole Moment


------------------------------------------------------------------------------
                       ORCA ELECTRIC PROPERTIES CALCULATION
------------------------------------------------------------------------------

Dipole Moment Calculation                       ... on
Quadrupole Moment Calculation                   ... off
Polarizability Calculation                      ... off
GBWName                                         ... ox_gs_C_orca0006.gbw
Electron density                                ... ox_gs_C_orca0006.scfp
The origin for moment calculation is the CENTER OF MASS  = (-0.371174,  0.172686  0.039334)

-------------
DIPOLE MOMENT
-------------
                                X             Y             Z
Electronic contribution:     -0.25038       1.63307      -0.01766
Nuclear contribution   :      0.58694      -2.64753       0.01019
                        -----------------------------------------
Total Dipole Moment    :      0.33657      -1.01446      -0.00748
                        -----------------------------------------
Magnitude (a.u.)       :      1.06886
Magnitude (Debye)      :      2.71683



--------------------
Rotational spectrum 
--------------------
 
Rotational constants in cm-1:     0.900855     0.535247     0.394522 
Rotational constants in MHz : 27006.945967 16046.299159 11827.463047 

 Dipole components along the rotational axes: 
x,y,z [a.u.] :     0.920704    -0.542907     0.004257 
x,y,z [Debye]:     2.340243    -1.379960     0.010821 

 

Timings for individual modules:

Sum of individual times         ...        4.148 sec (=   0.069 min)
GTO integral calculation        ...        0.288 sec (=   0.005 min)   6.9 %
SCF iterations                  ...        2.973 sec (=   0.050 min)  71.7 %
SCF Gradient evaluation         ...        0.887 sec (=   0.015 min)  21.4 %
                             ****ORCA TERMINATED NORMALLY****
TOTAL RUN TIME: 0 days 0 hours 0 minutes 4 seconds 475 msec
