
                                 *****************
                                 * O   R   C   A *
                                 *****************

                                            #,                                       
                                            ###                                      
                                            ####                                     
                                            #####                                    
                                            ######                                   
                                           ########,                                 
                                     ,,################,,,,,                         
                               ,,#################################,,                 
                          ,,##########################################,,             
                       ,#########################################, ''#####,          
                    ,#############################################,,   '####,        
                  ,##################################################,,,,####,       
                ,###########''''           ''''###############################       
              ,#####''   ,,,,##########,,,,          '''####'''          '####       
            ,##' ,,,,###########################,,,                        '##       
           ' ,,###''''                  '''############,,,                           
         ,,##''                                '''############,,,,        ,,,,,,###''
      ,#''                                            '''#######################'''  
     '                                                          ''''####''''         
             ,#######,   #######,   ,#######,      ##                                
            ,#'     '#,  ##    ##  ,#'     '#,    #''#        ######   ,####,        
            ##       ##  ##   ,#'  ##            #'  '#       #        #'  '#        
            ##       ##  #######   ##           ,######,      #####,   #    #        
            '#,     ,#'  ##    ##  '#,     ,#' ,#      #,         ##   #,  ,#        
             '#######'   ##     ##  '#######'  #'      '#     #####' # '####'        



                  #######################################################
                  #                        -***-                        #
                  #          Department of theory and spectroscopy      #
                  #    Directorship and core code : Frank Neese         #
                  #        Max Planck Institute fuer Kohlenforschung    #
                  #                Kaiser Wilhelm Platz 1               #
                  #                 D-45470 Muelheim/Ruhr               #
                  #                      Germany                        #
                  #                                                     #
                  #                  All rights reserved                #
                  #                        -***-                        #
                  #######################################################


                         Program Version 5.0.2 -  RELEASE  -


 With contributions from (in alphabetic order):
   Daniel Aravena         : Magnetic Suceptibility
   Michael Atanasov       : Ab Initio Ligand Field Theory (pilot matlab implementation)
   Alexander A. Auer      : GIAO ZORA, VPT2 properties, NMR spectrum
   Ute Becker             : Parallelization
   Giovanni Bistoni       : ED, misc. LED, open-shell LED, HFLD
   Martin Brehm           : Molecular dynamics
   Dmytro Bykov           : SCF Hessian
   Vijay G. Chilkuri      : MRCI spin determinant printing, contributions to CSF-ICE
   Dipayan Datta          : RHF DLPNO-CCSD density
   Achintya Kumar Dutta   : EOM-CC, STEOM-CC
   Dmitry Ganyushin       : Spin-Orbit,Spin-Spin,Magnetic field MRCI
   Miquel Garcia          : C-PCM and meta-GGA Hessian, CC/C-PCM, Gaussian charge scheme
   Yang Guo               : DLPNO-NEVPT2, F12-NEVPT2, CIM, IAO-localization
   Andreas Hansen         : Spin unrestricted coupled pair/coupled cluster methods
   Benjamin Helmich-Paris : MC-RPA, TRAH-SCF, COSX integrals
   Lee Huntington         : MR-EOM, pCC
   Robert Izsak           : Overlap fitted RIJCOSX, COSX-SCS-MP3, EOM
   Marcus Kettner         : VPT2
   Christian Kollmar      : KDIIS, OOCD, Brueckner-CCSD(T), CCSD density, CASPT2, CASPT2-K
   Simone Kossmann        : Meta GGA functionals, TD-DFT gradient, OOMP2, MP2 Hessian
   Martin Krupicka        : Initial AUTO-CI
   Lucas Lang             : DCDCAS
   Marvin Lechner         : AUTO-CI (C++ implementation), FIC-MRCC
   Dagmar Lenk            : GEPOL surface, SMD
   Dimitrios Liakos       : Extrapolation schemes; Compound Job, initial MDCI parallelization
   Dimitrios Manganas     : Further ROCIS development; embedding schemes
   Dimitrios Pantazis     : SARC Basis sets
   Anastasios Papadopoulos: AUTO-CI, single reference methods and gradients
   Taras Petrenko         : DFT Hessian,TD-DFT gradient, ASA, ECA, R-Raman, ABS, FL, XAS/XES, NRVS
   Peter Pinski           : DLPNO-MP2, DLPNO-MP2 Gradient
   Christoph Reimann      : Effective Core Potentials
   Marius Retegan         : Local ZFS, SOC
   Christoph Riplinger    : Optimizer, TS searches, QM/MM, DLPNO-CCSD(T), (RO)-DLPNO pert. Triples
   Tobias Risthaus        : Range-separated hybrids, TD-DFT gradient, RPA, STAB
   Michael Roemelt        : Original ROCIS implementation
   Masaaki Saitow         : Open-shell DLPNO-CCSD energy and density
   Barbara Sandhoefer     : DKH picture change effects
   Avijit Sen             : IP-ROCIS
   Kantharuban Sivalingam : CASSCF convergence, NEVPT2, FIC-MRCI
   Bernardo de Souza      : ESD, SOC TD-DFT
   Georgi Stoychev        : AutoAux, RI-MP2 NMR, DLPNO-MP2 response
   Willem Van den Heuvel  : Paramagnetic NMR
   Boris Wezisla          : Elementary symmetry handling
   Frank Wennmohs         : Technical directorship


 We gratefully acknowledge several colleagues who have allowed us to
 interface, adapt or use parts of their codes:
   Stefan Grimme, W. Hujo, H. Kruse, P. Pracht,  : VdW corrections, initial TS optimization,
                  C. Bannwarth, S. Ehlert          DFT functionals, gCP, sTDA/sTD-DF
   Ed Valeev, F. Pavosevic, A. Kumar             : LibInt (2-el integral package), F12 methods
   Garnet Chan, S. Sharma, J. Yang, R. Olivares  : DMRG
   Ulf Ekstrom                                   : XCFun DFT Library
   Mihaly Kallay                                 : mrcc  (arbitrary order and MRCC methods)
   Jiri Pittner, Ondrej Demel                    : Mk-CCSD
   Frank Weinhold                                : gennbo (NPA and NBO analysis)
   Christopher J. Cramer and Donald G. Truhlar   : smd solvation model
   Lars Goerigk                                  : TD-DFT with DH, B97 family of functionals
   V. Asgeirsson, H. Jonsson                     : NEB implementation
   FAccTs GmbH                                   : IRC, NEB, NEB-TS, DLPNO-Multilevel, CI-OPT
                                                   MM, QMMM, 2- and 3-layer-ONIOM, Crystal-QMMM,
                                                   LR-CPCM, SF, NACMEs, symmetry and pop. for TD-DFT,
                                                   nearIR, NL-DFT gradient (VV10), updates on ESD,
                                                   ML-optimized integration grids
   S Lehtola, MJT Oliveira, MAL Marques          : LibXC Library
   Liviu Ungur et al                             : ANISO software


 Your calculation uses the libint2 library for the computation of 2-el integrals
 For citations please refer to: http://libint.valeyev.net

 Your ORCA version has been built with support for libXC version: 5.1.0
 For citations please refer to: https://tddft.org/programs/libxc/

 This ORCA versions uses:
   CBLAS   interface :  Fast vector & matrix operations
   LAPACKE interface :  Fast linear algebra routines
   SCALAPACK package :  Parallel linear algebra routines
   Shared memory     :  Shared parallel matrices
   BLAS/LAPACK       :  OpenBLAS 0.3.15  USE64BITINT DYNAMIC_ARCH NO_AFFINITY SkylakeX SINGLE_THREADED
        Core in use  :  SkylakeX
   Copyright (c) 2011-2014, The OpenBLAS Project


Your calculation utilizes the atom-pairwise dispersion correction
with the Becke-Johnson damping scheme (D3BJ)
Cite in your paper:
S.Grimme, S.Ehrlich, L.Goerigk, J Comput Chem, (2011), 32, 1456–1465 
S.Grimme, J.Antony, S.Ehrlich and H.Krieg, J.Chem.Phys., 132, (2010), 154104 
   

================================================================================

----- Orbital basis set information -----
Your calculation utilizes the basis: def2-TZVP
   F. Weigend and R. Ahlrichs, Phys. Chem. Chem. Phys. 7, 3297 (2005).

----- AuxJ basis set information -----
Your calculation utilizes the auxiliary basis: def2/J
   F. Weigend, Phys. Chem. Chem. Phys. 8, 1057 (2006).

================================================================================
                                        WARNINGS
                       Please study these warnings very carefully!
================================================================================


INFO   : the flag for use of the SHARK integral package has been found!

================================================================================
                                       INPUT FILE
================================================================================
NAME = ox_gs_B_orca0005.inp
|  1> ! engrad PBE0 D3BJ def2-TZVP  
|  2> %pal nprocs 8 end
|  3> %maxcore 3000
|  4>  
|  5> *xyz 0 1 
|  6> O   -0.17642874915015722 0.8444911978248476 -0.023400762749312454
|  7> C   -0.6676608722436913 -0.5110759037572021 0.043773775213716226
|  8> C   0.6433537737985235 -0.46955874515681373 0.03745819029595326
|  9> H   -1.2740195733050625 -0.6773795805832867 0.9540090202190729
| 10> H   -1.3547477195195807 -0.6659173282337145 -0.9002340095336397
| 11> H   1.2514012172809577 -0.6991561923998508 -0.9541204198224668
| 12> H   1.285635750217046 -0.7534214487056619 0.9396616999569333
| 13> *
| 14> 
| 15>                          ****END OF INPUT****
================================================================================

                     *******************************
                     * Energy+Gradient Calculation *
                     *******************************

---------------------------------
CARTESIAN COORDINATES (ANGSTROEM)
---------------------------------
  O     -0.176429    0.844491   -0.023401
  C     -0.667661   -0.511076    0.043774
  C      0.643354   -0.469559    0.037458
  H     -1.274020   -0.677380    0.954009
  H     -1.354748   -0.665917   -0.900234
  H      1.251401   -0.699156   -0.954120
  H      1.285636   -0.753421    0.939662

----------------------------
CARTESIAN COORDINATES (A.U.)
----------------------------
  NO LB      ZA    FRAG     MASS         X           Y           Z
   0 O     8.0000    0    15.999   -0.333402    1.595857   -0.044221
   1 C     6.0000    0    12.011   -1.261696   -0.965793    0.082720
   2 C     6.0000    0    12.011    1.215762   -0.887337    0.070786
   3 H     1.0000    0     1.008   -2.407548   -1.280062    1.802816
   4 H     1.0000    0     1.008   -2.560102   -1.258401   -1.701196
   5 H     1.0000    0     1.008    2.364806   -1.321214   -1.803026
   6 H     1.0000    0     1.008    2.429499   -1.423760    1.775703

--------------------------------
INTERNAL COORDINATES (ANGSTROEM)
--------------------------------
 O      0   0   0     0.000000000000     0.00000000     0.00000000
 C      1   0   0     1.443393080280     0.00000000     0.00000000
 C      2   1   0     1.311687067562    68.27778835     0.00000000
 H      2   1   3     1.106280248639   111.46973507   119.14791238
 H      2   1   3     1.177800874553   106.54110503   237.53753821
 H      3   2   1     1.185607363907   120.69659671   258.64025977
 H      3   2   1     1.143273958657   123.35641137   111.32757040

---------------------------
INTERNAL COORDINATES (A.U.)
---------------------------
 O      0   0   0     0.000000000000     0.00000000     0.00000000
 C      1   0   0     2.727617625327     0.00000000     0.00000000
 C      2   1   0     2.478729331098    68.27778835     0.00000000
 H      2   1   3     2.090566697294   111.46973507   119.14791238
 H      2   1   3     2.225721093197   106.54110503   237.53753821
 H      3   2   1     2.240473220144   120.69659671   258.64025977
 H      3   2   1     2.160474677905   123.35641137   111.32757040

---------------------
BASIS SET INFORMATION
---------------------
There are 3 groups of distinct atoms

 Group   1 Type O   : 11s6p2d1f contracted to 5s3p2d1f pattern {62111/411/11/1}
 Group   2 Type C   : 11s6p2d1f contracted to 5s3p2d1f pattern {62111/411/11/1}
 Group   3 Type H   : 5s1p contracted to 3s1p pattern {311/1}

Atom   0O    basis set group =>   1
Atom   1C    basis set group =>   2
Atom   2C    basis set group =>   2
Atom   3H    basis set group =>   3
Atom   4H    basis set group =>   3
Atom   5H    basis set group =>   3
Atom   6H    basis set group =>   3
---------------------------------
AUXILIARY/J BASIS SET INFORMATION
---------------------------------
There are 3 groups of distinct atoms

 Group   1 Type O   : 12s5p4d2f1g contracted to 6s4p3d1f1g pattern {711111/2111/211/2/1}
 Group   2 Type C   : 12s5p4d2f1g contracted to 6s4p3d1f1g pattern {711111/2111/211/2/1}
 Group   3 Type H   : 5s2p1d contracted to 3s1p1d pattern {311/2/1}

Atom   0O    basis set group =>   1
Atom   1C    basis set group =>   2
Atom   2C    basis set group =>   2
Atom   3H    basis set group =>   3
Atom   4H    basis set group =>   3
Atom   5H    basis set group =>   3
Atom   6H    basis set group =>   3


           ************************************************************
           *        Program running with 8 parallel MPI-processes     *
           *              working on a common directory               *
           ************************************************************
------------------------------------------------------------------------------
                           ORCA GTO INTEGRAL CALCULATION
                           -- RI-GTO INTEGRALS CHOSEN --
------------------------------------------------------------------------------
------------------------------------------------------------------------------
                   ___                                                        
                  /   \      - P O W E R E D   B Y -                         
                 /     \                                                     
                 |  |  |   _    _      __       _____    __    __             
                 |  |  |  | |  | |    /  \     |  _  \  |  |  /  |          
                  \  \/   | |  | |   /    \    | | | |  |  | /  /          
                 / \  \   | |__| |  /  /\  \   | |_| |  |  |/  /          
                |  |  |   |  __  | /  /__\  \  |    /   |      \           
                |  |  |   | |  | | |   __   |  |    \   |  |\   \          
                \     /   | |  | | |  |  |  |  | |\  \  |  | \   \       
                 \___/    |_|  |_| |__|  |__|  |_| \__\ |__|  \__/        
                                                                              
                      - O R C A' S   B I G   F R I E N D -                    
                                      &                                       
                       - I N T E G R A L  F E E D E R -                       
                                                                              
 v1 FN, 2020, v2 2021                                                         
------------------------------------------------------------------------------


Reading SHARK input file ox_gs_B_orca0005.SHARKINP.tmp ... ok
----------------------
SHARK INTEGRAL PACKAGE
----------------------

Number of atoms                             ...      7
Number of basis functions                   ...    117
Number of shells                            ...     49
Maximum angular momentum                    ...      3
Integral batch strategy                     ... SHARK/LIBINT Hybrid
RI-J (if used) integral strategy            ... SPLIT-RIJ (Revised 2003 algorithm where possible)
Printlevel                                  ...      1
Contraction scheme used                     ... SEGMENTED contraction
Coulomb Range Separation                    ... NOT USED
Exchange Range Separation                   ... NOT USED
Finite Nucleus Model                        ... NOT USED
Auxiliary Coulomb fitting basis             ... AVAILABLE
   # of basis functions in Aux-J            ...    191
   # of shells in Aux-J                     ...     65
   Maximum angular momentum in Aux-J        ...      4
Auxiliary J/K fitting basis                 ... NOT available
Auxiliary Correlation fitting basis         ... NOT available
Auxiliary 'external' fitting basis          ... NOT available
Integral threshold                          ...     2.500000e-11
Primitive cut-off                           ...     2.500000e-12
Primitive pair pre-selection threshold      ...     2.500000e-12

Calculating pre-screening integrals         ... done (  0.0 sec) Dimension = 49
Organizing shell pair data                  ... done (  0.0 sec)
Shell pair information
Total number of shell pairs                 ...      1225
Shell pairs after pre-screening             ...      1220
Total number of primitive shell pairs       ...      3648
Primitive shell pairs kept                  ...      3142
          la=0 lb=0:    373 shell pairs
          la=1 lb=0:    351 shell pairs
          la=1 lb=1:     91 shell pairs
          la=2 lb=0:    162 shell pairs
          la=2 lb=1:     78 shell pairs
          la=2 lb=2:     21 shell pairs
          la=3 lb=0:     81 shell pairs
          la=3 lb=1:     39 shell pairs
          la=3 lb=2:     18 shell pairs
          la=3 lb=3:      6 shell pairs

Calculating one electron integrals          ... done (  0.0 sec)
Calculating RI/J V-Matrix + Cholesky decomp.... done (  0.0 sec)
Calculating Nuclear repulsion               ... done (  0.0 sec) ENN=     74.323112235238 Eh

SHARK setup successfully completed in   0.1 seconds

Maximum memory used throughout the entire GTOINT-calculation: 14.9 MB


           ************************************************************
           *        Program running with 8 parallel MPI-processes     *
           *              working on a common directory               *
           ************************************************************
-------------------------------------------------------------------------------
                                 ORCA SCF
-------------------------------------------------------------------------------

------------
SCF SETTINGS
------------
Hamiltonian:
 Density Functional     Method          .... DFT(GTOs)
 Exchange Functional    Exchange        .... PBE
   PBE kappa parameter   XKappa         ....  0.804000
   PBE mue parameter    XMuePBE         ....  0.219520
 Correlation Functional Correlation     .... PBE
   PBE beta parameter  CBetaPBE         ....  0.066725
 LDA part of GGA corr.  LDAOpt          .... PW91-LDA
 Gradients option       PostSCFGGA      .... off
 Hybrid DFT is turned on
   Fraction HF Exchange ScalHFX         ....  0.250000
   Scaling of DF-GGA-X  ScalDFX         ....  0.750000
   Scaling of DF-GGA-C  ScalDFC         ....  1.000000
   Scaling of DF-LDA-C  ScalLDAC        ....  1.000000
   Perturbative correction              ....  0.000000
   Density functional embedding theory  .... OFF
   NL short-range parameter             ....  6.900000
 RI-approximation to the Coulomb term is turned on
   Number of AuxJ basis functions       .... 191
   RIJ-COSX (HFX calculated with COS-X)).... on


General Settings:
 Integral files         IntName         .... ox_gs_B_orca0005
 Hartree-Fock type      HFTyp           .... RHF
 Total Charge           Charge          ....    0
 Multiplicity           Mult            ....    1
 Number of Electrons    NEL             ....   24
 Basis Dimension        Dim             ....  117
 Nuclear Repulsion      ENuc            ....     74.3231122352 Eh

Convergence Acceleration:
 DIIS                   CNVDIIS         .... on
   Start iteration      DIISMaxIt       ....    12
   Startup error        DIISStart       ....  0.200000
   # of expansion vecs  DIISMaxEq       ....     5
   Bias factor          DIISBfac        ....   1.050
   Max. coefficient     DIISMaxC        ....  10.000
 Trust-Rad. Augm. Hess. CNVTRAH         .... auto
   Auto Start mean grad. ratio tolernc. ....  1.125000
   Auto Start start iteration           ....    20
   Auto Start num. interpolation iter.  ....    10
   Max. Number of Micro iterations      ....    16
   Max. Number of Macro iterations      .... Maxiter - #DIIS iter
   Number of Davidson start vectors     ....     2
   Converg. threshold I  (grad. norm)   ....   1.000e-05
   Converg. threshold II (energy diff.) ....   1.000e-08
   Grad. Scal. Fac. for Micro threshold ....   0.100
   Minimum threshold for Micro iter.    ....   0.010
   NR start threshold (gradient norm)   ....   0.001
   Initial trust radius                 ....   0.400
   Minimum AH scaling param. (alpha)    ....   1.000
   Maximum AH scaling param. (alpha)    .... 1000.000
   Orbital update algorithm             .... Taylor
   White noise on init. David. guess    .... on
   Maximum white noise                  ....   0.010
   Quad. conv. algorithm                .... NR
 SOSCF                  CNVSOSCF        .... on
   Start iteration      SOSCFMaxIt      ....   150
   Startup grad/error   SOSCFStart      ....  0.003300
 Level Shifting         CNVShift        .... on
   Level shift para.    LevelShift      ....    0.2500
   Turn off err/grad.   ShiftErr        ....    0.0010
 Zerner damping         CNVZerner       .... off
 Static damping         CNVDamp         .... on
   Fraction old density DampFac         ....    0.7000
   Max. Damping (<1)    DampMax         ....    0.9800
   Min. Damping (>=0)   DampMin         ....    0.0000
   Turn off err/grad.   DampErr         ....    0.1000
 Fernandez-Rico         CNVRico         .... off

SCF Procedure:
 Maximum # iterations   MaxIter         ....   125
 SCF integral mode      SCFMode         .... Direct
   Integral package                     .... SHARK and LIBINT hybrid scheme
 Reset frequency        DirectResetFreq ....    20
 Integral Threshold     Thresh          ....  2.500e-11 Eh
 Primitive CutOff       TCut            ....  2.500e-12 Eh

Convergence Tolerance:
 Convergence Check Mode ConvCheckMode   .... Total+1el-Energy
 Convergence forced     ConvForced      .... 0
 Energy Change          TolE            ....  1.000e-08 Eh
 1-El. energy change                    ....  1.000e-05 Eh
 Orbital Gradient       TolG            ....  1.000e-05
 Orbital Rotation angle TolX            ....  1.000e-05
 DIIS Error             TolErr          ....  5.000e-07


Diagonalization of the overlap matrix:
Smallest eigenvalue                        ... 1.505e-04
Time for diagonalization                   ...    0.001 sec
Threshold for overlap eigenvalues          ... 1.000e-08
Number of eigenvalues below threshold      ... 0
Time for construction of square roots      ...    0.001 sec
Total time needed                          ...    0.003 sec

Time for model grid setup =    0.023 sec

------------------------------
INITIAL GUESS: MODEL POTENTIAL
------------------------------
Loading Hartree-Fock densities                     ... done
Calculating cut-offs                               ... done
Initializing the effective Hamiltonian             ... done
Setting up the integral package (SHARK)            ... done
Starting the Coulomb interaction                   ... done (   0.0 sec)
Reading the grid                                   ... done
Mapping shells                                     ... done
Starting the XC term evaluation                    ... done (   0.0 sec)
  promolecular density results
     # of electrons  =     23.997515457
     EX              =    -19.514214401
     EC              =     -0.778017570
     EX+EC           =    -20.292231971
Transforming the Hamiltonian                       ... done (   0.0 sec)
Diagonalizing the Hamiltonian                      ... done (   0.0 sec)
Back transforming the eigenvectors                 ... done (   0.0 sec)
Now organizing SCF variables                       ... done
                      ------------------
                      INITIAL GUESS DONE (   0.0 sec)
                      ------------------
-------------------
DFT GRID GENERATION
-------------------

General Integration Accuracy     IntAcc      ... 4.388
Radial Grid Type                 RadialGrid  ... OptM3 with GC (2021)
Angular Grid (max. ang.)         AngularGrid ... 4 (Lebedev-302)
Angular grid pruning method      GridPruning ... 4 (adaptive)
Weight generation scheme         WeightScheme... Becke
Basis function cutoff            BFCut       ... 1.0000e-11
Integration weight cutoff        WCut        ... 1.0000e-14
Angular grids for H and He will be reduced by one unit
Partially contracted basis set               ... off
Rotationally invariant grid construction     ... off

Total number of grid points                  ...    31314
Total number of batches                      ...      494
Average number of points per batch           ...       63
Average number of grid points per atom       ...     4473
Time for grid setup =    0.109 sec

--------------------
COSX GRID GENERATION
--------------------

GRIDX 1
-------
General Integration Accuracy     IntAcc      ... 3.816
Radial Grid Type                 RadialGrid  ... OptM3 with GC (2021)
Angular Grid (max. ang.)         AngularGrid ... 1 (Lebedev-50)
Angular grid pruning method      GridPruning ... 4 (adaptive)
Weight generation scheme         WeightScheme... Becke
Basis function cutoff            BFCut       ... 1.0000e-11
Integration weight cutoff        WCut        ... 1.0000e-14
Angular grids for H and He will be reduced by one unit
Partially contracted basis set               ... on
Rotationally invariant grid construction     ... off

Total number of grid points                  ...     4039
Total number of batches                      ...       68
Average number of points per batch           ...       59
Average number of grid points per atom       ...      577
UseSFitting                                  ... on

GRIDX 2
-------
General Integration Accuracy     IntAcc      ... 4.020
Radial Grid Type                 RadialGrid  ... OptM3 with GC (2021)
Angular Grid (max. ang.)         AngularGrid ... 2 (Lebedev-110)
Angular grid pruning method      GridPruning ... 4 (adaptive)
Weight generation scheme         WeightScheme... Becke
Basis function cutoff            BFCut       ... 1.0000e-11
Integration weight cutoff        WCut        ... 1.0000e-14
Angular grids for H and He will be reduced by one unit
Partially contracted basis set               ... on
Rotationally invariant grid construction     ... off

Total number of grid points                  ...     8727
Total number of batches                      ...      140
Average number of points per batch           ...       62
Average number of grid points per atom       ...     1247
UseSFitting                                  ... on

GRIDX 3
-------
General Integration Accuracy     IntAcc      ... 4.338
Radial Grid Type                 RadialGrid  ... OptM3 with GC (2021)
Angular Grid (max. ang.)         AngularGrid ... 3 (Lebedev-194)
Angular grid pruning method      GridPruning ... 4 (adaptive)
Weight generation scheme         WeightScheme... Becke
Basis function cutoff            BFCut       ... 1.0000e-11
Integration weight cutoff        WCut        ... 1.0000e-14
Angular grids for H and He will be reduced by one unit
Partially contracted basis set               ... on
Rotationally invariant grid construction     ... off

Total number of grid points                  ...    19261
Total number of batches                      ...      304
Average number of points per batch           ...       63
Average number of grid points per atom       ...     2752
UseSFitting                                  ... on

Time for X-Grid setup             =    0.072 sec

--------------
SCF ITERATIONS
--------------
ITER       Energy         Delta-E        Max-DP      RMS-DP      [F,P]     Damp
               ***  Starting incremental Fock matrix formation  ***
  0   -153.5601550874   0.000000000000 0.03355848  0.00127052  0.1796996 0.7000
  1   -153.5932329245  -0.033077837069 0.01786130  0.00092876  0.0727688 0.7000
                               ***Turning on DIIS***
  2   -153.6060562073  -0.012823282814 0.02885487  0.00147529  0.0327443 0.0000
  3   -153.6262842886  -0.020228081284 0.01650218  0.00074527  0.0410883 0.0000
  4   -153.6308927174  -0.004608428844 0.00494731  0.00020668  0.0103996 0.0000
  5   -153.6311082119  -0.000215494517 0.00172846  0.00007976  0.0053142 0.0000
                      *** Initiating the SOSCF procedure ***
                           *** Shutting down DIIS ***
                      *** Re-Reading the Fockian *** 
                      *** Removing any level shift *** 
ITER      Energy       Delta-E        Grad      Rot      Max-DP    RMS-DP
  6   -153.63114796  -0.0000397504  0.000194  0.000194  0.001018  0.000037
               *** Restarting incremental Fock matrix formation ***
  7   -153.63113837   0.0000095935  0.000089  0.000139  0.000188  0.000007
  8   -153.63113820   0.0000001688  0.000161  0.000094  0.000134  0.000005
  9   -153.63113846  -0.0000002602  0.000014  0.000023  0.000032  0.000001
 10   -153.63113846   0.0000000009  0.000017  0.000013  0.000018  0.000001
                  ***Gradient check signals convergence***
              ***Rediagonalizing the Fockian in SOSCF/NRSCF***

               *****************************************************
               *                     SUCCESS                       *
               *           SCF CONVERGED AFTER  11 CYCLES          *
               *****************************************************

Old exchange energy                            =     -4.978337819 Eh
New exchange energy                            =     -4.978348557 Eh
Exchange energy change after final integration =     -0.000010739 Eh
Total energy after final integration           =   -153.631149204 Eh
Final COS-X integration done in                =     0.249 sec

----------------
TOTAL SCF ENERGY
----------------

Total Energy       :         -153.63114920 Eh           -4180.51610 eV

Components:
Nuclear Repulsion  :           74.32311224 Eh            2022.43470 eV
Electronic Energy  :         -227.95426144 Eh           -6202.95081 eV
One Electron Energy:         -355.38163528 Eh           -9670.42593 eV
Two Electron Energy:          127.42737384 Eh            3467.47513 eV
Max COSX asymmetry :            0.00000147 Eh               0.00004 eV

Virial components:
Potential Energy   :         -306.47945563 Eh           -8339.72997 eV
Kinetic Energy     :          152.84830643 Eh            4159.21387 eV
Virial Ratio       :            2.00512170


DFT components:
N(Alpha)           :       11.999996908909 electrons
N(Beta)            :       11.999996908909 electrons
N(Total)           :       23.999993817818 electrons
E(X)               :      -14.916688682657 Eh       
E(C)               :       -0.786595963172 Eh       
E(XC)              :      -15.703284645829 Eh       
DFET-embed. en.    :        0.000000000000 Eh       

---------------
SCF CONVERGENCE
---------------

  Last Energy change         ...   -5.5985e-09  Tolerance :   1.0000e-08
  Last MAX-Density change    ...    4.4409e-16  Tolerance :   1.0000e-07
  Last RMS-Density change    ...    1.6900e-17  Tolerance :   5.0000e-09
  Last Orbital Gradient      ...    6.4421e-07  Tolerance :   1.0000e-05
  Last Orbital Rotation      ...    9.1693e-07  Tolerance :   1.0000e-05

             **** THE GBW FILE WAS UPDATED (ox_gs_B_orca0005.gbw) ****
             **** DENSITY ox_gs_B_orca0005.scfp WAS UPDATED ****
             **** ENERGY FILE WAS UPDATED (ox_gs_B_orca0005.en.tmp) ****
             **** THE GBW FILE WAS UPDATED (ox_gs_B_orca0005.gbw) ****
             **** DENSITY ox_gs_B_orca0005.scfp WAS UPDATED ****
----------------
ORBITAL ENERGIES
----------------

  NO   OCC          E(Eh)            E(eV) 
   0   2.0000     -19.220713      -523.0222 
   1   2.0000     -10.291293      -280.0403 
   2   2.0000     -10.275389      -279.6075 
   3   2.0000      -1.080736       -29.4083 
   4   2.0000      -0.735690       -20.0191 
   5   2.0000      -0.627011       -17.0618 
   6   2.0000      -0.521628       -14.1942 
   7   2.0000      -0.505167       -13.7463 
   8   2.0000      -0.386854       -10.5268 
   9   2.0000      -0.371389       -10.1060 
  10   2.0000      -0.357424        -9.7260 
  11   2.0000      -0.284214        -7.7338 
  12   0.0000       0.034810         0.9472 
  13   0.0000       0.054023         1.4701 
  14   0.0000       0.073285         1.9942 
  15   0.0000       0.080766         2.1978 
  16   0.0000       0.103659         2.8207 
  17   0.0000       0.151959         4.1350 
  18   0.0000       0.181481         4.9383 
  19   0.0000       0.224085         6.0977 
  20   0.0000       0.262642         7.1469 
  21   0.0000       0.274282         7.4636 
  22   0.0000       0.280426         7.6308 
  23   0.0000       0.298548         8.1239 
  24   0.0000       0.372642        10.1401 
  25   0.0000       0.393811        10.7161 
  26   0.0000       0.403645        10.9837 
  27   0.0000       0.421191        11.4612 
  28   0.0000       0.441777        12.0214 
  29   0.0000       0.473793        12.8926 
  30   0.0000       0.498694        13.5701 
  31   0.0000       0.528337        14.3768 
  32   0.0000       0.555844        15.1253 
  33   0.0000       0.680030        18.5046 
  34   0.0000       0.704628        19.1739 
  35   0.0000       0.752642        20.4804 
  36   0.0000       0.812828        22.1182 
  37   0.0000       0.840651        22.8753 
  38   0.0000       0.856507        23.3067 
  39   0.0000       0.978342        26.6220 
  40   0.0000       0.995865        27.0989 
  41   0.0000       1.055280        28.7156 
  42   0.0000       1.103203        30.0197 
  43   0.0000       1.113366        30.2962 
  44   0.0000       1.215562        33.0771 
  45   0.0000       1.375047        37.4169 
  46   0.0000       1.484731        40.4016 
  47   0.0000       1.493995        40.6537 
  48   0.0000       1.505244        40.9598 
  49   0.0000       1.522727        41.4355 
  50   0.0000       1.552845        42.2551 
  51   0.0000       1.613081        43.8942 
  52   0.0000       1.631636        44.3991 
  53   0.0000       1.668848        45.4117 
  54   0.0000       1.722994        46.8850 
  55   0.0000       1.773709        48.2651 
  56   0.0000       1.844933        50.2032 
  57   0.0000       1.853679        50.4412 
  58   0.0000       1.908435        51.9312 
  59   0.0000       2.002700        54.4962 
  60   0.0000       2.059588        56.0442 
  61   0.0000       2.142995        58.3138 
  62   0.0000       2.173067        59.1322 
  63   0.0000       2.247140        61.1478 
  64   0.0000       2.278737        62.0076 
  65   0.0000       2.324136        63.2430 
  66   0.0000       2.388198        64.9862 
  67   0.0000       2.446346        66.5685 
  68   0.0000       2.503415        68.1214 
  69   0.0000       2.520514        68.5867 
  70   0.0000       2.555244        69.5317 
  71   0.0000       2.665840        72.5412 
  72   0.0000       2.703877        73.5762 
  73   0.0000       2.711634        73.7873 
  74   0.0000       2.731990        74.3412 
  75   0.0000       2.769169        75.3529 
  76   0.0000       2.841972        77.3340 
  77   0.0000       2.924886        79.5902 
  78   0.0000       2.972831        80.8949 
  79   0.0000       3.060556        83.2820 
  80   0.0000       3.064533        83.3902 
  81   0.0000       3.074637        83.6651 
  82   0.0000       3.089327        84.0649 
  83   0.0000       3.206081        87.2419 
  84   0.0000       3.291423        89.5642 
  85   0.0000       3.342605        90.9569 
  86   0.0000       3.365621        91.5832 
  87   0.0000       3.392105        92.3039 
  88   0.0000       3.519860        95.7803 
  89   0.0000       3.610916        98.2580 
  90   0.0000       3.625803        98.6631 
  91   0.0000       3.683579       100.2353 
  92   0.0000       3.947658       107.4212 
  93   0.0000       4.093681       111.3947 
  94   0.0000       4.122209       112.1710 
  95   0.0000       4.206146       114.4551 
  96   0.0000       4.339011       118.0705 
  97   0.0000       4.373703       119.0145 
  98   0.0000       4.467177       121.5581 
  99   0.0000       4.497813       122.3917 
 100   0.0000       4.703249       127.9819 
 101   0.0000       4.823556       131.2556 
 102   0.0000       5.258018       143.0779 
 103   0.0000       5.355413       145.7282 
 104   0.0000       5.556604       151.2029 
 105   0.0000       5.644696       153.6000 
 106   0.0000       5.717889       155.5917 
 107   0.0000       5.778354       157.2370 
 108   0.0000       5.968203       162.4031 
 109   0.0000       6.506174       177.0420 
 110   0.0000       6.549490       178.2207 
 111   0.0000       6.769478       184.2069 
 112   0.0000       6.968930       189.6342 
 113   0.0000       7.140796       194.3109 
 114   0.0000      22.068836       600.5235 
 115   0.0000      22.558804       613.8563 
 116   0.0000      43.786342      1191.4869 

                    ********************************
                    * MULLIKEN POPULATION ANALYSIS *
                    ********************************

-----------------------
MULLIKEN ATOMIC CHARGES
-----------------------
   0 O :   -0.335384
   1 C :   -0.055764
   2 C :   -0.095513
   3 H :    0.117347
   4 H :    0.117964
   5 H :    0.121886
   6 H :    0.129464
Sum of atomic charges:   -0.0000000

--------------------------------
MULLIKEN REDUCED ORBITAL CHARGES
--------------------------------
  0 O s       :     3.888000  s :     3.888000
      pz      :     1.858945  p :     4.409353
      px      :     1.383927
      py      :     1.166481
      dz2     :     0.005338  d :     0.036101
      dxz     :     0.001757
      dyz     :     0.006094
      dx2y2   :     0.010846
      dxy     :     0.012066
      f0      :     0.000213  f :     0.001930
      f+1     :     0.000130
      f-1     :     0.000449
      f+2     :     0.000127
      f-2     :     0.000129
      f+3     :     0.000421
      f-3     :     0.000461
  1 C s       :     3.184520  s :     3.184520
      pz      :     1.056732  p :     2.725788
      px      :     0.944741
      py      :     0.724316
      dz2     :     0.005842  d :     0.133787
      dxz     :     0.029910
      dyz     :     0.035155
      dx2y2   :     0.034955
      dxy     :     0.027925
      f0      :     0.001600  f :     0.011669
      f+1     :     0.001106
      f-1     :     0.000711
      f+2     :     0.002514
      f-2     :     0.000935
      f+3     :     0.001430
      f-3     :     0.003372
  2 C s       :     3.223041  s :     3.223041
      pz      :     1.028215  p :     2.753430
      px      :     0.962173
      py      :     0.763043
      dz2     :     0.006374  d :     0.108867
      dxz     :     0.028817
      dyz     :     0.023671
      dx2y2   :     0.026701
      dxy     :     0.023303
      f0      :     0.001211  f :     0.010176
      f+1     :     0.001053
      f-1     :     0.000549
      f+2     :     0.001526
      f-2     :     0.001267
      f+3     :     0.001668
      f-3     :     0.002902
  3 H s       :     0.862246  s :     0.862246
      pz      :     0.010227  p :     0.020407
      px      :     0.006850
      py      :     0.003330
  4 H s       :     0.864197  s :     0.864197
      pz      :     0.008887  p :     0.017839
      px      :     0.006179
      py      :     0.002773
  5 H s       :     0.860181  s :     0.860181
      pz      :     0.009628  p :     0.017933
      px      :     0.005489
      py      :     0.002815
  6 H s       :     0.850999  s :     0.850999
      pz      :     0.009358  p :     0.019537
      px      :     0.006790
      py      :     0.003389


                     *******************************
                     * LOEWDIN POPULATION ANALYSIS *
                     *******************************

----------------------
LOEWDIN ATOMIC CHARGES
----------------------
   0 O :    0.060343
   1 C :   -0.358661
   2 C :   -0.254684
   3 H :    0.127003
   4 H :    0.139065
   5 H :    0.146983
   6 H :    0.139951

-------------------------------
LOEWDIN REDUCED ORBITAL CHARGES
-------------------------------
  0 O s       :     3.463732  s :     3.463732
      pz      :     1.764270  p :     4.398622
      px      :     1.359232
      py      :     1.275120
      dz2     :     0.011156  d :     0.072317
      dxz     :     0.004527
      dyz     :     0.012718
      dx2y2   :     0.025140
      dxy     :     0.018776
      f0      :     0.000464  f :     0.004986
      f+1     :     0.000152
      f-1     :     0.000929
      f+2     :     0.000299
      f-2     :     0.000474
      f+3     :     0.000992
      f-3     :     0.001676
  1 C s       :     2.812063  s :     2.812063
      pz      :     1.019898  p :     2.890983
      px      :     1.093199
      py      :     0.777886
      dz2     :     0.052114  d :     0.570954
      dxz     :     0.170289
      dyz     :     0.090216
      dx2y2   :     0.134039
      dxy     :     0.124296
      f0      :     0.010456  f :     0.084661
      f+1     :     0.006218
      f-1     :     0.006779
      f+2     :     0.015698
      f-2     :     0.003458
      f+3     :     0.015201
      f-3     :     0.026851
  2 C s       :     2.829554  s :     2.829554
      pz      :     1.020226  p :     2.887127
      px      :     1.106136
      py      :     0.760765
      dz2     :     0.044280  d :     0.471871
      dxz     :     0.161064
      dyz     :     0.062824
      dx2y2   :     0.099050
      dxy     :     0.104653
      f0      :     0.007863  f :     0.066132
      f+1     :     0.005686
      f-1     :     0.004727
      f+2     :     0.009160
      f-2     :     0.004729
      f+3     :     0.013700
      f-3     :     0.020268
  3 H s       :     0.816060  s :     0.816060
      pz      :     0.030199  p :     0.056937
      px      :     0.017127
      py      :     0.009611
  4 H s       :     0.813719  s :     0.813719
      pz      :     0.025177  p :     0.047216
      px      :     0.014642
      py      :     0.007397
  5 H s       :     0.805980  s :     0.805980
      pz      :     0.026710  p :     0.047037
      px      :     0.012696
      py      :     0.007631
  6 H s       :     0.806813  s :     0.806813
      pz      :     0.027357  p :     0.053236
      px      :     0.016419
      py      :     0.009461


                      *****************************
                      * MAYER POPULATION ANALYSIS *
                      *****************************

  NA   - Mulliken gross atomic population
  ZA   - Total nuclear charge
  QA   - Mulliken gross atomic charge
  VA   - Mayer's total valence
  BVA  - Mayer's bonded valence
  FA   - Mayer's free valence

  ATOM       NA         ZA         QA         VA         BVA        FA
  0 O      8.3354     8.0000    -0.3354     1.9636     1.9636    -0.0000
  1 C      6.0558     6.0000    -0.0558     4.0245     4.0245    -0.0000
  2 C      6.0955     6.0000    -0.0955     4.0130     4.0130    -0.0000
  3 H      0.8827     1.0000     0.1173     0.9581     0.9581    -0.0000
  4 H      0.8820     1.0000     0.1180     0.9611     0.9611    -0.0000
  5 H      0.8781     1.0000     0.1219     0.9573     0.9573    -0.0000
  6 H      0.8705     1.0000     0.1295     0.9532     0.9532     0.0000

  Mayer bond orders larger than 0.100000
B(  0-O ,  1-C ) :   0.9585 B(  0-O ,  2-C ) :   0.9737 B(  1-C ,  2-C ) :   1.1575 
B(  1-C ,  3-H ) :   0.9431 B(  1-C ,  4-H ) :   0.9372 B(  2-C ,  5-H ) :   0.9280 
B(  2-C ,  6-H ) :   0.9289 

-------
TIMINGS
-------

Total SCF time: 0 days 0 hours 0 min 2 sec 

Total time                  ....       2.728 sec
Sum of individual times     ....       2.284 sec  ( 83.7%)

Fock matrix formation       ....       2.022 sec  ( 74.1%)
  Split-RI-J                ....       0.229 sec  ( 11.3% of F)
  Chain of spheres X        ....       1.388 sec  ( 68.7% of F)
  XC integration            ....       0.383 sec  ( 18.9% of F)
    Basis function eval.    ....       0.102 sec  ( 26.7% of XC)
    Density eval.           ....       0.078 sec  ( 20.4% of XC)
    XC-Functional eval.     ....       0.022 sec  (  5.6% of XC)
    XC-Potential eval.      ....       0.135 sec  ( 35.2% of XC)
Diagonalization             ....       0.015 sec  (  0.6%)
Density matrix formation    ....       0.001 sec  (  0.1%)
Population analysis         ....       0.002 sec  (  0.1%)
Initial guess               ....       0.017 sec  (  0.6%)
Orbital Transformation      ....       0.000 sec  (  0.0%)
Orbital Orthonormalization  ....       0.000 sec  (  0.0%)
DIIS solution               ....       0.013 sec  (  0.5%)
SOSCF solution              ....       0.010 sec  (  0.4%)
Grid generation             ....       0.203 sec  (  7.4%)

Maximum memory used throughout the entire SCF-calculation: 61.1 MB


-------------------------------------------------------------------------------
                          DFT DISPERSION CORRECTION                            
                                                                               
                              DFTD3 V3.1  Rev 1                                
                          USING Becke-Johnson damping                          
-------------------------------------------------------------------------------
The PBE0 functional is recognized
Active option DFTDOPT                   ...         4   

molecular C6(AA) [au] = 351.891921 


            DFT-D V3
 parameters
 s6 scaling factor         :     1.0000 
 a1 scaling factor         :     0.4145 
 s8 scaling factor         :     1.2177 
 a2 scaling factor         :     4.8593 
 ad hoc parameters k1-k3   :    16.0000     1.3333    -4.0000 

 Edisp/kcal,au: -1.507622223024  -0.002402548686 
 E6   /kcal   :  -0.987953382 
 E8   /kcal   :  -0.519668841 
 % E8         :  34.469433597 

-------------------------   ----------------
Dispersion correction           -0.002402549
-------------------------   ----------------


-------------------------   --------------------
FINAL SINGLE POINT ENERGY      -153.633551752355
-------------------------   --------------------



           ************************************************************
           *        Program running with 8 parallel MPI-processes     *
           *              working on a common directory               *
           ************************************************************
------------------------------------------------------------------------------
                         ORCA SCF GRADIENT CALCULATION
------------------------------------------------------------------------------

 ... reading COSX grid (gridx3)
Gradient of the Kohn-Sham DFT energy:
Kohn-Sham wavefunction type      ... RKS
Hartree-Fock exchange scaling    ...    0.250
Number of operators              ...    1
Number of atoms                  ...    7
Basis set dimensions             ...  117
Integral neglect threshold       ... 2.5e-11
Integral primitive cutoff        ... 2.5e-12
SHARK Integral package           ... ON

Nuc. rep. gradient       (SHARK) ... done (  0.0 sec)
HCore & Overlap gradient (SHARK) ... done (  0.0 sec)
RI-J gradient            (SHARK) ... done (  0.1 sec)
COSX-gradient                    ... done (  0.3 sec)
Exchange-correlation gradient    ... done
Dispersion correction            ... done

------------------
CARTESIAN GRADIENT
------------------

   1   O   :   -0.041321820    0.050840999   -0.014248893
   2   C   :    0.187849189   -0.018191003    0.029131714
   3   C   :   -0.154155638   -0.014092460    0.032135668
   4   H   :   -0.010252896    0.005260078    0.005727453
   5   H   :   -0.031348696    0.008935851   -0.032696135
   6   H   :    0.027282026   -0.013185245   -0.039642739
   7   H   :    0.021890917   -0.019449167    0.019633719

Difference to translation invariance:
           :   -0.0000569182    0.0001190530    0.0000407878

Difference to rotation invariance:
           :    0.0000784321    0.0000483520    0.0001134755

Norm of the cartesian gradient     ...    0.2683046225
RMS gradient                       ...    0.0585488687
MAX gradient                       ...    0.1878491889

-------
TIMINGS
-------

Total SCF gradient time            ...        0.672 sec

One electron gradient       ....       0.009 sec  (  1.4%)
RI-J Coulomb gradient       ....       0.073 sec  ( 10.8%)
COSX gradient               ....       0.297 sec  ( 44.2%)
XC gradient                 ....       0.151 sec  ( 22.4%)

Maximum memory used throughout the entire SCFGRAD-calculation: 35.9 MB

                            ***************************************
                            *     ORCA property calculations      *
                            ***************************************

                                    ---------------------
                                    Active property flags
                                    ---------------------
   (+) Dipole Moment


------------------------------------------------------------------------------
                       ORCA ELECTRIC PROPERTIES CALCULATION
------------------------------------------------------------------------------

Dipole Moment Calculation                       ... on
Quadrupole Moment Calculation                   ... off
Polarizability Calculation                      ... off
GBWName                                         ... ox_gs_B_orca0005.gbw
Electron density                                ... ox_gs_B_orca0005.scfp
The origin for moment calculation is the CENTER OF MASS  = (-0.137574, -0.046570  0.027493)

-------------
DIPOLE MOMENT
-------------
                                X             Y             Z
Electronic contribution:     -0.08271       1.61483       0.08161
Nuclear contribution   :      0.18561      -2.51769      -0.01827
                        -----------------------------------------
Total Dipole Moment    :      0.10290      -0.90286       0.06333
                        -----------------------------------------
Magnitude (a.u.)       :      0.91091
Magnitude (Debye)      :      2.31534



--------------------
Rotational spectrum 
--------------------
 
Rotational constants in cm-1:     0.863816     0.700572     0.461696 
Rotational constants in MHz : 25896.542983 21002.628991 13841.298707 

 Dipole components along the rotational axes: 
x,y,z [a.u.] :    -0.816029    -0.404575     0.013014 
x,y,z [Debye]:    -2.074180    -1.028347     0.033078 

 

Timings for individual modules:

Sum of individual times         ...        4.050 sec (=   0.067 min)
GTO integral calculation        ...        0.284 sec (=   0.005 min)   7.0 %
SCF iterations                  ...        2.900 sec (=   0.048 min)  71.6 %
SCF Gradient evaluation         ...        0.866 sec (=   0.014 min)  21.4 %
                             ****ORCA TERMINATED NORMALLY****
TOTAL RUN TIME: 0 days 0 hours 0 minutes 4 seconds 430 msec
