
                                 *****************
                                 * O   R   C   A *
                                 *****************

                                            #,                                       
                                            ###                                      
                                            ####                                     
                                            #####                                    
                                            ######                                   
                                           ########,                                 
                                     ,,################,,,,,                         
                               ,,#################################,,                 
                          ,,##########################################,,             
                       ,#########################################, ''#####,          
                    ,#############################################,,   '####,        
                  ,##################################################,,,,####,       
                ,###########''''           ''''###############################       
              ,#####''   ,,,,##########,,,,          '''####'''          '####       
            ,##' ,,,,###########################,,,                        '##       
           ' ,,###''''                  '''############,,,                           
         ,,##''                                '''############,,,,        ,,,,,,###''
      ,#''                                            '''#######################'''  
     '                                                          ''''####''''         
             ,#######,   #######,   ,#######,      ##                                
            ,#'     '#,  ##    ##  ,#'     '#,    #''#        ######   ,####,        
            ##       ##  ##   ,#'  ##            #'  '#       #        #'  '#        
            ##       ##  #######   ##           ,######,      #####,   #    #        
            '#,     ,#'  ##    ##  '#,     ,#' ,#      #,         ##   #,  ,#        
             '#######'   ##     ##  '#######'  #'      '#     #####' # '####'        



                  #######################################################
                  #                        -***-                        #
                  #          Department of theory and spectroscopy      #
                  #    Directorship and core code : Frank Neese         #
                  #        Max Planck Institute fuer Kohlenforschung    #
                  #                Kaiser Wilhelm Platz 1               #
                  #                 D-45470 Muelheim/Ruhr               #
                  #                      Germany                        #
                  #                                                     #
                  #                  All rights reserved                #
                  #                        -***-                        #
                  #######################################################


                         Program Version 5.0.2 -  RELEASE  -


 With contributions from (in alphabetic order):
   Daniel Aravena         : Magnetic Suceptibility
   Michael Atanasov       : Ab Initio Ligand Field Theory (pilot matlab implementation)
   Alexander A. Auer      : GIAO ZORA, VPT2 properties, NMR spectrum
   Ute Becker             : Parallelization
   Giovanni Bistoni       : ED, misc. LED, open-shell LED, HFLD
   Martin Brehm           : Molecular dynamics
   Dmytro Bykov           : SCF Hessian
   Vijay G. Chilkuri      : MRCI spin determinant printing, contributions to CSF-ICE
   Dipayan Datta          : RHF DLPNO-CCSD density
   Achintya Kumar Dutta   : EOM-CC, STEOM-CC
   Dmitry Ganyushin       : Spin-Orbit,Spin-Spin,Magnetic field MRCI
   Miquel Garcia          : C-PCM and meta-GGA Hessian, CC/C-PCM, Gaussian charge scheme
   Yang Guo               : DLPNO-NEVPT2, F12-NEVPT2, CIM, IAO-localization
   Andreas Hansen         : Spin unrestricted coupled pair/coupled cluster methods
   Benjamin Helmich-Paris : MC-RPA, TRAH-SCF, COSX integrals
   Lee Huntington         : MR-EOM, pCC
   Robert Izsak           : Overlap fitted RIJCOSX, COSX-SCS-MP3, EOM
   Marcus Kettner         : VPT2
   Christian Kollmar      : KDIIS, OOCD, Brueckner-CCSD(T), CCSD density, CASPT2, CASPT2-K
   Simone Kossmann        : Meta GGA functionals, TD-DFT gradient, OOMP2, MP2 Hessian
   Martin Krupicka        : Initial AUTO-CI
   Lucas Lang             : DCDCAS
   Marvin Lechner         : AUTO-CI (C++ implementation), FIC-MRCC
   Dagmar Lenk            : GEPOL surface, SMD
   Dimitrios Liakos       : Extrapolation schemes; Compound Job, initial MDCI parallelization
   Dimitrios Manganas     : Further ROCIS development; embedding schemes
   Dimitrios Pantazis     : SARC Basis sets
   Anastasios Papadopoulos: AUTO-CI, single reference methods and gradients
   Taras Petrenko         : DFT Hessian,TD-DFT gradient, ASA, ECA, R-Raman, ABS, FL, XAS/XES, NRVS
   Peter Pinski           : DLPNO-MP2, DLPNO-MP2 Gradient
   Christoph Reimann      : Effective Core Potentials
   Marius Retegan         : Local ZFS, SOC
   Christoph Riplinger    : Optimizer, TS searches, QM/MM, DLPNO-CCSD(T), (RO)-DLPNO pert. Triples
   Tobias Risthaus        : Range-separated hybrids, TD-DFT gradient, RPA, STAB
   Michael Roemelt        : Original ROCIS implementation
   Masaaki Saitow         : Open-shell DLPNO-CCSD energy and density
   Barbara Sandhoefer     : DKH picture change effects
   Avijit Sen             : IP-ROCIS
   Kantharuban Sivalingam : CASSCF convergence, NEVPT2, FIC-MRCI
   Bernardo de Souza      : ESD, SOC TD-DFT
   Georgi Stoychev        : AutoAux, RI-MP2 NMR, DLPNO-MP2 response
   Willem Van den Heuvel  : Paramagnetic NMR
   Boris Wezisla          : Elementary symmetry handling
   Frank Wennmohs         : Technical directorship


 We gratefully acknowledge several colleagues who have allowed us to
 interface, adapt or use parts of their codes:
   Stefan Grimme, W. Hujo, H. Kruse, P. Pracht,  : VdW corrections, initial TS optimization,
                  C. Bannwarth, S. Ehlert          DFT functionals, gCP, sTDA/sTD-DF
   Ed Valeev, F. Pavosevic, A. Kumar             : LibInt (2-el integral package), F12 methods
   Garnet Chan, S. Sharma, J. Yang, R. Olivares  : DMRG
   Ulf Ekstrom                                   : XCFun DFT Library
   Mihaly Kallay                                 : mrcc  (arbitrary order and MRCC methods)
   Jiri Pittner, Ondrej Demel                    : Mk-CCSD
   Frank Weinhold                                : gennbo (NPA and NBO analysis)
   Christopher J. Cramer and Donald G. Truhlar   : smd solvation model
   Lars Goerigk                                  : TD-DFT with DH, B97 family of functionals
   V. Asgeirsson, H. Jonsson                     : NEB implementation
   FAccTs GmbH                                   : IRC, NEB, NEB-TS, DLPNO-Multilevel, CI-OPT
                                                   MM, QMMM, 2- and 3-layer-ONIOM, Crystal-QMMM,
                                                   LR-CPCM, SF, NACMEs, symmetry and pop. for TD-DFT,
                                                   nearIR, NL-DFT gradient (VV10), updates on ESD,
                                                   ML-optimized integration grids
   S Lehtola, MJT Oliveira, MAL Marques          : LibXC Library
   Liviu Ungur et al                             : ANISO software


 Your calculation uses the libint2 library for the computation of 2-el integrals
 For citations please refer to: http://libint.valeyev.net

 Your ORCA version has been built with support for libXC version: 5.1.0
 For citations please refer to: https://tddft.org/programs/libxc/

 This ORCA versions uses:
   CBLAS   interface :  Fast vector & matrix operations
   LAPACKE interface :  Fast linear algebra routines
   SCALAPACK package :  Parallel linear algebra routines
   Shared memory     :  Shared parallel matrices
   BLAS/LAPACK       :  OpenBLAS 0.3.15  USE64BITINT DYNAMIC_ARCH NO_AFFINITY SkylakeX SINGLE_THREADED
        Core in use  :  SkylakeX
   Copyright (c) 2011-2014, The OpenBLAS Project


Your calculation utilizes the atom-pairwise dispersion correction
with the Becke-Johnson damping scheme (D3BJ)
Cite in your paper:
S.Grimme, S.Ehrlich, L.Goerigk, J Comput Chem, (2011), 32, 1456–1465 
S.Grimme, J.Antony, S.Ehrlich and H.Krieg, J.Chem.Phys., 132, (2010), 154104 
   

================================================================================

----- Orbital basis set information -----
Your calculation utilizes the basis: def2-TZVP
   F. Weigend and R. Ahlrichs, Phys. Chem. Chem. Phys. 7, 3297 (2005).

----- AuxJ basis set information -----
Your calculation utilizes the auxiliary basis: def2/J
   F. Weigend, Phys. Chem. Chem. Phys. 8, 1057 (2006).

================================================================================
                                        WARNINGS
                       Please study these warnings very carefully!
================================================================================


INFO   : the flag for use of the SHARK integral package has been found!

================================================================================
                                       INPUT FILE
================================================================================
NAME = ox_gs_B_orca0006.inp
|  1> ! engrad PBE0 D3BJ def2-TZVP  
|  2> %pal nprocs 8 end
|  3> %maxcore 3000
|  4>  
|  5> *xyz 0 1 
|  6> O   -0.2685690249502394 0.8685956473578131 0.03470528495150004
|  7> C   -0.6949581063145072 -0.43504269024980513 0.0075613314647224915
|  8> C   0.769695901668002 -0.35234376662018996 0.03198163815968513
|  9> H   -1.3119243715952595 -0.7725340921060055 1.0164885583732788
| 10> H   -1.3505902137235197 -0.6077517247547743 -0.8801044490286063
| 11> H   1.2448322807976309 -0.63314274879992 -0.9624935335827558
| 12> H   1.3226634925052465 -0.6944876151316228 0.9550215565457802
| 13> *
| 14> 
| 15>                          ****END OF INPUT****
================================================================================

                     *******************************
                     * Energy+Gradient Calculation *
                     *******************************

---------------------------------
CARTESIAN COORDINATES (ANGSTROEM)
---------------------------------
  O     -0.268569    0.868596    0.034705
  C     -0.694958   -0.435043    0.007561
  C      0.769696   -0.352344    0.031982
  H     -1.311924   -0.772534    1.016489
  H     -1.350590   -0.607752   -0.880104
  H      1.244832   -0.633143   -0.962494
  H      1.322663   -0.694488    0.955022

----------------------------
CARTESIAN COORDINATES (A.U.)
----------------------------
  NO LB      ZA    FRAG     MASS         X           Y           Z
   0 O     8.0000    0    15.999   -0.507522    1.641408    0.065583
   1 C     6.0000    0    12.011   -1.313280   -0.822112    0.014289
   2 C     6.0000    0    12.011    1.454514   -0.665833    0.060437
   3 H     1.0000    0     1.008   -2.479178   -1.459878    1.920885
   4 H     1.0000    0     1.008   -2.552246   -1.148484   -1.663156
   5 H     1.0000    0     1.008    2.352392   -1.196466   -1.818849
   6 H     1.0000    0     1.008    2.499472   -1.312391    1.804729

--------------------------------
INTERNAL COORDINATES (ANGSTROEM)
--------------------------------
 O      0   0   0     0.000000000000     0.00000000     0.00000000
 C      1   0   0     1.371866377676     0.00000000     0.00000000
 C      2   1   0     1.467190112578    68.64386894     0.00000000
 H      2   1   3     1.229830056560   113.60719931   114.71288267
 H      2   1   3     1.116974667897   110.18745081   236.51815491
 H      3   2   1     1.137358129341   112.86512041   252.11342840
 H      3   2   1     1.129087357349   119.04048015   111.34248688

---------------------------
INTERNAL COORDINATES (A.U.)
---------------------------
 O      0   0   0     0.000000000000     0.00000000     0.00000000
 C      1   0   0     2.592451746142     0.00000000     0.00000000
 C      2   1   0     2.772587499170    68.64386894     0.00000000
 H      2   1   3     2.324041998164   113.60719931   114.71288267
 H      2   1   3     2.110776220853   110.18745081   236.51815491
 H      3   2   1     2.149295380643   112.86512041   252.11342840
 H      3   2   1     2.133665886662   119.04048015   111.34248688

---------------------
BASIS SET INFORMATION
---------------------
There are 3 groups of distinct atoms

 Group   1 Type O   : 11s6p2d1f contracted to 5s3p2d1f pattern {62111/411/11/1}
 Group   2 Type C   : 11s6p2d1f contracted to 5s3p2d1f pattern {62111/411/11/1}
 Group   3 Type H   : 5s1p contracted to 3s1p pattern {311/1}

Atom   0O    basis set group =>   1
Atom   1C    basis set group =>   2
Atom   2C    basis set group =>   2
Atom   3H    basis set group =>   3
Atom   4H    basis set group =>   3
Atom   5H    basis set group =>   3
Atom   6H    basis set group =>   3
---------------------------------
AUXILIARY/J BASIS SET INFORMATION
---------------------------------
There are 3 groups of distinct atoms

 Group   1 Type O   : 12s5p4d2f1g contracted to 6s4p3d1f1g pattern {711111/2111/211/2/1}
 Group   2 Type C   : 12s5p4d2f1g contracted to 6s4p3d1f1g pattern {711111/2111/211/2/1}
 Group   3 Type H   : 5s2p1d contracted to 3s1p1d pattern {311/2/1}

Atom   0O    basis set group =>   1
Atom   1C    basis set group =>   2
Atom   2C    basis set group =>   2
Atom   3H    basis set group =>   3
Atom   4H    basis set group =>   3
Atom   5H    basis set group =>   3
Atom   6H    basis set group =>   3


           ************************************************************
           *        Program running with 8 parallel MPI-processes     *
           *              working on a common directory               *
           ************************************************************
------------------------------------------------------------------------------
                           ORCA GTO INTEGRAL CALCULATION
                           -- RI-GTO INTEGRALS CHOSEN --
------------------------------------------------------------------------------
------------------------------------------------------------------------------
                   ___                                                        
                  /   \      - P O W E R E D   B Y -                         
                 /     \                                                     
                 |  |  |   _    _      __       _____    __    __             
                 |  |  |  | |  | |    /  \     |  _  \  |  |  /  |          
                  \  \/   | |  | |   /    \    | | | |  |  | /  /          
                 / \  \   | |__| |  /  /\  \   | |_| |  |  |/  /          
                |  |  |   |  __  | /  /__\  \  |    /   |      \           
                |  |  |   | |  | | |   __   |  |    \   |  |\   \          
                \     /   | |  | | |  |  |  |  | |\  \  |  | \   \       
                 \___/    |_|  |_| |__|  |__|  |_| \__\ |__|  \__/        
                                                                              
                      - O R C A' S   B I G   F R I E N D -                    
                                      &                                       
                       - I N T E G R A L  F E E D E R -                       
                                                                              
 v1 FN, 2020, v2 2021                                                         
------------------------------------------------------------------------------


Reading SHARK input file ox_gs_B_orca0006.SHARKINP.tmp ... ok
----------------------
SHARK INTEGRAL PACKAGE
----------------------

Number of atoms                             ...      7
Number of basis functions                   ...    117
Number of shells                            ...     49
Maximum angular momentum                    ...      3
Integral batch strategy                     ... SHARK/LIBINT Hybrid
RI-J (if used) integral strategy            ... SPLIT-RIJ (Revised 2003 algorithm where possible)
Printlevel                                  ...      1
Contraction scheme used                     ... SEGMENTED contraction
Coulomb Range Separation                    ... NOT USED
Exchange Range Separation                   ... NOT USED
Finite Nucleus Model                        ... NOT USED
Auxiliary Coulomb fitting basis             ... AVAILABLE
   # of basis functions in Aux-J            ...    191
   # of shells in Aux-J                     ...     65
   Maximum angular momentum in Aux-J        ...      4
Auxiliary J/K fitting basis                 ... NOT available
Auxiliary Correlation fitting basis         ... NOT available
Auxiliary 'external' fitting basis          ... NOT available
Integral threshold                          ...     2.500000e-11
Primitive cut-off                           ...     2.500000e-12
Primitive pair pre-selection threshold      ...     2.500000e-12

Calculating pre-screening integrals         ... done (  0.0 sec) Dimension = 49
Organizing shell pair data                  ... done (  0.0 sec)
Shell pair information
Total number of shell pairs                 ...      1225
Shell pairs after pre-screening             ...      1221
Total number of primitive shell pairs       ...      3648
Primitive shell pairs kept                  ...      3138
          la=0 lb=0:    374 shell pairs
          la=1 lb=0:    351 shell pairs
          la=1 lb=1:     91 shell pairs
          la=2 lb=0:    162 shell pairs
          la=2 lb=1:     78 shell pairs
          la=2 lb=2:     21 shell pairs
          la=3 lb=0:     81 shell pairs
          la=3 lb=1:     39 shell pairs
          la=3 lb=2:     18 shell pairs
          la=3 lb=3:      6 shell pairs

Calculating one electron integrals          ... done (  0.0 sec)
Calculating RI/J V-Matrix + Cholesky decomp.... done (  0.0 sec)
Calculating Nuclear repulsion               ... done (  0.0 sec) ENN=     72.822246011553 Eh

SHARK setup successfully completed in   0.1 seconds

Maximum memory used throughout the entire GTOINT-calculation: 14.9 MB


           ************************************************************
           *        Program running with 8 parallel MPI-processes     *
           *              working on a common directory               *
           ************************************************************
-------------------------------------------------------------------------------
                                 ORCA SCF
-------------------------------------------------------------------------------

------------
SCF SETTINGS
------------
Hamiltonian:
 Density Functional     Method          .... DFT(GTOs)
 Exchange Functional    Exchange        .... PBE
   PBE kappa parameter   XKappa         ....  0.804000
   PBE mue parameter    XMuePBE         ....  0.219520
 Correlation Functional Correlation     .... PBE
   PBE beta parameter  CBetaPBE         ....  0.066725
 LDA part of GGA corr.  LDAOpt          .... PW91-LDA
 Gradients option       PostSCFGGA      .... off
 Hybrid DFT is turned on
   Fraction HF Exchange ScalHFX         ....  0.250000
   Scaling of DF-GGA-X  ScalDFX         ....  0.750000
   Scaling of DF-GGA-C  ScalDFC         ....  1.000000
   Scaling of DF-LDA-C  ScalLDAC        ....  1.000000
   Perturbative correction              ....  0.000000
   Density functional embedding theory  .... OFF
   NL short-range parameter             ....  6.900000
 RI-approximation to the Coulomb term is turned on
   Number of AuxJ basis functions       .... 191
   RIJ-COSX (HFX calculated with COS-X)).... on


General Settings:
 Integral files         IntName         .... ox_gs_B_orca0006
 Hartree-Fock type      HFTyp           .... RHF
 Total Charge           Charge          ....    0
 Multiplicity           Mult            ....    1
 Number of Electrons    NEL             ....   24
 Basis Dimension        Dim             ....  117
 Nuclear Repulsion      ENuc            ....     72.8222460116 Eh

Convergence Acceleration:
 DIIS                   CNVDIIS         .... on
   Start iteration      DIISMaxIt       ....    12
   Startup error        DIISStart       ....  0.200000
   # of expansion vecs  DIISMaxEq       ....     5
   Bias factor          DIISBfac        ....   1.050
   Max. coefficient     DIISMaxC        ....  10.000
 Trust-Rad. Augm. Hess. CNVTRAH         .... auto
   Auto Start mean grad. ratio tolernc. ....  1.125000
   Auto Start start iteration           ....    20
   Auto Start num. interpolation iter.  ....    10
   Max. Number of Micro iterations      ....    16
   Max. Number of Macro iterations      .... Maxiter - #DIIS iter
   Number of Davidson start vectors     ....     2
   Converg. threshold I  (grad. norm)   ....   1.000e-05
   Converg. threshold II (energy diff.) ....   1.000e-08
   Grad. Scal. Fac. for Micro threshold ....   0.100
   Minimum threshold for Micro iter.    ....   0.010
   NR start threshold (gradient norm)   ....   0.001
   Initial trust radius                 ....   0.400
   Minimum AH scaling param. (alpha)    ....   1.000
   Maximum AH scaling param. (alpha)    .... 1000.000
   Orbital update algorithm             .... Taylor
   White noise on init. David. guess    .... on
   Maximum white noise                  ....   0.010
   Quad. conv. algorithm                .... NR
 SOSCF                  CNVSOSCF        .... on
   Start iteration      SOSCFMaxIt      ....   150
   Startup grad/error   SOSCFStart      ....  0.003300
 Level Shifting         CNVShift        .... on
   Level shift para.    LevelShift      ....    0.2500
   Turn off err/grad.   ShiftErr        ....    0.0010
 Zerner damping         CNVZerner       .... off
 Static damping         CNVDamp         .... on
   Fraction old density DampFac         ....    0.7000
   Max. Damping (<1)    DampMax         ....    0.9800
   Min. Damping (>=0)   DampMin         ....    0.0000
   Turn off err/grad.   DampErr         ....    0.1000
 Fernandez-Rico         CNVRico         .... off

SCF Procedure:
 Maximum # iterations   MaxIter         ....   125
 SCF integral mode      SCFMode         .... Direct
   Integral package                     .... SHARK and LIBINT hybrid scheme
 Reset frequency        DirectResetFreq ....    20
 Integral Threshold     Thresh          ....  2.500e-11 Eh
 Primitive CutOff       TCut            ....  2.500e-12 Eh

Convergence Tolerance:
 Convergence Check Mode ConvCheckMode   .... Total+1el-Energy
 Convergence forced     ConvForced      .... 0
 Energy Change          TolE            ....  1.000e-08 Eh
 1-El. energy change                    ....  1.000e-05 Eh
 Orbital Gradient       TolG            ....  1.000e-05
 Orbital Rotation angle TolX            ....  1.000e-05
 DIIS Error             TolErr          ....  5.000e-07


Diagonalization of the overlap matrix:
Smallest eigenvalue                        ... 3.990e-04
Time for diagonalization                   ...    0.001 sec
Threshold for overlap eigenvalues          ... 1.000e-08
Number of eigenvalues below threshold      ... 0
Time for construction of square roots      ...    0.001 sec
Total time needed                          ...    0.003 sec

Time for model grid setup =    0.022 sec

------------------------------
INITIAL GUESS: MODEL POTENTIAL
------------------------------
Loading Hartree-Fock densities                     ... done
Calculating cut-offs                               ... done
Initializing the effective Hamiltonian             ... done
Setting up the integral package (SHARK)            ... done
Starting the Coulomb interaction                   ... done (   0.0 sec)
Reading the grid                                   ... done
Mapping shells                                     ... done
Starting the XC term evaluation                    ... done (   0.0 sec)
  promolecular density results
     # of electrons  =     23.996802302
     EX              =    -19.479612169
     EC              =     -0.773605021
     EX+EC           =    -20.253217191
Transforming the Hamiltonian                       ... done (   0.0 sec)
Diagonalizing the Hamiltonian                      ... done (   0.0 sec)
Back transforming the eigenvectors                 ... done (   0.0 sec)
Now organizing SCF variables                       ... done
                      ------------------
                      INITIAL GUESS DONE (   0.0 sec)
                      ------------------
-------------------
DFT GRID GENERATION
-------------------

General Integration Accuracy     IntAcc      ... 4.388
Radial Grid Type                 RadialGrid  ... OptM3 with GC (2021)
Angular Grid (max. ang.)         AngularGrid ... 4 (Lebedev-302)
Angular grid pruning method      GridPruning ... 4 (adaptive)
Weight generation scheme         WeightScheme... Becke
Basis function cutoff            BFCut       ... 1.0000e-11
Integration weight cutoff        WCut        ... 1.0000e-14
Angular grids for H and He will be reduced by one unit
Partially contracted basis set               ... off
Rotationally invariant grid construction     ... off

Total number of grid points                  ...    31353
Total number of batches                      ...      494
Average number of points per batch           ...       63
Average number of grid points per atom       ...     4479
Time for grid setup =    0.110 sec

--------------------
COSX GRID GENERATION
--------------------

GRIDX 1
-------
General Integration Accuracy     IntAcc      ... 3.816
Radial Grid Type                 RadialGrid  ... OptM3 with GC (2021)
Angular Grid (max. ang.)         AngularGrid ... 1 (Lebedev-50)
Angular grid pruning method      GridPruning ... 4 (adaptive)
Weight generation scheme         WeightScheme... Becke
Basis function cutoff            BFCut       ... 1.0000e-11
Integration weight cutoff        WCut        ... 1.0000e-14
Angular grids for H and He will be reduced by one unit
Partially contracted basis set               ... on
Rotationally invariant grid construction     ... off

Total number of grid points                  ...     4036
Total number of batches                      ...       67
Average number of points per batch           ...       60
Average number of grid points per atom       ...      577
UseSFitting                                  ... on

GRIDX 2
-------
General Integration Accuracy     IntAcc      ... 4.020
Radial Grid Type                 RadialGrid  ... OptM3 with GC (2021)
Angular Grid (max. ang.)         AngularGrid ... 2 (Lebedev-110)
Angular grid pruning method      GridPruning ... 4 (adaptive)
Weight generation scheme         WeightScheme... Becke
Basis function cutoff            BFCut       ... 1.0000e-11
Integration weight cutoff        WCut        ... 1.0000e-14
Angular grids for H and He will be reduced by one unit
Partially contracted basis set               ... on
Rotationally invariant grid construction     ... off

Total number of grid points                  ...     8737
Total number of batches                      ...      139
Average number of points per batch           ...       62
Average number of grid points per atom       ...     1248
UseSFitting                                  ... on

GRIDX 3
-------
General Integration Accuracy     IntAcc      ... 4.338
Radial Grid Type                 RadialGrid  ... OptM3 with GC (2021)
Angular Grid (max. ang.)         AngularGrid ... 3 (Lebedev-194)
Angular grid pruning method      GridPruning ... 4 (adaptive)
Weight generation scheme         WeightScheme... Becke
Basis function cutoff            BFCut       ... 1.0000e-11
Integration weight cutoff        WCut        ... 1.0000e-14
Angular grids for H and He will be reduced by one unit
Partially contracted basis set               ... on
Rotationally invariant grid construction     ... off

Total number of grid points                  ...    19281
Total number of batches                      ...      305
Average number of points per batch           ...       63
Average number of grid points per atom       ...     2754
UseSFitting                                  ... on

Time for X-Grid setup             =    0.072 sec

--------------
SCF ITERATIONS
--------------
ITER       Energy         Delta-E        Max-DP      RMS-DP      [F,P]     Damp
               ***  Starting incremental Fock matrix formation  ***
  0   -153.5758637711   0.000000000000 0.03471372  0.00116326  0.1817914 0.7000
  1   -153.6048878960  -0.029024124944 0.01831475  0.00081930  0.0684084 0.7000
                               ***Turning on DIIS***
  2   -153.6154586602  -0.010570764154 0.02636948  0.00129517  0.0298516 0.0000
  3   -153.6335760081  -0.018117347955 0.01388696  0.00063636  0.0395105 0.0000
  4   -153.6369977911  -0.003421782937 0.00455439  0.00018581  0.0121575 0.0000
                      *** Initiating the SOSCF procedure ***
                           *** Shutting down DIIS ***
                      *** Re-Reading the Fockian *** 
                      *** Removing any level shift *** 
ITER      Energy       Delta-E        Grad      Rot      Max-DP    RMS-DP
  5   -153.63729036  -0.0002925678  0.000496  0.000496  0.001253  0.000058
               *** Restarting incremental Fock matrix formation ***
  6   -153.63732637  -0.0000360062  0.000137  0.000324  0.000735  0.000027
  7   -153.63732679  -0.0000004262  0.000194  0.000275  0.000383  0.000014
  8   -153.63732712  -0.0000003329  0.000073  0.000131  0.000176  0.000007
  9   -153.63732715  -0.0000000236  0.000053  0.000058  0.000066  0.000003
 10   -153.63732721  -0.0000000590  0.000010  0.000023  0.000049  0.000002
 11   -153.63732721  -0.0000000022  0.000004  0.000005  0.000008  0.000000
                  ***Gradient check signals convergence***
              ***Rediagonalizing the Fockian in SOSCF/NRSCF***

               *****************************************************
               *                     SUCCESS                       *
               *           SCF CONVERGED AFTER  12 CYCLES          *
               *****************************************************

Old exchange energy                            =     -4.961141556 Eh
New exchange energy                            =     -4.961155887 Eh
Exchange energy change after final integration =     -0.000014331 Eh
Total energy after final integration           =   -153.637341542 Eh
Final COS-X integration done in                =     0.248 sec

----------------
TOTAL SCF ENERGY
----------------

Total Energy       :         -153.63734154 Eh           -4180.68461 eV

Components:
Nuclear Repulsion  :           72.82224601 Eh            1981.59406 eV
Electronic Energy  :         -226.45958755 Eh           -6162.27866 eV
One Electron Energy:         -352.39876373 Eh           -9589.25787 eV
Two Electron Energy:          125.93917618 Eh            3426.97921 eV
Max COSX asymmetry :            0.00000253 Eh               0.00007 eV

Virial components:
Potential Energy   :         -306.18244102 Eh           -8331.64779 eV
Kinetic Energy     :          152.54509948 Eh            4150.96319 eV
Virial Ratio       :            2.00716013


DFT components:
N(Alpha)           :       12.000001054109 electrons
N(Beta)            :       12.000001054109 electrons
N(Total)           :       24.000002108218 electrons
E(X)               :      -14.870721254014 Eh       
E(C)               :       -0.783077954143 Eh       
E(XC)              :      -15.653799208157 Eh       
DFET-embed. en.    :        0.000000000000 Eh       

---------------
SCF CONVERGENCE
---------------

  Last Energy change         ...   -1.8684e-09  Tolerance :   1.0000e-08
  Last MAX-Density change    ...    8.8818e-16  Tolerance :   1.0000e-07
  Last RMS-Density change    ...    1.7624e-17  Tolerance :   5.0000e-09
  Last Orbital Gradient      ...    1.5765e-06  Tolerance :   1.0000e-05
  Last Orbital Rotation      ...    4.2536e-06  Tolerance :   1.0000e-05

             **** THE GBW FILE WAS UPDATED (ox_gs_B_orca0006.gbw) ****
             **** DENSITY ox_gs_B_orca0006.scfp WAS UPDATED ****
             **** ENERGY FILE WAS UPDATED (ox_gs_B_orca0006.en.tmp) ****
             **** THE GBW FILE WAS UPDATED (ox_gs_B_orca0006.gbw) ****
             **** DENSITY ox_gs_B_orca0006.scfp WAS UPDATED ****
----------------
ORBITAL ENERGIES
----------------

  NO   OCC          E(Eh)            E(eV) 
   0   2.0000     -19.231352      -523.3117 
   1   2.0000     -10.300928      -280.3025 
   2   2.0000     -10.287674      -279.9418 
   3   2.0000      -1.086162       -29.5560 
   4   2.0000      -0.714455       -19.4413 
   5   2.0000      -0.629015       -17.1164 
   6   2.0000      -0.511717       -13.9245 
   7   2.0000      -0.497286       -13.5318 
   8   2.0000      -0.407370       -11.0851 
   9   2.0000      -0.388198       -10.5634 
  10   2.0000      -0.332296        -9.0422 
  11   2.0000      -0.284713        -7.7474 
  12   0.0000       0.012010         0.3268 
  13   0.0000       0.058015         1.5787 
  14   0.0000       0.074263         2.0208 
  15   0.0000       0.083070         2.2604 
  16   0.0000       0.110557         3.0084 
  17   0.0000       0.145329         3.9546 
  18   0.0000       0.187016         5.0890 
  19   0.0000       0.203120         5.5272 
  20   0.0000       0.255615         6.9556 
  21   0.0000       0.272273         7.4089 
  22   0.0000       0.280070         7.6211 
  23   0.0000       0.324525         8.8308 
  24   0.0000       0.355104         9.6629 
  25   0.0000       0.383894        10.4463 
  26   0.0000       0.397325        10.8118 
  27   0.0000       0.416760        11.3406 
  28   0.0000       0.426090        11.5945 
  29   0.0000       0.464282        12.6337 
  30   0.0000       0.477979        13.0065 
  31   0.0000       0.490286        13.3414 
  32   0.0000       0.537823        14.6349 
  33   0.0000       0.679874        18.5003 
  34   0.0000       0.698948        19.0193 
  35   0.0000       0.743309        20.2265 
  36   0.0000       0.812399        22.1065 
  37   0.0000       0.861949        23.4548 
  38   0.0000       0.882410        24.0116 
  39   0.0000       0.932301        25.3692 
  40   0.0000       0.976874        26.5821 
  41   0.0000       1.042887        28.3784 
  42   0.0000       1.082555        29.4578 
  43   0.0000       1.087026        29.5795 
  44   0.0000       1.146703        31.2034 
  45   0.0000       1.374941        37.4141 
  46   0.0000       1.448742        39.4223 
  47   0.0000       1.472390        40.0658 
  48   0.0000       1.506868        41.0040 
  49   0.0000       1.531806        41.6826 
  50   0.0000       1.572126        42.7797 
  51   0.0000       1.590030        43.2669 
  52   0.0000       1.632411        44.4202 
  53   0.0000       1.657871        45.1130 
  54   0.0000       1.730483        47.0888 
  55   0.0000       1.799352        48.9629 
  56   0.0000       1.828060        49.7440 
  57   0.0000       1.890962        51.4557 
  58   0.0000       1.942758        52.8651 
  59   0.0000       1.980397        53.8894 
  60   0.0000       2.019164        54.9442 
  61   0.0000       2.083560        56.6966 
  62   0.0000       2.104708        57.2720 
  63   0.0000       2.233874        60.7868 
  64   0.0000       2.262953        61.5781 
  65   0.0000       2.377132        64.6850 
  66   0.0000       2.387873        64.9773 
  67   0.0000       2.434796        66.2542 
  68   0.0000       2.472409        67.2777 
  69   0.0000       2.492571        67.8263 
  70   0.0000       2.545172        69.2576 
  71   0.0000       2.553203        69.4762 
  72   0.0000       2.631829        71.6157 
  73   0.0000       2.691226        73.2320 
  74   0.0000       2.731943        74.3399 
  75   0.0000       2.781140        75.6787 
  76   0.0000       2.849228        77.5314 
  77   0.0000       2.946914        80.1896 
  78   0.0000       2.979135        81.0664 
  79   0.0000       3.034537        82.5739 
  80   0.0000       3.063052        83.3499 
  81   0.0000       3.075599        83.6913 
  82   0.0000       3.115331        84.7725 
  83   0.0000       3.162051        86.0438 
  84   0.0000       3.275872        89.1410 
  85   0.0000       3.305138        89.9374 
  86   0.0000       3.317914        90.2850 
  87   0.0000       3.348959        91.1298 
  88   0.0000       3.481428        94.7345 
  89   0.0000       3.549371        96.5833 
  90   0.0000       3.633057        98.8605 
  91   0.0000       3.698525       100.6420 
  92   0.0000       3.853040       104.8466 
  93   0.0000       3.901046       106.1529 
  94   0.0000       4.057540       110.4113 
  95   0.0000       4.087377       111.2232 
  96   0.0000       4.147531       112.8601 
  97   0.0000       4.196319       114.1877 
  98   0.0000       4.300355       117.0186 
  99   0.0000       4.438946       120.7899 
 100   0.0000       4.597616       125.1075 
 101   0.0000       4.821419       131.1975 
 102   0.0000       5.288656       143.9116 
 103   0.0000       5.325711       144.9200 
 104   0.0000       5.496756       149.5743 
 105   0.0000       5.687804       154.7730 
 106   0.0000       5.791805       157.6030 
 107   0.0000       5.830799       158.6641 
 108   0.0000       6.027208       164.0087 
 109   0.0000       6.527143       177.6126 
 110   0.0000       6.571723       178.8257 
 111   0.0000       6.785700       184.6483 
 112   0.0000       6.946328       189.0192 
 113   0.0000       7.140208       194.2949 
 114   0.0000      22.067892       600.4979 
 115   0.0000      22.306438       606.9890 
 116   0.0000      43.792847      1191.6639 

                    ********************************
                    * MULLIKEN POPULATION ANALYSIS *
                    ********************************

-----------------------
MULLIKEN ATOMIC CHARGES
-----------------------
   0 O :   -0.299973
   1 C :   -0.045785
   2 C :   -0.139901
   3 H :    0.091968
   4 H :    0.119364
   5 H :    0.132360
   6 H :    0.141968
Sum of atomic charges:   -0.0000000

--------------------------------
MULLIKEN REDUCED ORBITAL CHARGES
--------------------------------
  0 O s       :     3.873250  s :     3.873250
      pz      :     1.840242  p :     4.386623
      px      :     1.295273
      py      :     1.251108
      dz2     :     0.005166  d :     0.038172
      dxz     :     0.001768
      dyz     :     0.006534
      dx2y2   :     0.010822
      dxy     :     0.013882
      f0      :     0.000230  f :     0.001928
      f+1     :     0.000163
      f-1     :     0.000431
      f+2     :     0.000125
      f-2     :     0.000123
      f+3     :     0.000448
      f-3     :     0.000409
  1 C s       :     3.222585  s :     3.222585
      pz      :     1.048758  p :     2.674859
      px      :     0.905386
      py      :     0.720715
      dz2     :     0.005644  d :     0.135841
      dxz     :     0.027508
      dyz     :     0.042524
      dx2y2   :     0.031877
      dxy     :     0.028288
      f0      :     0.001714  f :     0.012500
      f+1     :     0.001222
      f-1     :     0.000887
      f+2     :     0.002465
      f-2     :     0.001017
      f+3     :     0.001983
      f-3     :     0.003213
  2 C s       :     3.271573  s :     3.271573
      pz      :     1.021883  p :     2.769218
      px      :     0.932828
      py      :     0.814508
      dz2     :     0.008856  d :     0.090190
      dxz     :     0.023304
      dyz     :     0.018276
      dx2y2   :     0.018493
      dxy     :     0.021261
      f0      :     0.001027  f :     0.008919
      f+1     :     0.001226
      f-1     :     0.000458
      f+2     :     0.000701
      f-2     :     0.001298
      f+3     :     0.002072
      f-3     :     0.002137
  3 H s       :     0.892284  s :     0.892284
      pz      :     0.008267  p :     0.015748
      px      :     0.004902
      py      :     0.002580
  4 H s       :     0.860479  s :     0.860479
      pz      :     0.009593  p :     0.020157
      px      :     0.007258
      py      :     0.003305
  5 H s       :     0.847095  s :     0.847095
      pz      :     0.011062  p :     0.020544
      px      :     0.005494
      py      :     0.003988
  6 H s       :     0.837200  s :     0.837200
      pz      :     0.010078  p :     0.020832
      px      :     0.006366
      py      :     0.004388


                     *******************************
                     * LOEWDIN POPULATION ANALYSIS *
                     *******************************

----------------------
LOEWDIN ATOMIC CHARGES
----------------------
   0 O :    0.094596
   1 C :   -0.401706
   2 C :   -0.204946
   3 H :    0.123218
   4 H :    0.115733
   5 H :    0.137414
   6 H :    0.135691

-------------------------------
LOEWDIN REDUCED ORBITAL CHARGES
-------------------------------
  0 O s       :     3.434942  s :     3.434942
      pz      :     1.738794  p :     4.382331
      px      :     1.272340
      py      :     1.371197
      dz2     :     0.010823  d :     0.082411
      dxz     :     0.004944
      dyz     :     0.015103
      dx2y2   :     0.026495
      dxy     :     0.025047
      f0      :     0.000539  f :     0.005720
      f+1     :     0.000230
      f-1     :     0.000847
      f+2     :     0.000452
      f-2     :     0.000526
      f+3     :     0.001438
      f-3     :     0.001688
  1 C s       :     2.847362  s :     2.847362
      pz      :     1.035762  p :     2.903066
      px      :     1.032192
      py      :     0.835113
      dz2     :     0.052824  d :     0.566993
      dxz     :     0.134624
      dyz     :     0.120556
      dx2y2   :     0.137106
      dxy     :     0.121882
      f0      :     0.010729  f :     0.084285
      f+1     :     0.005073
      f-1     :     0.007542
      f+2     :     0.016034
      f-2     :     0.003987
      f+3     :     0.015511
      f-3     :     0.025409
  2 C s       :     2.870871  s :     2.870871
      pz      :     1.055116  p :     2.925945
      px      :     1.058959
      py      :     0.811871
      dz2     :     0.045474  d :     0.361260
      dxz     :     0.112301
      dyz     :     0.051946
      dx2y2   :     0.071991
      dxy     :     0.079547
      f0      :     0.006004  f :     0.046870
      f+1     :     0.004580
      f-1     :     0.003446
      f+2     :     0.004139
      f-2     :     0.004832
      f+3     :     0.011382
      f-3     :     0.012486
  3 H s       :     0.835066  s :     0.835066
      pz      :     0.023446  p :     0.041716
      px      :     0.011615
      py      :     0.006656
  4 H s       :     0.826892  s :     0.826892
      pz      :     0.029106  p :     0.057375
      px      :     0.018840
      py      :     0.009429
  5 H s       :     0.805862  s :     0.805862
      pz      :     0.031541  p :     0.056724
      px      :     0.013963
      py      :     0.011220
  6 H s       :     0.806044  s :     0.806044
      pz      :     0.029648  p :     0.058264
      px      :     0.016164
      py      :     0.012452


                      *****************************
                      * MAYER POPULATION ANALYSIS *
                      *****************************

  NA   - Mulliken gross atomic population
  ZA   - Total nuclear charge
  QA   - Mulliken gross atomic charge
  VA   - Mayer's total valence
  BVA  - Mayer's bonded valence
  FA   - Mayer's free valence

  ATOM       NA         ZA         QA         VA         BVA        FA
  0 O      8.3000     8.0000    -0.3000     2.0064     2.0064    -0.0000
  1 C      6.0458     6.0000    -0.0458     3.9641     3.9641    -0.0000
  2 C      6.1399     6.0000    -0.1399     3.9349     3.9349     0.0000
  3 H      0.9080     1.0000     0.0920     0.9601     0.9601    -0.0000
  4 H      0.8806     1.0000     0.1194     0.9589     0.9589    -0.0000
  5 H      0.8676     1.0000     0.1324     0.9595     0.9595     0.0000
  6 H      0.8580     1.0000     0.1420     0.9589     0.9589     0.0000

  Mayer bond orders larger than 0.100000
B(  0-O ,  1-C ) :   0.9958 B(  0-O ,  2-C ) :   0.9705 B(  1-C ,  2-C ) :   1.0669 
B(  1-C ,  3-H ) :   0.9353 B(  1-C ,  4-H ) :   0.9529 B(  2-C ,  5-H ) :   0.9416 
B(  2-C ,  6-H ) :   0.9369 

-------
TIMINGS
-------

Total SCF time: 0 days 0 hours 0 min 2 sec 

Total time                  ....       2.881 sec
Sum of individual times     ....       2.532 sec  ( 87.9%)

Fock matrix formation       ....       2.267 sec  ( 78.7%)
  Split-RI-J                ....       0.245 sec  ( 10.8% of F)
  Chain of spheres X        ....       1.542 sec  ( 68.0% of F)
  XC integration            ....       0.412 sec  ( 18.2% of F)
    Basis function eval.    ....       0.112 sec  ( 27.2% of XC)
    Density eval.           ....       0.083 sec  ( 20.1% of XC)
    XC-Functional eval.     ....       0.024 sec  (  5.9% of XC)
    XC-Potential eval.      ....       0.145 sec  ( 35.2% of XC)
Diagonalization             ....       0.013 sec  (  0.5%)
Density matrix formation    ....       0.002 sec  (  0.1%)
Population analysis         ....       0.004 sec  (  0.1%)
Initial guess               ....       0.017 sec  (  0.6%)
Orbital Transformation      ....       0.000 sec  (  0.0%)
Orbital Orthonormalization  ....       0.000 sec  (  0.0%)
DIIS solution               ....       0.010 sec  (  0.4%)
SOSCF solution              ....       0.015 sec  (  0.5%)
Grid generation             ....       0.204 sec  (  7.1%)

Maximum memory used throughout the entire SCF-calculation: 61.1 MB


-------------------------------------------------------------------------------
                          DFT DISPERSION CORRECTION                            
                                                                               
                              DFTD3 V3.1  Rev 1                                
                          USING Becke-Johnson damping                          
-------------------------------------------------------------------------------
The PBE0 functional is recognized
Active option DFTDOPT                   ...         4   

molecular C6(AA) [au] = 352.589406 


            DFT-D V3
 parameters
 s6 scaling factor         :     1.0000 
 a1 scaling factor         :     0.4145 
 s8 scaling factor         :     1.2177 
 a2 scaling factor         :     4.8593 
 ad hoc parameters k1-k3   :    16.0000     1.3333    -4.0000 

 Edisp/kcal,au: -1.501272808759  -0.002392430251 
 E6   /kcal   :  -0.982915465 
 E8   /kcal   :  -0.518357344 
 % E8         :  34.527858034 

-------------------------   ----------------
Dispersion correction           -0.002392430
-------------------------   ----------------


-------------------------   --------------------
FINAL SINGLE POINT ENERGY      -153.639733972039
-------------------------   --------------------



           ************************************************************
           *        Program running with 8 parallel MPI-processes     *
           *              working on a common directory               *
           ************************************************************
------------------------------------------------------------------------------
                         ORCA SCF GRADIENT CALCULATION
------------------------------------------------------------------------------

 ... reading COSX grid (gridx3)
Gradient of the Kohn-Sham DFT energy:
Kohn-Sham wavefunction type      ... RKS
Hartree-Fock exchange scaling    ...    0.250
Number of operators              ...    1
Number of atoms                  ...    7
Basis set dimensions             ...  117
Integral neglect threshold       ... 2.5e-11
Integral primitive cutoff        ... 2.5e-12
SHARK Integral package           ... ON

Nuc. rep. gradient       (SHARK) ... done (  0.0 sec)
HCore & Overlap gradient (SHARK) ... done (  0.0 sec)
RI-J gradient            (SHARK) ... done (  0.1 sec)
COSX-gradient                    ... done (  0.3 sec)
Exchange-correlation gradient    ... done
Dispersion correction            ... done

------------------
CARTESIAN GRADIENT
------------------

   1   O   :   -0.066301223    0.023726663   -0.007936665
   2   C   :    0.064106671    0.019020154   -0.041986347
   3   C   :    0.029907529    0.002983969    0.020814777
   4   H   :   -0.032498624   -0.011814559    0.045426299
   5   H   :   -0.018071237    0.011626570   -0.007886428
   6   H   :    0.007618592   -0.022096576   -0.026540629
   7   H   :    0.015292629   -0.023062439    0.018096367

Difference to translation invariance:
           :    0.0000543372    0.0003837821   -0.0000126273

Difference to rotation invariance:
           :   -0.0001688312   -0.0000024895   -0.0002572084

Norm of the cartesian gradient     ...    0.1368205494
RMS gradient                       ...    0.0298566916
MAX gradient                       ...    0.0663012228

-------
TIMINGS
-------

Total SCF gradient time            ...        0.671 sec

One electron gradient       ....       0.009 sec  (  1.4%)
RI-J Coulomb gradient       ....       0.075 sec  ( 11.1%)
COSX gradient               ....       0.296 sec  ( 44.1%)
XC gradient                 ....       0.148 sec  ( 22.1%)

Maximum memory used throughout the entire SCFGRAD-calculation: 35.9 MB

                            ***************************************
                            *     ORCA property calculations      *
                            ***************************************

                                    ---------------------
                                    Active property flags
                                    ---------------------
   (+) Dipole Moment


------------------------------------------------------------------------------
                       ORCA ELECTRIC PROPERTIES CALCULATION
------------------------------------------------------------------------------

Dipole Moment Calculation                       ... on
Quadrupole Moment Calculation                   ... off
Polarizability Calculation                      ... off
GBWName                                         ... ox_gs_B_orca0006.gbw
Electron density                                ... ox_gs_B_orca0006.scfp
The origin for moment calculation is the CENTER OF MASS  = (-0.149921,  0.073344  0.049766)

-------------
DIPOLE MOMENT
-------------
                                X             Y             Z
Electronic contribution:     -0.00501       1.85764      -0.06977
Nuclear contribution   :      0.20578      -2.67388       0.02224
                        -----------------------------------------
Total Dipole Moment    :      0.20077      -0.81624      -0.04753
                        -----------------------------------------
Magnitude (a.u.)       :      0.84191
Magnitude (Debye)      :      2.13996



--------------------
Rotational spectrum 
--------------------
 
Rotational constants in cm-1:     0.869505     0.641190     0.439852 
Rotational constants in MHz : 26067.109015 19222.393526 13186.445884 

 Dipole components along the rotational axes: 
x,y,z [a.u.] :    -0.600935    -0.587507    -0.050221 
x,y,z [Debye]:    -1.527456    -1.493323    -0.127651 

 

Timings for individual modules:

Sum of individual times         ...        4.204 sec (=   0.070 min)
GTO integral calculation        ...        0.298 sec (=   0.005 min)   7.1 %
SCF iterations                  ...        3.040 sec (=   0.051 min)  72.3 %
SCF Gradient evaluation         ...        0.867 sec (=   0.014 min)  20.6 %
                             ****ORCA TERMINATED NORMALLY****
TOTAL RUN TIME: 0 days 0 hours 0 minutes 4 seconds 560 msec
