
                                 *****************
                                 * O   R   C   A *
                                 *****************

                                            #,                                       
                                            ###                                      
                                            ####                                     
                                            #####                                    
                                            ######                                   
                                           ########,                                 
                                     ,,################,,,,,                         
                               ,,#################################,,                 
                          ,,##########################################,,             
                       ,#########################################, ''#####,          
                    ,#############################################,,   '####,        
                  ,##################################################,,,,####,       
                ,###########''''           ''''###############################       
              ,#####''   ,,,,##########,,,,          '''####'''          '####       
            ,##' ,,,,###########################,,,                        '##       
           ' ,,###''''                  '''############,,,                           
         ,,##''                                '''############,,,,        ,,,,,,###''
      ,#''                                            '''#######################'''  
     '                                                          ''''####''''         
             ,#######,   #######,   ,#######,      ##                                
            ,#'     '#,  ##    ##  ,#'     '#,    #''#        ######   ,####,        
            ##       ##  ##   ,#'  ##            #'  '#       #        #'  '#        
            ##       ##  #######   ##           ,######,      #####,   #    #        
            '#,     ,#'  ##    ##  '#,     ,#' ,#      #,         ##   #,  ,#        
             '#######'   ##     ##  '#######'  #'      '#     #####' # '####'        



                  #######################################################
                  #                        -***-                        #
                  #          Department of theory and spectroscopy      #
                  #    Directorship and core code : Frank Neese         #
                  #        Max Planck Institute fuer Kohlenforschung    #
                  #                Kaiser Wilhelm Platz 1               #
                  #                 D-45470 Muelheim/Ruhr               #
                  #                      Germany                        #
                  #                                                     #
                  #                  All rights reserved                #
                  #                        -***-                        #
                  #######################################################


                         Program Version 5.0.2 -  RELEASE  -


 With contributions from (in alphabetic order):
   Daniel Aravena         : Magnetic Suceptibility
   Michael Atanasov       : Ab Initio Ligand Field Theory (pilot matlab implementation)
   Alexander A. Auer      : GIAO ZORA, VPT2 properties, NMR spectrum
   Ute Becker             : Parallelization
   Giovanni Bistoni       : ED, misc. LED, open-shell LED, HFLD
   Martin Brehm           : Molecular dynamics
   Dmytro Bykov           : SCF Hessian
   Vijay G. Chilkuri      : MRCI spin determinant printing, contributions to CSF-ICE
   Dipayan Datta          : RHF DLPNO-CCSD density
   Achintya Kumar Dutta   : EOM-CC, STEOM-CC
   Dmitry Ganyushin       : Spin-Orbit,Spin-Spin,Magnetic field MRCI
   Miquel Garcia          : C-PCM and meta-GGA Hessian, CC/C-PCM, Gaussian charge scheme
   Yang Guo               : DLPNO-NEVPT2, F12-NEVPT2, CIM, IAO-localization
   Andreas Hansen         : Spin unrestricted coupled pair/coupled cluster methods
   Benjamin Helmich-Paris : MC-RPA, TRAH-SCF, COSX integrals
   Lee Huntington         : MR-EOM, pCC
   Robert Izsak           : Overlap fitted RIJCOSX, COSX-SCS-MP3, EOM
   Marcus Kettner         : VPT2
   Christian Kollmar      : KDIIS, OOCD, Brueckner-CCSD(T), CCSD density, CASPT2, CASPT2-K
   Simone Kossmann        : Meta GGA functionals, TD-DFT gradient, OOMP2, MP2 Hessian
   Martin Krupicka        : Initial AUTO-CI
   Lucas Lang             : DCDCAS
   Marvin Lechner         : AUTO-CI (C++ implementation), FIC-MRCC
   Dagmar Lenk            : GEPOL surface, SMD
   Dimitrios Liakos       : Extrapolation schemes; Compound Job, initial MDCI parallelization
   Dimitrios Manganas     : Further ROCIS development; embedding schemes
   Dimitrios Pantazis     : SARC Basis sets
   Anastasios Papadopoulos: AUTO-CI, single reference methods and gradients
   Taras Petrenko         : DFT Hessian,TD-DFT gradient, ASA, ECA, R-Raman, ABS, FL, XAS/XES, NRVS
   Peter Pinski           : DLPNO-MP2, DLPNO-MP2 Gradient
   Christoph Reimann      : Effective Core Potentials
   Marius Retegan         : Local ZFS, SOC
   Christoph Riplinger    : Optimizer, TS searches, QM/MM, DLPNO-CCSD(T), (RO)-DLPNO pert. Triples
   Tobias Risthaus        : Range-separated hybrids, TD-DFT gradient, RPA, STAB
   Michael Roemelt        : Original ROCIS implementation
   Masaaki Saitow         : Open-shell DLPNO-CCSD energy and density
   Barbara Sandhoefer     : DKH picture change effects
   Avijit Sen             : IP-ROCIS
   Kantharuban Sivalingam : CASSCF convergence, NEVPT2, FIC-MRCI
   Bernardo de Souza      : ESD, SOC TD-DFT
   Georgi Stoychev        : AutoAux, RI-MP2 NMR, DLPNO-MP2 response
   Willem Van den Heuvel  : Paramagnetic NMR
   Boris Wezisla          : Elementary symmetry handling
   Frank Wennmohs         : Technical directorship


 We gratefully acknowledge several colleagues who have allowed us to
 interface, adapt or use parts of their codes:
   Stefan Grimme, W. Hujo, H. Kruse, P. Pracht,  : VdW corrections, initial TS optimization,
                  C. Bannwarth, S. Ehlert          DFT functionals, gCP, sTDA/sTD-DF
   Ed Valeev, F. Pavosevic, A. Kumar             : LibInt (2-el integral package), F12 methods
   Garnet Chan, S. Sharma, J. Yang, R. Olivares  : DMRG
   Ulf Ekstrom                                   : XCFun DFT Library
   Mihaly Kallay                                 : mrcc  (arbitrary order and MRCC methods)
   Jiri Pittner, Ondrej Demel                    : Mk-CCSD
   Frank Weinhold                                : gennbo (NPA and NBO analysis)
   Christopher J. Cramer and Donald G. Truhlar   : smd solvation model
   Lars Goerigk                                  : TD-DFT with DH, B97 family of functionals
   V. Asgeirsson, H. Jonsson                     : NEB implementation
   FAccTs GmbH                                   : IRC, NEB, NEB-TS, DLPNO-Multilevel, CI-OPT
                                                   MM, QMMM, 2- and 3-layer-ONIOM, Crystal-QMMM,
                                                   LR-CPCM, SF, NACMEs, symmetry and pop. for TD-DFT,
                                                   nearIR, NL-DFT gradient (VV10), updates on ESD,
                                                   ML-optimized integration grids
   S Lehtola, MJT Oliveira, MAL Marques          : LibXC Library
   Liviu Ungur et al                             : ANISO software


 Your calculation uses the libint2 library for the computation of 2-el integrals
 For citations please refer to: http://libint.valeyev.net

 Your ORCA version has been built with support for libXC version: 5.1.0
 For citations please refer to: https://tddft.org/programs/libxc/

 This ORCA versions uses:
   CBLAS   interface :  Fast vector & matrix operations
   LAPACKE interface :  Fast linear algebra routines
   SCALAPACK package :  Parallel linear algebra routines
   Shared memory     :  Shared parallel matrices
   BLAS/LAPACK       :  OpenBLAS 0.3.15  USE64BITINT DYNAMIC_ARCH NO_AFFINITY SkylakeX SINGLE_THREADED
        Core in use  :  SkylakeX
   Copyright (c) 2011-2014, The OpenBLAS Project


Your calculation utilizes the atom-pairwise dispersion correction
with the Becke-Johnson damping scheme (D3BJ)
Cite in your paper:
S.Grimme, S.Ehrlich, L.Goerigk, J Comput Chem, (2011), 32, 1456–1465 
S.Grimme, J.Antony, S.Ehrlich and H.Krieg, J.Chem.Phys., 132, (2010), 154104 
   

================================================================================

----- Orbital basis set information -----
Your calculation utilizes the basis: def2-TZVP
   F. Weigend and R. Ahlrichs, Phys. Chem. Chem. Phys. 7, 3297 (2005).

----- AuxJ basis set information -----
Your calculation utilizes the auxiliary basis: def2/J
   F. Weigend, Phys. Chem. Chem. Phys. 8, 1057 (2006).

================================================================================
                                        WARNINGS
                       Please study these warnings very carefully!
================================================================================


INFO   : the flag for use of the SHARK integral package has been found!

================================================================================
                                       INPUT FILE
================================================================================
NAME = ox_gs_C_orca0009.inp
|  1> ! engrad PBE0 D3BJ def2-TZVP  
|  2> %pal nprocs 8 end
|  3> %maxcore 3000
|  4>  
|  5> *xyz 0 1 
|  6> O   -0.5064782553707445 1.0371796994573002 0.016974275323612616
|  7> C   -0.7248038544337393 -0.462845793059429 -0.05965839894322662
|  8> C   0.7135641476209128 -0.4853093064576503 -0.04246761668301355
|  9> H   -1.1927092847458867 -0.5943373147021416 0.8968717144571949
| 10> H   -1.2357014613683863 -0.67880920431556 -0.9596503132199043
| 11> H   1.2672002116598582 -0.6823005703448478 -0.8699401026598385
| 12> H   1.300989605684814 -0.6508074562785787 0.8877673706469603
| 13> *
| 14> 
| 15>                          ****END OF INPUT****
================================================================================

                     *******************************
                     * Energy+Gradient Calculation *
                     *******************************

---------------------------------
CARTESIAN COORDINATES (ANGSTROEM)
---------------------------------
  O     -0.506478    1.037180    0.016974
  C     -0.724804   -0.462846   -0.059658
  C      0.713564   -0.485309   -0.042468
  H     -1.192709   -0.594337    0.896872
  H     -1.235701   -0.678809   -0.959650
  H      1.267200   -0.682301   -0.869940
  H      1.300990   -0.650807    0.887767

----------------------------
CARTESIAN COORDINATES (A.U.)
----------------------------
  NO LB      ZA    FRAG     MASS         X           Y           Z
   0 O     8.0000    0    15.999   -0.957105    1.959986    0.032077
   1 C     6.0000    0    12.011   -1.369681   -0.874652   -0.112738
   2 C     6.0000    0    12.011    1.348441   -0.917102   -0.080252
   3 H     1.0000    0     1.008   -2.253894   -1.123135    1.694842
   4 H     1.0000    0     1.008   -2.335137   -1.282763   -1.813476
   5 H     1.0000    0     1.008    2.394661   -1.289361   -1.643949
   6 H     1.0000    0     1.008    2.458514   -1.229848    1.677637

--------------------------------
INTERNAL COORDINATES (ANGSTROEM)
--------------------------------
 O      0   0   0     0.000000000000     0.00000000     0.00000000
 C      1   0   0     1.517766488025     0.00000000     0.00000000
 C      2   1   0     1.438646114152    82.58874926     0.00000000
 H      2   1   3     1.072928408526    97.98073633   114.39075287
 H      2   1   3     1.057185889774   108.32412062   241.47102914
 H      3   2   1     1.014903524726   122.59442876   254.44708754
 H      3   2   1     1.112562554659   122.69758454    96.78077032

---------------------------
INTERNAL COORDINATES (A.U.)
---------------------------
 O      0   0   0     0.000000000000     0.00000000     0.00000000
 C      1   0   0     2.868162997611     0.00000000     0.00000000
 C      2   1   0     2.718647159377    82.58874926     0.00000000
 H      2   1   3     2.027540853417    97.98073633   114.39075287
 H      2   1   3     1.997791804318   108.32412062   241.47102914
 H      3   2   1     1.917889714083   122.59442876   254.44708754
 H      3   2   1     2.102438535161   122.69758454    96.78077032

---------------------
BASIS SET INFORMATION
---------------------
There are 3 groups of distinct atoms

 Group   1 Type O   : 11s6p2d1f contracted to 5s3p2d1f pattern {62111/411/11/1}
 Group   2 Type C   : 11s6p2d1f contracted to 5s3p2d1f pattern {62111/411/11/1}
 Group   3 Type H   : 5s1p contracted to 3s1p pattern {311/1}

Atom   0O    basis set group =>   1
Atom   1C    basis set group =>   2
Atom   2C    basis set group =>   2
Atom   3H    basis set group =>   3
Atom   4H    basis set group =>   3
Atom   5H    basis set group =>   3
Atom   6H    basis set group =>   3
---------------------------------
AUXILIARY/J BASIS SET INFORMATION
---------------------------------
There are 3 groups of distinct atoms

 Group   1 Type O   : 12s5p4d2f1g contracted to 6s4p3d1f1g pattern {711111/2111/211/2/1}
 Group   2 Type C   : 12s5p4d2f1g contracted to 6s4p3d1f1g pattern {711111/2111/211/2/1}
 Group   3 Type H   : 5s2p1d contracted to 3s1p1d pattern {311/2/1}

Atom   0O    basis set group =>   1
Atom   1C    basis set group =>   2
Atom   2C    basis set group =>   2
Atom   3H    basis set group =>   3
Atom   4H    basis set group =>   3
Atom   5H    basis set group =>   3
Atom   6H    basis set group =>   3


           ************************************************************
           *        Program running with 8 parallel MPI-processes     *
           *              working on a common directory               *
           ************************************************************
------------------------------------------------------------------------------
                           ORCA GTO INTEGRAL CALCULATION
                           -- RI-GTO INTEGRALS CHOSEN --
------------------------------------------------------------------------------
------------------------------------------------------------------------------
                   ___                                                        
                  /   \      - P O W E R E D   B Y -                         
                 /     \                                                     
                 |  |  |   _    _      __       _____    __    __             
                 |  |  |  | |  | |    /  \     |  _  \  |  |  /  |          
                  \  \/   | |  | |   /    \    | | | |  |  | /  /          
                 / \  \   | |__| |  /  /\  \   | |_| |  |  |/  /          
                |  |  |   |  __  | /  /__\  \  |    /   |      \           
                |  |  |   | |  | | |   __   |  |    \   |  |\   \          
                \     /   | |  | | |  |  |  |  | |\  \  |  | \   \       
                 \___/    |_|  |_| |__|  |__|  |_| \__\ |__|  \__/        
                                                                              
                      - O R C A' S   B I G   F R I E N D -                    
                                      &                                       
                       - I N T E G R A L  F E E D E R -                       
                                                                              
 v1 FN, 2020, v2 2021                                                         
------------------------------------------------------------------------------


Reading SHARK input file ox_gs_C_orca0009.SHARKINP.tmp ... ok
----------------------
SHARK INTEGRAL PACKAGE
----------------------

Number of atoms                             ...      7
Number of basis functions                   ...    117
Number of shells                            ...     49
Maximum angular momentum                    ...      3
Integral batch strategy                     ... SHARK/LIBINT Hybrid
RI-J (if used) integral strategy            ... SPLIT-RIJ (Revised 2003 algorithm where possible)
Printlevel                                  ...      1
Contraction scheme used                     ... SEGMENTED contraction
Coulomb Range Separation                    ... NOT USED
Exchange Range Separation                   ... NOT USED
Finite Nucleus Model                        ... NOT USED
Auxiliary Coulomb fitting basis             ... AVAILABLE
   # of basis functions in Aux-J            ...    191
   # of shells in Aux-J                     ...     65
   Maximum angular momentum in Aux-J        ...      4
Auxiliary J/K fitting basis                 ... NOT available
Auxiliary Correlation fitting basis         ... NOT available
Auxiliary 'external' fitting basis          ... NOT available
Integral threshold                          ...     2.500000e-11
Primitive cut-off                           ...     2.500000e-12
Primitive pair pre-selection threshold      ...     2.500000e-12

Calculating pre-screening integrals         ... done (  0.0 sec) Dimension = 49
Organizing shell pair data                  ... done (  0.0 sec)
Shell pair information
Total number of shell pairs                 ...      1225
Shell pairs after pre-screening             ...      1217
Total number of primitive shell pairs       ...      3648
Primitive shell pairs kept                  ...      3106
          la=0 lb=0:    370 shell pairs
          la=1 lb=0:    351 shell pairs
          la=1 lb=1:     91 shell pairs
          la=2 lb=0:    162 shell pairs
          la=2 lb=1:     78 shell pairs
          la=2 lb=2:     21 shell pairs
          la=3 lb=0:     81 shell pairs
          la=3 lb=1:     39 shell pairs
          la=3 lb=2:     18 shell pairs
          la=3 lb=3:      6 shell pairs

Calculating one electron integrals          ... done (  0.0 sec)
Calculating RI/J V-Matrix + Cholesky decomp.... done (  0.0 sec)
Calculating Nuclear repulsion               ... done (  0.0 sec) ENN=     69.511715578389 Eh

SHARK setup successfully completed in   0.1 seconds

Maximum memory used throughout the entire GTOINT-calculation: 14.9 MB


           ************************************************************
           *        Program running with 8 parallel MPI-processes     *
           *              working on a common directory               *
           ************************************************************
-------------------------------------------------------------------------------
                                 ORCA SCF
-------------------------------------------------------------------------------

------------
SCF SETTINGS
------------
Hamiltonian:
 Density Functional     Method          .... DFT(GTOs)
 Exchange Functional    Exchange        .... PBE
   PBE kappa parameter   XKappa         ....  0.804000
   PBE mue parameter    XMuePBE         ....  0.219520
 Correlation Functional Correlation     .... PBE
   PBE beta parameter  CBetaPBE         ....  0.066725
 LDA part of GGA corr.  LDAOpt          .... PW91-LDA
 Gradients option       PostSCFGGA      .... off
 Hybrid DFT is turned on
   Fraction HF Exchange ScalHFX         ....  0.250000
   Scaling of DF-GGA-X  ScalDFX         ....  0.750000
   Scaling of DF-GGA-C  ScalDFC         ....  1.000000
   Scaling of DF-LDA-C  ScalLDAC        ....  1.000000
   Perturbative correction              ....  0.000000
   Density functional embedding theory  .... OFF
   NL short-range parameter             ....  6.900000
 RI-approximation to the Coulomb term is turned on
   Number of AuxJ basis functions       .... 191
   RIJ-COSX (HFX calculated with COS-X)).... on


General Settings:
 Integral files         IntName         .... ox_gs_C_orca0009
 Hartree-Fock type      HFTyp           .... RHF
 Total Charge           Charge          ....    0
 Multiplicity           Mult            ....    1
 Number of Electrons    NEL             ....   24
 Basis Dimension        Dim             ....  117
 Nuclear Repulsion      ENuc            ....     69.5117155784 Eh

Convergence Acceleration:
 DIIS                   CNVDIIS         .... on
   Start iteration      DIISMaxIt       ....    12
   Startup error        DIISStart       ....  0.200000
   # of expansion vecs  DIISMaxEq       ....     5
   Bias factor          DIISBfac        ....   1.050
   Max. coefficient     DIISMaxC        ....  10.000
 Trust-Rad. Augm. Hess. CNVTRAH         .... auto
   Auto Start mean grad. ratio tolernc. ....  1.125000
   Auto Start start iteration           ....    20
   Auto Start num. interpolation iter.  ....    10
   Max. Number of Micro iterations      ....    16
   Max. Number of Macro iterations      .... Maxiter - #DIIS iter
   Number of Davidson start vectors     ....     2
   Converg. threshold I  (grad. norm)   ....   1.000e-05
   Converg. threshold II (energy diff.) ....   1.000e-08
   Grad. Scal. Fac. for Micro threshold ....   0.100
   Minimum threshold for Micro iter.    ....   0.010
   NR start threshold (gradient norm)   ....   0.001
   Initial trust radius                 ....   0.400
   Minimum AH scaling param. (alpha)    ....   1.000
   Maximum AH scaling param. (alpha)    .... 1000.000
   Orbital update algorithm             .... Taylor
   White noise on init. David. guess    .... on
   Maximum white noise                  ....   0.010
   Quad. conv. algorithm                .... NR
 SOSCF                  CNVSOSCF        .... on
   Start iteration      SOSCFMaxIt      ....   150
   Startup grad/error   SOSCFStart      ....  0.003300
 Level Shifting         CNVShift        .... on
   Level shift para.    LevelShift      ....    0.2500
   Turn off err/grad.   ShiftErr        ....    0.0010
 Zerner damping         CNVZerner       .... off
 Static damping         CNVDamp         .... on
   Fraction old density DampFac         ....    0.7000
   Max. Damping (<1)    DampMax         ....    0.9800
   Min. Damping (>=0)   DampMin         ....    0.0000
   Turn off err/grad.   DampErr         ....    0.1000
 Fernandez-Rico         CNVRico         .... off

SCF Procedure:
 Maximum # iterations   MaxIter         ....   125
 SCF integral mode      SCFMode         .... Direct
   Integral package                     .... SHARK and LIBINT hybrid scheme
 Reset frequency        DirectResetFreq ....    20
 Integral Threshold     Thresh          ....  2.500e-11 Eh
 Primitive CutOff       TCut            ....  2.500e-12 Eh

Convergence Tolerance:
 Convergence Check Mode ConvCheckMode   .... Total+1el-Energy
 Convergence forced     ConvForced      .... 0
 Energy Change          TolE            ....  1.000e-08 Eh
 1-El. energy change                    ....  1.000e-05 Eh
 Orbital Gradient       TolG            ....  1.000e-05
 Orbital Rotation angle TolX            ....  1.000e-05
 DIIS Error             TolErr          ....  5.000e-07


Diagonalization of the overlap matrix:
Smallest eigenvalue                        ... 3.886e-04
Time for diagonalization                   ...    0.001 sec
Threshold for overlap eigenvalues          ... 1.000e-08
Number of eigenvalues below threshold      ... 0
Time for construction of square roots      ...    0.001 sec
Total time needed                          ...    0.003 sec

Time for model grid setup =    0.022 sec

------------------------------
INITIAL GUESS: MODEL POTENTIAL
------------------------------
Loading Hartree-Fock densities                     ... done
Calculating cut-offs                               ... done
Initializing the effective Hamiltonian             ... done
Setting up the integral package (SHARK)            ... done
Starting the Coulomb interaction                   ... done (   0.0 sec)
Reading the grid                                   ... done
Mapping shells                                     ... done
Starting the XC term evaluation                    ... done (   0.0 sec)
  promolecular density results
     # of electrons  =     23.998475151
     EX              =    -19.464220894
     EC              =     -0.767612873
     EX+EC           =    -20.231833767
Transforming the Hamiltonian                       ... done (   0.0 sec)
Diagonalizing the Hamiltonian                      ... done (   0.0 sec)
Back transforming the eigenvectors                 ... done (   0.0 sec)
Now organizing SCF variables                       ... done
                      ------------------
                      INITIAL GUESS DONE (   0.0 sec)
                      ------------------
-------------------
DFT GRID GENERATION
-------------------

General Integration Accuracy     IntAcc      ... 4.388
Radial Grid Type                 RadialGrid  ... OptM3 with GC (2021)
Angular Grid (max. ang.)         AngularGrid ... 4 (Lebedev-302)
Angular grid pruning method      GridPruning ... 4 (adaptive)
Weight generation scheme         WeightScheme... Becke
Basis function cutoff            BFCut       ... 1.0000e-11
Integration weight cutoff        WCut        ... 1.0000e-14
Angular grids for H and He will be reduced by one unit
Partially contracted basis set               ... off
Rotationally invariant grid construction     ... off

Total number of grid points                  ...    31310
Total number of batches                      ...      493
Average number of points per batch           ...       63
Average number of grid points per atom       ...     4473
Time for grid setup =    0.112 sec

--------------------
COSX GRID GENERATION
--------------------

GRIDX 1
-------
General Integration Accuracy     IntAcc      ... 3.816
Radial Grid Type                 RadialGrid  ... OptM3 with GC (2021)
Angular Grid (max. ang.)         AngularGrid ... 1 (Lebedev-50)
Angular grid pruning method      GridPruning ... 4 (adaptive)
Weight generation scheme         WeightScheme... Becke
Basis function cutoff            BFCut       ... 1.0000e-11
Integration weight cutoff        WCut        ... 1.0000e-14
Angular grids for H and He will be reduced by one unit
Partially contracted basis set               ... on
Rotationally invariant grid construction     ... off

Total number of grid points                  ...     4037
Total number of batches                      ...       67
Average number of points per batch           ...       60
Average number of grid points per atom       ...      577
UseSFitting                                  ... on

GRIDX 2
-------
General Integration Accuracy     IntAcc      ... 4.020
Radial Grid Type                 RadialGrid  ... OptM3 with GC (2021)
Angular Grid (max. ang.)         AngularGrid ... 2 (Lebedev-110)
Angular grid pruning method      GridPruning ... 4 (adaptive)
Weight generation scheme         WeightScheme... Becke
Basis function cutoff            BFCut       ... 1.0000e-11
Integration weight cutoff        WCut        ... 1.0000e-14
Angular grids for H and He will be reduced by one unit
Partially contracted basis set               ... on
Rotationally invariant grid construction     ... off

Total number of grid points                  ...     8730
Total number of batches                      ...      138
Average number of points per batch           ...       63
Average number of grid points per atom       ...     1247
UseSFitting                                  ... on

GRIDX 3
-------
General Integration Accuracy     IntAcc      ... 4.338
Radial Grid Type                 RadialGrid  ... OptM3 with GC (2021)
Angular Grid (max. ang.)         AngularGrid ... 3 (Lebedev-194)
Angular grid pruning method      GridPruning ... 4 (adaptive)
Weight generation scheme         WeightScheme... Becke
Basis function cutoff            BFCut       ... 1.0000e-11
Integration weight cutoff        WCut        ... 1.0000e-14
Angular grids for H and He will be reduced by one unit
Partially contracted basis set               ... on
Rotationally invariant grid construction     ... off

Total number of grid points                  ...    19251
Total number of batches                      ...      305
Average number of points per batch           ...       63
Average number of grid points per atom       ...     2750
UseSFitting                                  ... on

Time for X-Grid setup             =    0.074 sec

--------------
SCF ITERATIONS
--------------
ITER       Energy         Delta-E        Max-DP      RMS-DP      [F,P]     Damp
               ***  Starting incremental Fock matrix formation  ***
  0   -153.5052499265   0.000000000000 0.05160842  0.00150773  0.2320140 0.7000
  1   -153.5487119548  -0.043462028306 0.02883411  0.00095470  0.0758929 0.7000
                               ***Turning on DIIS***
  2   -153.5610623052  -0.012350350400 0.03115541  0.00134123  0.0411398 0.0000
  3   -153.5886982887  -0.027635983461 0.01940273  0.00077314  0.0337055 0.0000
  4   -153.5912341916  -0.002535902886 0.00814009  0.00024169  0.0301849 0.0000
                      *** Initiating the SOSCF procedure ***
                           *** Shutting down DIIS ***
                      *** Re-Reading the Fockian *** 
                      *** Removing any level shift *** 
ITER      Energy       Delta-E        Grad      Rot      Max-DP    RMS-DP
  5   -153.59247846  -0.0012442697  0.000562  0.000562  0.001739  0.000054
               *** Restarting incremental Fock matrix formation ***
  6   -153.59249805  -0.0000195919  0.000770  0.003481  0.002161  0.000056
  7   -153.59247769   0.0000203623  0.002009  0.002275  0.001478  0.000039
  8   -153.59250261  -0.0000249196  0.000126  0.000265  0.000413  0.000013
  9   -153.59250247   0.0000001422  0.000168  0.000090  0.000223  0.000007
 10   -153.59250308  -0.0000006147  0.000009  0.000022  0.000018  0.000001
 11   -153.59250308  -0.0000000002  0.000009  0.000006  0.000010  0.000000
                  ***Gradient check signals convergence***
              ***Rediagonalizing the Fockian in SOSCF/NRSCF***

               *****************************************************
               *                     SUCCESS                       *
               *           SCF CONVERGED AFTER  12 CYCLES          *
               *****************************************************

Old exchange energy                            =     -4.965086184 Eh
New exchange energy                            =     -4.965088461 Eh
Exchange energy change after final integration =     -0.000002278 Eh
Total energy after final integration           =   -153.592505363 Eh
Final COS-X integration done in                =     0.259 sec

----------------
TOTAL SCF ENERGY
----------------

Total Energy       :         -153.59250536 Eh           -4179.46455 eV

Components:
Nuclear Repulsion  :           69.51171558 Eh            1891.50994 eV
Electronic Energy  :         -223.10422094 Eh           -6070.97449 eV
One Electron Energy:         -345.90681849 Eh           -9412.60306 eV
Two Electron Energy:          122.80259755 Eh            3341.62856 eV
Max COSX asymmetry :            0.00000106 Eh               0.00003 eV

Virial components:
Potential Energy   :         -306.37877602 Eh           -8336.99034 eV
Kinetic Energy     :          152.78627066 Eh            4157.52579 eV
Virial Ratio       :            2.00527688


DFT components:
N(Alpha)           :       12.000001406433 electrons
N(Beta)            :       12.000001406433 electrons
N(Total)           :       24.000002812865 electrons
E(X)               :      -14.896243818190 Eh       
E(C)               :       -0.774466634199 Eh       
E(XC)              :      -15.670710452389 Eh       
DFET-embed. en.    :        0.000000000000 Eh       

---------------
SCF CONVERGENCE
---------------

  Last Energy change         ...   -2.3166e-09  Tolerance :   1.0000e-08
  Last MAX-Density change    ...    1.5543e-15  Tolerance :   1.0000e-07
  Last RMS-Density change    ...    2.3579e-17  Tolerance :   5.0000e-09
  Last Orbital Gradient      ...    1.0857e-06  Tolerance :   1.0000e-05
  Last Orbital Rotation      ...    3.4598e-06  Tolerance :   1.0000e-05

             **** THE GBW FILE WAS UPDATED (ox_gs_C_orca0009.gbw) ****
             **** DENSITY ox_gs_C_orca0009.scfp WAS UPDATED ****
             **** ENERGY FILE WAS UPDATED (ox_gs_C_orca0009.en.tmp) ****
             **** THE GBW FILE WAS UPDATED (ox_gs_C_orca0009.gbw) ****
             **** DENSITY ox_gs_C_orca0009.scfp WAS UPDATED ****
----------------
ORBITAL ENERGIES
----------------

  NO   OCC          E(Eh)            E(eV) 
   0   2.0000     -19.209533      -522.7180 
   1   2.0000     -10.299919      -280.2750 
   2   2.0000     -10.273069      -279.5444 
   3   2.0000      -0.984289       -26.7839 
   4   2.0000      -0.763480       -20.7753 
   5   2.0000      -0.643742       -17.5171 
   6   2.0000      -0.525007       -14.2862 
   7   2.0000      -0.482224       -13.1220 
   8   2.0000      -0.419013       -11.4019 
   9   2.0000      -0.382953       -10.4207 
  10   2.0000      -0.300911        -8.1882 
  11   2.0000      -0.270520        -7.3612 
  12   0.0000      -0.079311        -2.1582 
  13   0.0000       0.060373         1.6428 
  14   0.0000       0.083038         2.2596 
  15   0.0000       0.089325         2.4307 
  16   0.0000       0.100234         2.7275 
  17   0.0000       0.150254         4.0886 
  18   0.0000       0.181469         4.9380 
  19   0.0000       0.205347         5.5878 
  20   0.0000       0.234742         6.3877 
  21   0.0000       0.261860         7.1256 
  22   0.0000       0.272964         7.4277 
  23   0.0000       0.302276         8.2253 
  24   0.0000       0.374493        10.1905 
  25   0.0000       0.409014        11.1298 
  26   0.0000       0.423180        11.5153 
  27   0.0000       0.429703        11.6928 
  28   0.0000       0.456986        12.4352 
  29   0.0000       0.492367        13.3980 
  30   0.0000       0.502011        13.6604 
  31   0.0000       0.523509        14.2454 
  32   0.0000       0.571178        15.5425 
  33   0.0000       0.641835        17.4652 
  34   0.0000       0.660043        17.9607 
  35   0.0000       0.757844        20.6220 
  36   0.0000       0.812397        22.1065 
  37   0.0000       0.838972        22.8296 
  38   0.0000       0.844587        22.9824 
  39   0.0000       0.936952        25.4957 
  40   0.0000       0.948490        25.8097 
  41   0.0000       1.029494        28.0140 
  42   0.0000       1.069071        29.0909 
  43   0.0000       1.075162        29.2566 
  44   0.0000       1.174975        31.9727 
  45   0.0000       1.341817        36.5127 
  46   0.0000       1.398032        38.0424 
  47   0.0000       1.455481        39.6057 
  48   0.0000       1.499144        40.7938 
  49   0.0000       1.520300        41.3695 
  50   0.0000       1.570762        42.7426 
  51   0.0000       1.602903        43.6172 
  52   0.0000       1.658342        45.1258 
  53   0.0000       1.706645        46.4402 
  54   0.0000       1.733159        47.1617 
  55   0.0000       1.761322        47.9280 
  56   0.0000       1.839800        50.0635 
  57   0.0000       1.844141        50.1816 
  58   0.0000       1.878577        51.1187 
  59   0.0000       1.947450        52.9928 
  60   0.0000       1.992071        54.2070 
  61   0.0000       2.109830        57.4114 
  62   0.0000       2.138949        58.2038 
  63   0.0000       2.228889        60.6512 
  64   0.0000       2.316492        63.0349 
  65   0.0000       2.357549        64.1522 
  66   0.0000       2.422486        65.9192 
  67   0.0000       2.469850        67.2080 
  68   0.0000       2.478200        67.4353 
  69   0.0000       2.579161        70.1825 
  70   0.0000       2.600597        70.7658 
  71   0.0000       2.624530        71.4171 
  72   0.0000       2.693257        73.2872 
  73   0.0000       2.744027        74.6688 
  74   0.0000       2.775100        75.5143 
  75   0.0000       2.806033        76.3560 
  76   0.0000       2.813275        76.5531 
  77   0.0000       2.864768        77.9543 
  78   0.0000       2.972387        80.8828 
  79   0.0000       2.996869        81.5490 
  80   0.0000       3.042571        82.7926 
  81   0.0000       3.070018        83.5394 
  82   0.0000       3.109306        84.6085 
  83   0.0000       3.142902        85.5227 
  84   0.0000       3.189441        86.7891 
  85   0.0000       3.261817        88.7586 
  86   0.0000       3.363522        91.5261 
  87   0.0000       3.371706        91.7488 
  88   0.0000       3.440697        93.6261 
  89   0.0000       3.520535        95.7986 
  90   0.0000       3.603726        98.0624 
  91   0.0000       3.682891       100.2166 
  92   0.0000       3.694848       100.5419 
  93   0.0000       3.913614       106.4949 
  94   0.0000       4.033211       109.7493 
  95   0.0000       4.113146       111.9244 
  96   0.0000       4.214737       114.6888 
  97   0.0000       4.310607       117.2976 
  98   0.0000       4.460930       121.3881 
  99   0.0000       4.539114       123.5156 
 100   0.0000       4.626038       125.8809 
 101   0.0000       4.815930       131.0481 
 102   0.0000       5.234031       142.4252 
 103   0.0000       5.245963       142.7499 
 104   0.0000       5.317364       144.6928 
 105   0.0000       5.375672       146.2795 
 106   0.0000       5.623565       153.0250 
 107   0.0000       5.637619       153.4074 
 108   0.0000       5.831209       158.6753 
 109   0.0000       6.385668       173.7629 
 110   0.0000       6.454796       175.6439 
 111   0.0000       6.717822       182.8012 
 112   0.0000       6.848895       186.3679 
 113   0.0000       7.010090       190.7542 
 114   0.0000      22.240386       605.1917 
 115   0.0000      22.438432       610.5808 
 116   0.0000      43.636400      1187.4068 

                    ********************************
                    * MULLIKEN POPULATION ANALYSIS *
                    ********************************

-----------------------
MULLIKEN ATOMIC CHARGES
-----------------------
   0 O :   -0.381928
   1 C :   -0.028122
   2 C :   -0.136021
   3 H :    0.122666
   4 H :    0.123535
   5 H :    0.148392
   6 H :    0.151478
Sum of atomic charges:    0.0000000

--------------------------------
MULLIKEN REDUCED ORBITAL CHARGES
--------------------------------
  0 O s       :     3.923439  s :     3.923439
      pz      :     1.923279  p :     4.436581
      px      :     1.373648
      py      :     1.139655
      dz2     :     0.003151  d :     0.020851
      dxz     :     0.000451
      dyz     :     0.003814
      dx2y2   :     0.006799
      dxy     :     0.006636
      f0      :     0.000114  f :     0.001056
      f+1     :     0.000060
      f-1     :     0.000275
      f+2     :     0.000102
      f-2     :     0.000034
      f+3     :     0.000234
      f-3     :     0.000238
  1 C s       :     3.187472  s :     3.187472
      pz      :     1.052891  p :     2.701279
      px      :     0.922104
      py      :     0.726283
      dz2     :     0.010917  d :     0.130284
      dxz     :     0.018687
      dyz     :     0.036427
      dx2y2   :     0.026360
      dxy     :     0.037893
      f0      :     0.001535  f :     0.009086
      f+1     :     0.001144
      f-1     :     0.000628
      f+2     :     0.002231
      f-2     :     0.000198
      f+3     :     0.001365
      f-3     :     0.001985
  2 C s       :     3.281326  s :     3.281326
      pz      :     1.060168  p :     2.787990
      px      :     0.976710
      py      :     0.751112
      dz2     :     0.005401  d :     0.060951
      dxz     :     0.023448
      dyz     :     0.007794
      dx2y2   :     0.009585
      dxy     :     0.014723
      f0      :     0.000556  f :     0.005753
      f+1     :     0.001091
      f-1     :     0.000152
      f+2     :     0.000977
      f-2     :     0.000361
      f+3     :     0.001184
      f-3     :     0.001433
  3 H s       :     0.855156  s :     0.855156
      pz      :     0.011886  p :     0.022178
      px      :     0.005741
      py      :     0.004551
  4 H s       :     0.854624  s :     0.854624
      pz      :     0.011173  p :     0.021841
      px      :     0.006561
      py      :     0.004107
  5 H s       :     0.827326  s :     0.827326
      pz      :     0.011091  p :     0.024282
      px      :     0.008233
      py      :     0.004958
  6 H s       :     0.827183  s :     0.827183
      pz      :     0.010866  p :     0.021340
      px      :     0.006800
      py      :     0.003674


                     *******************************
                     * LOEWDIN POPULATION ANALYSIS *
                     *******************************

----------------------
LOEWDIN ATOMIC CHARGES
----------------------
   0 O :   -0.108688
   1 C :   -0.325313
   2 C :   -0.049349
   3 H :    0.126669
   4 H :    0.115137
   5 H :    0.104451
   6 H :    0.137093

-------------------------------
LOEWDIN REDUCED ORBITAL CHARGES
-------------------------------
  0 O s       :     3.615988  s :     3.615988
      pz      :     1.861809  p :     4.446698
      px      :     1.343330
      py      :     1.241560
      dz2     :     0.006945  d :     0.043449
      dxz     :     0.000912
      dyz     :     0.008478
      dx2y2   :     0.015121
      dxy     :     0.011993
      f0      :     0.000219  f :     0.002552
      f+1     :     0.000077
      f-1     :     0.000508
      f+2     :     0.000363
      f-2     :     0.000087
      f+3     :     0.000675
      f-3     :     0.000625
  1 C s       :     2.830157  s :     2.830157
      pz      :     1.058747  p :     2.921062
      px      :     1.067606
      py      :     0.794709
      dz2     :     0.065189  d :     0.512468
      dxz     :     0.107651
      dyz     :     0.090855
      dx2y2   :     0.125365
      dxy     :     0.123409
      f0      :     0.009440  f :     0.061625
      f+1     :     0.005157
      f-1     :     0.006060
      f+2     :     0.012359
      f-2     :     0.001087
      f+3     :     0.010087
      f-3     :     0.017435
  2 C s       :     2.874799  s :     2.874799
      pz      :     1.079314  p :     2.873997
      px      :     1.095829
      py      :     0.698854
      dz2     :     0.032634  d :     0.271384
      dxz     :     0.120699
      dyz     :     0.017096
      dx2y2   :     0.048668
      dxy     :     0.052286
      f0      :     0.003526  f :     0.029169
      f+1     :     0.004025
      f-1     :     0.001468
      f+2     :     0.005399
      f-2     :     0.001480
      f+3     :     0.005707
      f-3     :     0.007563
  3 H s       :     0.809635  s :     0.809635
      pz      :     0.034720  p :     0.063695
      px      :     0.016228
      py      :     0.012747
  4 H s       :     0.819371  s :     0.819371
      pz      :     0.034203  p :     0.065492
      px      :     0.018799
      py      :     0.012490
  5 H s       :     0.818876  s :     0.818876
      pz      :     0.036943  p :     0.076673
      px      :     0.024587
      py      :     0.015144
  6 H s       :     0.802711  s :     0.802711
      pz      :     0.031991  p :     0.060196
      px      :     0.017993
      py      :     0.010212


                      *****************************
                      * MAYER POPULATION ANALYSIS *
                      *****************************

  NA   - Mulliken gross atomic population
  ZA   - Total nuclear charge
  QA   - Mulliken gross atomic charge
  VA   - Mayer's total valence
  BVA  - Mayer's bonded valence
  FA   - Mayer's free valence

  ATOM       NA         ZA         QA         VA         BVA        FA
  0 O      8.3819     8.0000    -0.3819     1.8363     1.8363     0.0000
  1 C      6.0281     6.0000    -0.0281     3.9999     3.9999     0.0000
  2 C      6.1360     6.0000    -0.1360     3.8931     3.8931     0.0000
  3 H      0.8773     1.0000     0.1227     0.9710     0.9710    -0.0000
  4 H      0.8765     1.0000     0.1235     0.9595     0.9595     0.0000
  5 H      0.8516     1.0000     0.1484     0.9582     0.9582     0.0000
  6 H      0.8485     1.0000     0.1515     0.9590     0.9590     0.0000

  Mayer bond orders larger than 0.100000
B(  0-O ,  1-C ) :   0.9563 B(  0-O ,  2-C ) :   0.8782 B(  1-C ,  2-C ) :   1.1082 
B(  1-C ,  3-H ) :   0.9703 B(  1-C ,  4-H ) :   0.9521 B(  2-C ,  5-H ) :   0.9528 
B(  2-C ,  6-H ) :   0.9465 

-------
TIMINGS
-------

Total SCF time: 0 days 0 hours 0 min 2 sec 

Total time                  ....       2.888 sec
Sum of individual times     ....       2.614 sec  ( 90.5%)

Fock matrix formation       ....       2.347 sec  ( 81.3%)
  Split-RI-J                ....       0.241 sec  ( 10.3% of F)
  Chain of spheres X        ....       1.609 sec  ( 68.5% of F)
  XC integration            ....       0.431 sec  ( 18.4% of F)
    Basis function eval.    ....       0.114 sec  ( 26.3% of XC)
    Density eval.           ....       0.085 sec  ( 19.7% of XC)
    XC-Functional eval.     ....       0.024 sec  (  5.7% of XC)
    XC-Potential eval.      ....       0.146 sec  ( 33.8% of XC)
Diagonalization             ....       0.014 sec  (  0.5%)
Density matrix formation    ....       0.001 sec  (  0.0%)
Population analysis         ....       0.002 sec  (  0.1%)
Initial guess               ....       0.016 sec  (  0.6%)
Orbital Transformation      ....       0.000 sec  (  0.0%)
Orbital Orthonormalization  ....       0.000 sec  (  0.0%)
DIIS solution               ....       0.011 sec  (  0.4%)
SOSCF solution              ....       0.015 sec  (  0.5%)
Grid generation             ....       0.208 sec  (  7.2%)

Maximum memory used throughout the entire SCF-calculation: 61.0 MB


-------------------------------------------------------------------------------
                          DFT DISPERSION CORRECTION                            
                                                                               
                              DFTD3 V3.1  Rev 1                                
                          USING Becke-Johnson damping                          
-------------------------------------------------------------------------------
The PBE0 functional is recognized
Active option DFTDOPT                   ...         4   

molecular C6(AA) [au] = 388.611209 


            DFT-D V3
 parameters
 s6 scaling factor         :     1.0000 
 a1 scaling factor         :     0.4145 
 s8 scaling factor         :     1.2177 
 a2 scaling factor         :     4.8593 
 ad hoc parameters k1-k3   :    16.0000     1.3333    -4.0000 

 Edisp/kcal,au: -1.646455858019  -0.002623794142 
 E6   /kcal   :  -1.075666066 
 E8   /kcal   :  -0.570789792 
 % E8         :  34.667785892 

-------------------------   ----------------
Dispersion correction           -0.002623794
-------------------------   ----------------


-------------------------   --------------------
FINAL SINGLE POINT ENERGY      -153.595129157386
-------------------------   --------------------



           ************************************************************
           *        Program running with 8 parallel MPI-processes     *
           *              working on a common directory               *
           ************************************************************
------------------------------------------------------------------------------
                         ORCA SCF GRADIENT CALCULATION
------------------------------------------------------------------------------

 ... reading COSX grid (gridx3)
Gradient of the Kohn-Sham DFT energy:
Kohn-Sham wavefunction type      ... RKS
Hartree-Fock exchange scaling    ...    0.250
Number of operators              ...    1
Number of atoms                  ...    7
Basis set dimensions             ...  117
Integral neglect threshold       ... 2.5e-11
Integral primitive cutoff        ... 2.5e-12
SHARK Integral package           ... ON

Nuc. rep. gradient       (SHARK) ... done (  0.0 sec)
HCore & Overlap gradient (SHARK) ... done (  0.0 sec)
RI-J gradient            (SHARK) ... done (  0.1 sec)
COSX-gradient                    ... done (  0.3 sec)
Exchange-correlation gradient    ... done
Dispersion correction            ... done

------------------
CARTESIAN GRADIENT
------------------

   1   O   :   -0.058771382    0.073499044    0.015750522
   2   C   :   -0.002593847   -0.059813078   -0.028596156
   3   C   :    0.046428767   -0.034246817   -0.063994273
   4   H   :    0.011287195    0.025278216   -0.001420948
   5   H   :    0.012040430    0.014455137    0.013925899
   6   H   :   -0.025698310   -0.005765873    0.055094556
   7   H   :    0.017368469   -0.013294893    0.009316682

Difference to translation invariance:
           :    0.0000613233    0.0001117355    0.0000762812

Difference to rotation invariance:
           :    0.0001566048    0.0000389018    0.0000270413

Norm of the cartesian gradient     ...    0.1629129116
RMS gradient                       ...    0.0355505119
MAX gradient                       ...    0.0734990437

-------
TIMINGS
-------

Total SCF gradient time            ...        0.690 sec

One electron gradient       ....       0.010 sec  (  1.4%)
RI-J Coulomb gradient       ....       0.077 sec  ( 11.2%)
COSX gradient               ....       0.309 sec  ( 44.8%)
XC gradient                 ....       0.150 sec  ( 21.8%)

Maximum memory used throughout the entire SCFGRAD-calculation: 35.9 MB

                            ***************************************
                            *     ORCA property calculations      *
                            ***************************************

                                    ---------------------
                                    Active property flags
                                    ---------------------
   (+) Dipole Moment


------------------------------------------------------------------------------
                       ORCA ELECTRIC PROPERTIES CALCULATION
------------------------------------------------------------------------------

Dipole Moment Calculation                       ... on
Quadrupole Moment Calculation                   ... off
Polarizability Calculation                      ... off
GBWName                                         ... ox_gs_C_orca0009.gbw
Electron density                                ... ox_gs_C_orca0009.scfp
The origin for moment calculation is the CENTER OF MASS  = (-0.347345,  0.110607 -0.042913)

-------------
DIPOLE MOMENT
-------------
                                X             Y             Z
Electronic contribution:     -0.43863       1.43019      -0.09111
Nuclear contribution   :      0.81614      -2.65030       0.04363
                        -----------------------------------------
Total Dipole Moment    :      0.37751      -1.22011      -0.04747
                        -----------------------------------------
Magnitude (a.u.)       :      1.27806
Magnitude (Debye)      :      3.24856



--------------------
Rotational spectrum 
--------------------
 
Rotational constants in cm-1:     0.950734     0.489950     0.369825 
Rotational constants in MHz : 28502.293942 14688.331535 11087.067991 

 Dipole components along the rotational axes: 
x,y,z [a.u.] :    -1.177884    -0.495712     0.016957 
x,y,z [Debye]:    -2.993944    -1.259999     0.043101 

 

Timings for individual modules:

Sum of individual times         ...        4.281 sec (=   0.071 min)
GTO integral calculation        ...        0.324 sec (=   0.005 min)   7.6 %
SCF iterations                  ...        3.061 sec (=   0.051 min)  71.5 %
SCF Gradient evaluation         ...        0.896 sec (=   0.015 min)  20.9 %
                             ****ORCA TERMINATED NORMALLY****
TOTAL RUN TIME: 0 days 0 hours 0 minutes 4 seconds 611 msec
