
                                 *****************
                                 * O   R   C   A *
                                 *****************

                                            #,                                       
                                            ###                                      
                                            ####                                     
                                            #####                                    
                                            ######                                   
                                           ########,                                 
                                     ,,################,,,,,                         
                               ,,#################################,,                 
                          ,,##########################################,,             
                       ,#########################################, ''#####,          
                    ,#############################################,,   '####,        
                  ,##################################################,,,,####,       
                ,###########''''           ''''###############################       
              ,#####''   ,,,,##########,,,,          '''####'''          '####       
            ,##' ,,,,###########################,,,                        '##       
           ' ,,###''''                  '''############,,,                           
         ,,##''                                '''############,,,,        ,,,,,,###''
      ,#''                                            '''#######################'''  
     '                                                          ''''####''''         
             ,#######,   #######,   ,#######,      ##                                
            ,#'     '#,  ##    ##  ,#'     '#,    #''#        ######   ,####,        
            ##       ##  ##   ,#'  ##            #'  '#       #        #'  '#        
            ##       ##  #######   ##           ,######,      #####,   #    #        
            '#,     ,#'  ##    ##  '#,     ,#' ,#      #,         ##   #,  ,#        
             '#######'   ##     ##  '#######'  #'      '#     #####' # '####'        



                  #######################################################
                  #                        -***-                        #
                  #          Department of theory and spectroscopy      #
                  #    Directorship and core code : Frank Neese         #
                  #        Max Planck Institute fuer Kohlenforschung    #
                  #                Kaiser Wilhelm Platz 1               #
                  #                 D-45470 Muelheim/Ruhr               #
                  #                      Germany                        #
                  #                                                     #
                  #                  All rights reserved                #
                  #                        -***-                        #
                  #######################################################


                         Program Version 5.0.2 -  RELEASE  -


 With contributions from (in alphabetic order):
   Daniel Aravena         : Magnetic Suceptibility
   Michael Atanasov       : Ab Initio Ligand Field Theory (pilot matlab implementation)
   Alexander A. Auer      : GIAO ZORA, VPT2 properties, NMR spectrum
   Ute Becker             : Parallelization
   Giovanni Bistoni       : ED, misc. LED, open-shell LED, HFLD
   Martin Brehm           : Molecular dynamics
   Dmytro Bykov           : SCF Hessian
   Vijay G. Chilkuri      : MRCI spin determinant printing, contributions to CSF-ICE
   Dipayan Datta          : RHF DLPNO-CCSD density
   Achintya Kumar Dutta   : EOM-CC, STEOM-CC
   Dmitry Ganyushin       : Spin-Orbit,Spin-Spin,Magnetic field MRCI
   Miquel Garcia          : C-PCM and meta-GGA Hessian, CC/C-PCM, Gaussian charge scheme
   Yang Guo               : DLPNO-NEVPT2, F12-NEVPT2, CIM, IAO-localization
   Andreas Hansen         : Spin unrestricted coupled pair/coupled cluster methods
   Benjamin Helmich-Paris : MC-RPA, TRAH-SCF, COSX integrals
   Lee Huntington         : MR-EOM, pCC
   Robert Izsak           : Overlap fitted RIJCOSX, COSX-SCS-MP3, EOM
   Marcus Kettner         : VPT2
   Christian Kollmar      : KDIIS, OOCD, Brueckner-CCSD(T), CCSD density, CASPT2, CASPT2-K
   Simone Kossmann        : Meta GGA functionals, TD-DFT gradient, OOMP2, MP2 Hessian
   Martin Krupicka        : Initial AUTO-CI
   Lucas Lang             : DCDCAS
   Marvin Lechner         : AUTO-CI (C++ implementation), FIC-MRCC
   Dagmar Lenk            : GEPOL surface, SMD
   Dimitrios Liakos       : Extrapolation schemes; Compound Job, initial MDCI parallelization
   Dimitrios Manganas     : Further ROCIS development; embedding schemes
   Dimitrios Pantazis     : SARC Basis sets
   Anastasios Papadopoulos: AUTO-CI, single reference methods and gradients
   Taras Petrenko         : DFT Hessian,TD-DFT gradient, ASA, ECA, R-Raman, ABS, FL, XAS/XES, NRVS
   Peter Pinski           : DLPNO-MP2, DLPNO-MP2 Gradient
   Christoph Reimann      : Effective Core Potentials
   Marius Retegan         : Local ZFS, SOC
   Christoph Riplinger    : Optimizer, TS searches, QM/MM, DLPNO-CCSD(T), (RO)-DLPNO pert. Triples
   Tobias Risthaus        : Range-separated hybrids, TD-DFT gradient, RPA, STAB
   Michael Roemelt        : Original ROCIS implementation
   Masaaki Saitow         : Open-shell DLPNO-CCSD energy and density
   Barbara Sandhoefer     : DKH picture change effects
   Avijit Sen             : IP-ROCIS
   Kantharuban Sivalingam : CASSCF convergence, NEVPT2, FIC-MRCI
   Bernardo de Souza      : ESD, SOC TD-DFT
   Georgi Stoychev        : AutoAux, RI-MP2 NMR, DLPNO-MP2 response
   Willem Van den Heuvel  : Paramagnetic NMR
   Boris Wezisla          : Elementary symmetry handling
   Frank Wennmohs         : Technical directorship


 We gratefully acknowledge several colleagues who have allowed us to
 interface, adapt or use parts of their codes:
   Stefan Grimme, W. Hujo, H. Kruse, P. Pracht,  : VdW corrections, initial TS optimization,
                  C. Bannwarth, S. Ehlert          DFT functionals, gCP, sTDA/sTD-DF
   Ed Valeev, F. Pavosevic, A. Kumar             : LibInt (2-el integral package), F12 methods
   Garnet Chan, S. Sharma, J. Yang, R. Olivares  : DMRG
   Ulf Ekstrom                                   : XCFun DFT Library
   Mihaly Kallay                                 : mrcc  (arbitrary order and MRCC methods)
   Jiri Pittner, Ondrej Demel                    : Mk-CCSD
   Frank Weinhold                                : gennbo (NPA and NBO analysis)
   Christopher J. Cramer and Donald G. Truhlar   : smd solvation model
   Lars Goerigk                                  : TD-DFT with DH, B97 family of functionals
   V. Asgeirsson, H. Jonsson                     : NEB implementation
   FAccTs GmbH                                   : IRC, NEB, NEB-TS, DLPNO-Multilevel, CI-OPT
                                                   MM, QMMM, 2- and 3-layer-ONIOM, Crystal-QMMM,
                                                   LR-CPCM, SF, NACMEs, symmetry and pop. for TD-DFT,
                                                   nearIR, NL-DFT gradient (VV10), updates on ESD,
                                                   ML-optimized integration grids
   S Lehtola, MJT Oliveira, MAL Marques          : LibXC Library
   Liviu Ungur et al                             : ANISO software


 Your calculation uses the libint2 library for the computation of 2-el integrals
 For citations please refer to: http://libint.valeyev.net

 Your ORCA version has been built with support for libXC version: 5.1.0
 For citations please refer to: https://tddft.org/programs/libxc/

 This ORCA versions uses:
   CBLAS   interface :  Fast vector & matrix operations
   LAPACKE interface :  Fast linear algebra routines
   SCALAPACK package :  Parallel linear algebra routines
   Shared memory     :  Shared parallel matrices
   BLAS/LAPACK       :  OpenBLAS 0.3.15  USE64BITINT DYNAMIC_ARCH NO_AFFINITY SkylakeX SINGLE_THREADED
        Core in use  :  SkylakeX
   Copyright (c) 2011-2014, The OpenBLAS Project


Your calculation utilizes the atom-pairwise dispersion correction
with the Becke-Johnson damping scheme (D3BJ)
Cite in your paper:
S.Grimme, S.Ehrlich, L.Goerigk, J Comput Chem, (2011), 32, 1456–1465 
S.Grimme, J.Antony, S.Ehrlich and H.Krieg, J.Chem.Phys., 132, (2010), 154104 
   

================================================================================

----- Orbital basis set information -----
Your calculation utilizes the basis: def2-TZVP
   F. Weigend and R. Ahlrichs, Phys. Chem. Chem. Phys. 7, 3297 (2005).

----- AuxJ basis set information -----
Your calculation utilizes the auxiliary basis: def2/J
   F. Weigend, Phys. Chem. Chem. Phys. 8, 1057 (2006).

================================================================================
                                        WARNINGS
                       Please study these warnings very carefully!
================================================================================


INFO   : the flag for use of the SHARK integral package has been found!

================================================================================
                                       INPUT FILE
================================================================================
NAME = ox_gs_A_orca0040.inp
|  1> ! engrad PBE0 D3BJ def2-TZVP  
|  2> %pal nprocs 8 end
|  3> %maxcore 3000
|  4>  
|  5> *xyz 0 1 
|  6> O   -0.0024731354826216475 0.8006652846083302 -0.056135991078114934
|  7> C   -0.7097691026907974 -0.4386978795893472 0.024622563200407455
|  8> C   0.7433479721953908 -0.3242554830044553 -0.0318869992125658
|  9> H   -1.2903727777500908 -0.6994278363212382 0.8922023640419873
| 10> H   -1.2956921263653258 -0.6088200834446225 -0.8489510076005072
| 11> H   1.235285505312526 -0.7098886386552115 -0.8964054421806799
| 12> H   1.2362117177859515 -0.6366242191122244 0.930122321042565
| 13> *
| 14> 
| 15>                          ****END OF INPUT****
================================================================================

                     *******************************
                     * Energy+Gradient Calculation *
                     *******************************

---------------------------------
CARTESIAN COORDINATES (ANGSTROEM)
---------------------------------
  O     -0.002473    0.800665   -0.056136
  C     -0.709769   -0.438698    0.024623
  C      0.743348   -0.324255   -0.031887
  H     -1.290373   -0.699428    0.892202
  H     -1.295692   -0.608820   -0.848951
  H      1.235286   -0.709889   -0.896405
  H      1.236212   -0.636624    0.930122

----------------------------
CARTESIAN COORDINATES (A.U.)
----------------------------
  NO LB      ZA    FRAG     MASS         X           Y           Z
   0 O     8.0000    0    15.999   -0.004674    1.513038   -0.106082
   1 C     6.0000    0    12.011   -1.341269   -0.829019    0.046530
   2 C     6.0000    0    12.011    1.404724   -0.612754   -0.060258
   3 H     1.0000    0     1.008   -2.438451   -1.321727    1.686018
   4 H     1.0000    0     1.008   -2.448503   -1.150503   -1.604285
   5 H     1.0000    0     1.008    2.334351   -1.341495   -1.693961
   6 H     1.0000    0     1.008    2.336102   -1.203045    1.757676

--------------------------------
INTERNAL COORDINATES (ANGSTROEM)
--------------------------------
 O      0   0   0     0.000000000000     0.00000000     0.00000000
 C      1   0   0     1.429269247584     0.00000000     0.00000000
 C      1   2   0     1.349919950097    63.24308605     0.00000000
 H      2   1   3     1.075999743800   121.51377222   114.61246411
 H      2   1   3     1.065541241585   111.36073929   245.14999215
 H      3   1   2     1.066821262189   122.78172349   105.79113586
 H      3   1   2     1.125144804580   119.25696115   259.06676628

---------------------------
INTERNAL COORDINATES (A.U.)
---------------------------
 O      0   0   0     0.000000000000     0.00000000     0.00000000
 C      1   0   0     2.700927449569     0.00000000     0.00000000
 C      1   2   0     2.550979008401    63.24308605     0.00000000
 H      2   1   3     2.033344835952   121.51377222   114.61246411
 H      2   1   3     2.013581130994   111.36073929   245.14999215
 H      3   1   2     2.016000019381   122.78172349   105.79113586
 H      3   1   2     2.126215541660   119.25696115   259.06676628

---------------------
BASIS SET INFORMATION
---------------------
There are 3 groups of distinct atoms

 Group   1 Type O   : 11s6p2d1f contracted to 5s3p2d1f pattern {62111/411/11/1}
 Group   2 Type C   : 11s6p2d1f contracted to 5s3p2d1f pattern {62111/411/11/1}
 Group   3 Type H   : 5s1p contracted to 3s1p pattern {311/1}

Atom   0O    basis set group =>   1
Atom   1C    basis set group =>   2
Atom   2C    basis set group =>   2
Atom   3H    basis set group =>   3
Atom   4H    basis set group =>   3
Atom   5H    basis set group =>   3
Atom   6H    basis set group =>   3
---------------------------------
AUXILIARY/J BASIS SET INFORMATION
---------------------------------
There are 3 groups of distinct atoms

 Group   1 Type O   : 12s5p4d2f1g contracted to 6s4p3d1f1g pattern {711111/2111/211/2/1}
 Group   2 Type C   : 12s5p4d2f1g contracted to 6s4p3d1f1g pattern {711111/2111/211/2/1}
 Group   3 Type H   : 5s2p1d contracted to 3s1p1d pattern {311/2/1}

Atom   0O    basis set group =>   1
Atom   1C    basis set group =>   2
Atom   2C    basis set group =>   2
Atom   3H    basis set group =>   3
Atom   4H    basis set group =>   3
Atom   5H    basis set group =>   3
Atom   6H    basis set group =>   3


           ************************************************************
           *        Program running with 8 parallel MPI-processes     *
           *              working on a common directory               *
           ************************************************************
------------------------------------------------------------------------------
                           ORCA GTO INTEGRAL CALCULATION
                           -- RI-GTO INTEGRALS CHOSEN --
------------------------------------------------------------------------------
------------------------------------------------------------------------------
                   ___                                                        
                  /   \      - P O W E R E D   B Y -                         
                 /     \                                                     
                 |  |  |   _    _      __       _____    __    __             
                 |  |  |  | |  | |    /  \     |  _  \  |  |  /  |          
                  \  \/   | |  | |   /    \    | | | |  |  | /  /          
                 / \  \   | |__| |  /  /\  \   | |_| |  |  |/  /          
                |  |  |   |  __  | /  /__\  \  |    /   |      \           
                |  |  |   | |  | | |   __   |  |    \   |  |\   \          
                \     /   | |  | | |  |  |  |  | |\  \  |  | \   \       
                 \___/    |_|  |_| |__|  |__|  |_| \__\ |__|  \__/        
                                                                              
                      - O R C A' S   B I G   F R I E N D -                    
                                      &                                       
                       - I N T E G R A L  F E E D E R -                       
                                                                              
 v1 FN, 2020, v2 2021                                                         
------------------------------------------------------------------------------


Reading SHARK input file ox_gs_A_orca0040.SHARKINP.tmp ... ok
----------------------
SHARK INTEGRAL PACKAGE
----------------------

Number of atoms                             ...      7
Number of basis functions                   ...    117
Number of shells                            ...     49
Maximum angular momentum                    ...      3
Integral batch strategy                     ... SHARK/LIBINT Hybrid
RI-J (if used) integral strategy            ... SPLIT-RIJ (Revised 2003 algorithm where possible)
Printlevel                                  ...      1
Contraction scheme used                     ... SEGMENTED contraction
Coulomb Range Separation                    ... NOT USED
Exchange Range Separation                   ... NOT USED
Finite Nucleus Model                        ... NOT USED
Auxiliary Coulomb fitting basis             ... AVAILABLE
   # of basis functions in Aux-J            ...    191
   # of shells in Aux-J                     ...     65
   Maximum angular momentum in Aux-J        ...      4
Auxiliary J/K fitting basis                 ... NOT available
Auxiliary Correlation fitting basis         ... NOT available
Auxiliary 'external' fitting basis          ... NOT available
Integral threshold                          ...     2.500000e-11
Primitive cut-off                           ...     2.500000e-12
Primitive pair pre-selection threshold      ...     2.500000e-12

Calculating pre-screening integrals         ... done (  0.0 sec) Dimension = 49
Organizing shell pair data                  ... done (  0.0 sec)
Shell pair information
Total number of shell pairs                 ...      1225
Shell pairs after pre-screening             ...      1221
Total number of primitive shell pairs       ...      3648
Primitive shell pairs kept                  ...      3158
          la=0 lb=0:    374 shell pairs
          la=1 lb=0:    351 shell pairs
          la=1 lb=1:     91 shell pairs
          la=2 lb=0:    162 shell pairs
          la=2 lb=1:     78 shell pairs
          la=2 lb=2:     21 shell pairs
          la=3 lb=0:     81 shell pairs
          la=3 lb=1:     39 shell pairs
          la=3 lb=2:     18 shell pairs
          la=3 lb=3:      6 shell pairs

Calculating one electron integrals          ... done (  0.0 sec)
Calculating RI/J V-Matrix + Cholesky decomp.... done (  0.0 sec)
Calculating Nuclear repulsion               ... done (  0.0 sec) ENN=     76.447602805046 Eh

SHARK setup successfully completed in   0.1 seconds

Maximum memory used throughout the entire GTOINT-calculation: 14.9 MB


           ************************************************************
           *        Program running with 8 parallel MPI-processes     *
           *              working on a common directory               *
           ************************************************************
-------------------------------------------------------------------------------
                                 ORCA SCF
-------------------------------------------------------------------------------

------------
SCF SETTINGS
------------
Hamiltonian:
 Density Functional     Method          .... DFT(GTOs)
 Exchange Functional    Exchange        .... PBE
   PBE kappa parameter   XKappa         ....  0.804000
   PBE mue parameter    XMuePBE         ....  0.219520
 Correlation Functional Correlation     .... PBE
   PBE beta parameter  CBetaPBE         ....  0.066725
 LDA part of GGA corr.  LDAOpt          .... PW91-LDA
 Gradients option       PostSCFGGA      .... off
 Hybrid DFT is turned on
   Fraction HF Exchange ScalHFX         ....  0.250000
   Scaling of DF-GGA-X  ScalDFX         ....  0.750000
   Scaling of DF-GGA-C  ScalDFC         ....  1.000000
   Scaling of DF-LDA-C  ScalLDAC        ....  1.000000
   Perturbative correction              ....  0.000000
   Density functional embedding theory  .... OFF
   NL short-range parameter             ....  6.900000
 RI-approximation to the Coulomb term is turned on
   Number of AuxJ basis functions       .... 191
   RIJ-COSX (HFX calculated with COS-X)).... on


General Settings:
 Integral files         IntName         .... ox_gs_A_orca0040
 Hartree-Fock type      HFTyp           .... RHF
 Total Charge           Charge          ....    0
 Multiplicity           Mult            ....    1
 Number of Electrons    NEL             ....   24
 Basis Dimension        Dim             ....  117
 Nuclear Repulsion      ENuc            ....     76.4476028050 Eh

Convergence Acceleration:
 DIIS                   CNVDIIS         .... on
   Start iteration      DIISMaxIt       ....    12
   Startup error        DIISStart       ....  0.200000
   # of expansion vecs  DIISMaxEq       ....     5
   Bias factor          DIISBfac        ....   1.050
   Max. coefficient     DIISMaxC        ....  10.000
 Trust-Rad. Augm. Hess. CNVTRAH         .... auto
   Auto Start mean grad. ratio tolernc. ....  1.125000
   Auto Start start iteration           ....    20
   Auto Start num. interpolation iter.  ....    10
   Max. Number of Micro iterations      ....    16
   Max. Number of Macro iterations      .... Maxiter - #DIIS iter
   Number of Davidson start vectors     ....     2
   Converg. threshold I  (grad. norm)   ....   1.000e-05
   Converg. threshold II (energy diff.) ....   1.000e-08
   Grad. Scal. Fac. for Micro threshold ....   0.100
   Minimum threshold for Micro iter.    ....   0.010
   NR start threshold (gradient norm)   ....   0.001
   Initial trust radius                 ....   0.400
   Minimum AH scaling param. (alpha)    ....   1.000
   Maximum AH scaling param. (alpha)    .... 1000.000
   Orbital update algorithm             .... Taylor
   White noise on init. David. guess    .... on
   Maximum white noise                  ....   0.010
   Quad. conv. algorithm                .... NR
 SOSCF                  CNVSOSCF        .... on
   Start iteration      SOSCFMaxIt      ....   150
   Startup grad/error   SOSCFStart      ....  0.003300
 Level Shifting         CNVShift        .... on
   Level shift para.    LevelShift      ....    0.2500
   Turn off err/grad.   ShiftErr        ....    0.0010
 Zerner damping         CNVZerner       .... off
 Static damping         CNVDamp         .... on
   Fraction old density DampFac         ....    0.7000
   Max. Damping (<1)    DampMax         ....    0.9800
   Min. Damping (>=0)   DampMin         ....    0.0000
   Turn off err/grad.   DampErr         ....    0.1000
 Fernandez-Rico         CNVRico         .... off

SCF Procedure:
 Maximum # iterations   MaxIter         ....   125
 SCF integral mode      SCFMode         .... Direct
   Integral package                     .... SHARK and LIBINT hybrid scheme
 Reset frequency        DirectResetFreq ....    20
 Integral Threshold     Thresh          ....  2.500e-11 Eh
 Primitive CutOff       TCut            ....  2.500e-12 Eh

Convergence Tolerance:
 Convergence Check Mode ConvCheckMode   .... Total+1el-Energy
 Convergence forced     ConvForced      .... 0
 Energy Change          TolE            ....  1.000e-08 Eh
 1-El. energy change                    ....  1.000e-05 Eh
 Orbital Gradient       TolG            ....  1.000e-05
 Orbital Rotation angle TolX            ....  1.000e-05
 DIIS Error             TolErr          ....  5.000e-07


Diagonalization of the overlap matrix:
Smallest eigenvalue                        ... 3.594e-04
Time for diagonalization                   ...    0.001 sec
Threshold for overlap eigenvalues          ... 1.000e-08
Number of eigenvalues below threshold      ... 0
Time for construction of square roots      ...    0.002 sec
Total time needed                          ...    0.003 sec

Time for model grid setup =    0.023 sec

------------------------------
INITIAL GUESS: MODEL POTENTIAL
------------------------------
Loading Hartree-Fock densities                     ... done
Calculating cut-offs                               ... done
Initializing the effective Hamiltonian             ... done
Setting up the integral package (SHARK)            ... done
Starting the Coulomb interaction                   ... done (   0.0 sec)
Reading the grid                                   ... done
Mapping shells                                     ... done
Starting the XC term evaluation                    ... done (   0.0 sec)
  promolecular density results
     # of electrons  =     23.996809842
     EX              =    -19.569429043
     EC              =     -0.785618198
     EX+EC           =    -20.355047242
Transforming the Hamiltonian                       ... done (   0.0 sec)
Diagonalizing the Hamiltonian                      ... done (   0.0 sec)
Back transforming the eigenvectors                 ... done (   0.0 sec)
Now organizing SCF variables                       ... done
                      ------------------
                      INITIAL GUESS DONE (   0.0 sec)
                      ------------------
-------------------
DFT GRID GENERATION
-------------------

General Integration Accuracy     IntAcc      ... 4.388
Radial Grid Type                 RadialGrid  ... OptM3 with GC (2021)
Angular Grid (max. ang.)         AngularGrid ... 4 (Lebedev-302)
Angular grid pruning method      GridPruning ... 4 (adaptive)
Weight generation scheme         WeightScheme... Becke
Basis function cutoff            BFCut       ... 1.0000e-11
Integration weight cutoff        WCut        ... 1.0000e-14
Angular grids for H and He will be reduced by one unit
Partially contracted basis set               ... off
Rotationally invariant grid construction     ... off

Total number of grid points                  ...    31296
Total number of batches                      ...      492
Average number of points per batch           ...       63
Average number of grid points per atom       ...     4471
Time for grid setup =    0.109 sec

--------------------
COSX GRID GENERATION
--------------------

GRIDX 1
-------
General Integration Accuracy     IntAcc      ... 3.816
Radial Grid Type                 RadialGrid  ... OptM3 with GC (2021)
Angular Grid (max. ang.)         AngularGrid ... 1 (Lebedev-50)
Angular grid pruning method      GridPruning ... 4 (adaptive)
Weight generation scheme         WeightScheme... Becke
Basis function cutoff            BFCut       ... 1.0000e-11
Integration weight cutoff        WCut        ... 1.0000e-14
Angular grids for H and He will be reduced by one unit
Partially contracted basis set               ... on
Rotationally invariant grid construction     ... off

Total number of grid points                  ...     4035
Total number of batches                      ...       68
Average number of points per batch           ...       59
Average number of grid points per atom       ...      576
UseSFitting                                  ... on

GRIDX 2
-------
General Integration Accuracy     IntAcc      ... 4.020
Radial Grid Type                 RadialGrid  ... OptM3 with GC (2021)
Angular Grid (max. ang.)         AngularGrid ... 2 (Lebedev-110)
Angular grid pruning method      GridPruning ... 4 (adaptive)
Weight generation scheme         WeightScheme... Becke
Basis function cutoff            BFCut       ... 1.0000e-11
Integration weight cutoff        WCut        ... 1.0000e-14
Angular grids for H and He will be reduced by one unit
Partially contracted basis set               ... on
Rotationally invariant grid construction     ... off

Total number of grid points                  ...     8709
Total number of batches                      ...      141
Average number of points per batch           ...       61
Average number of grid points per atom       ...     1244
UseSFitting                                  ... on

GRIDX 3
-------
General Integration Accuracy     IntAcc      ... 4.338
Radial Grid Type                 RadialGrid  ... OptM3 with GC (2021)
Angular Grid (max. ang.)         AngularGrid ... 3 (Lebedev-194)
Angular grid pruning method      GridPruning ... 4 (adaptive)
Weight generation scheme         WeightScheme... Becke
Basis function cutoff            BFCut       ... 1.0000e-11
Integration weight cutoff        WCut        ... 1.0000e-14
Angular grids for H and He will be reduced by one unit
Partially contracted basis set               ... on
Rotationally invariant grid construction     ... off

Total number of grid points                  ...    19236
Total number of batches                      ...      305
Average number of points per batch           ...       63
Average number of grid points per atom       ...     2748
UseSFitting                                  ... on

Time for X-Grid setup             =    0.073 sec

--------------
SCF ITERATIONS
--------------
ITER       Energy         Delta-E        Max-DP      RMS-DP      [F,P]     Damp
               ***  Starting incremental Fock matrix formation  ***
  0   -153.5999800522   0.000000000000 0.03265340  0.00114579  0.1682954 0.7000
  1   -153.6290203204  -0.029040268209 0.01822178  0.00085488  0.0729948 0.7000
                               ***Turning on DIIS***
  2   -153.6412001981  -0.012179877655 0.02688518  0.00146606  0.0331228 0.0000
  3   -153.6605402876  -0.019340089499 0.01351429  0.00063802  0.0388161 0.0000
  4   -153.6644367259  -0.003896438317 0.00320132  0.00017418  0.0071573 0.0000
  5   -153.6645894727  -0.000152746761 0.00146028  0.00006417  0.0038761 0.0000
                      *** Initiating the SOSCF procedure ***
                           *** Shutting down DIIS ***
                      *** Re-Reading the Fockian *** 
                      *** Removing any level shift *** 
ITER      Energy       Delta-E        Grad      Rot      Max-DP    RMS-DP
  6   -153.66461155  -0.0000220771  0.000144  0.000144  0.000947  0.000031
               *** Restarting incremental Fock matrix formation ***
  7   -153.66460032   0.0000112269  0.000050  0.000062  0.000102  0.000004
  8   -153.66460031   0.0000000178  0.000075  0.000042  0.000059  0.000002
  9   -153.66460036  -0.0000000518  0.000007  0.000013  0.000015  0.000001
 10   -153.66460036   0.0000000000  0.000010  0.000007  0.000009  0.000000
                 **** Energy Check signals convergence ****
              ***Rediagonalizing the Fockian in SOSCF/NRSCF***

               *****************************************************
               *                     SUCCESS                       *
               *           SCF CONVERGED AFTER  11 CYCLES          *
               *****************************************************

Old exchange energy                            =     -5.007211904 Eh
New exchange energy                            =     -5.007202452 Eh
Exchange energy change after final integration =      0.000009452 Eh
Total energy after final integration           =   -153.664590907 Eh
Final COS-X integration done in                =     0.261 sec

----------------
TOTAL SCF ENERGY
----------------

Total Energy       :         -153.66459091 Eh           -4181.42610 eV

Components:
Nuclear Repulsion  :           76.44760281 Eh            2080.24503 eV
Electronic Energy  :         -230.11219371 Eh           -6261.67113 eV
One Electron Energy:         -359.43010370 Eh           -9780.59036 eV
Two Electron Energy:          129.31790999 Eh            3518.91923 eV
Max COSX asymmetry :            0.00000254 Eh               0.00007 eV

Virial components:
Potential Energy   :         -306.77915543 Eh           -8347.88522 eV
Kinetic Energy     :          153.11456453 Eh            4166.45912 eV
Virial Ratio       :            2.00359225


DFT components:
N(Alpha)           :       12.000001742099 electrons
N(Beta)            :       12.000001742099 electrons
N(Total)           :       24.000003484199 electrons
E(X)               :      -14.987302812883 Eh       
E(C)               :       -0.793466601831 Eh       
E(XC)              :      -15.780769414714 Eh       
DFET-embed. en.    :        0.000000000000 Eh       

---------------
SCF CONVERGENCE
---------------

  Last Energy change         ...   -2.4071e-09  Tolerance :   1.0000e-08
  Last MAX-Density change    ...    5.5511e-16  Tolerance :   1.0000e-07
  Last RMS-Density change    ...    1.6589e-17  Tolerance :   5.0000e-09
  Last Orbital Gradient      ...    3.3304e-07  Tolerance :   1.0000e-05
  Last Orbital Rotation      ...    7.4433e-07  Tolerance :   1.0000e-05

             **** THE GBW FILE WAS UPDATED (ox_gs_A_orca0040.gbw) ****
             **** DENSITY ox_gs_A_orca0040.scfp WAS UPDATED ****
             **** ENERGY FILE WAS UPDATED (ox_gs_A_orca0040.en.tmp) ****
             **** THE GBW FILE WAS UPDATED (ox_gs_A_orca0040.gbw) ****
             **** DENSITY ox_gs_A_orca0040.scfp WAS UPDATED ****
----------------
ORBITAL ENERGIES
----------------

  NO   OCC          E(Eh)            E(eV) 
   0   2.0000     -19.230050      -523.2763 
   1   2.0000     -10.275840      -279.6198 
   2   2.0000     -10.268071      -279.4084 
   3   2.0000      -1.134881       -30.8817 
   4   2.0000      -0.702109       -19.1054 
   5   2.0000      -0.660186       -17.9646 
   6   2.0000      -0.534556       -14.5460 
   7   2.0000      -0.511987       -13.9319 
   8   2.0000      -0.438475       -11.9315 
   9   2.0000      -0.389187       -10.5903 
  10   2.0000      -0.325137        -8.8474 
  11   2.0000      -0.294186        -8.0052 
  12   0.0000       0.062814         1.7093 
  13   0.0000       0.078548         2.1374 
  14   0.0000       0.089676         2.4402 
  15   0.0000       0.103769         2.8237 
  16   0.0000       0.109247         2.9728 
  17   0.0000       0.158079         4.3016 
  18   0.0000       0.191957         5.2234 
  19   0.0000       0.224838         6.1181 
  20   0.0000       0.267041         7.2666 
  21   0.0000       0.277349         7.5470 
  22   0.0000       0.293687         7.9916 
  23   0.0000       0.340975         9.2784 
  24   0.0000       0.350185         9.5290 
  25   0.0000       0.402622        10.9559 
  26   0.0000       0.404705        11.0126 
  27   0.0000       0.445772        12.1301 
  28   0.0000       0.449890        12.2421 
  29   0.0000       0.468316        12.7435 
  30   0.0000       0.500650        13.6234 
  31   0.0000       0.519982        14.1494 
  32   0.0000       0.546335        14.8665 
  33   0.0000       0.694769        18.9056 
  34   0.0000       0.710103        19.3229 
  35   0.0000       0.729904        19.8617 
  36   0.0000       0.828084        22.5333 
  37   0.0000       0.874448        23.7949 
  38   0.0000       0.896869        24.4050 
  39   0.0000       0.967713        26.3328 
  40   0.0000       1.022795        27.8317 
  41   0.0000       1.034288        28.1444 
  42   0.0000       1.079347        29.3705 
  43   0.0000       1.086639        29.5690 
  44   0.0000       1.147576        31.2271 
  45   0.0000       1.365781        37.1648 
  46   0.0000       1.446166        39.3522 
  47   0.0000       1.490956        40.5710 
  48   0.0000       1.517772        41.3007 
  49   0.0000       1.527923        41.5769 
  50   0.0000       1.571896        42.7735 
  51   0.0000       1.611586        43.8535 
  52   0.0000       1.679762        45.7087 
  53   0.0000       1.728965        47.0475 
  54   0.0000       1.771151        48.1955 
  55   0.0000       1.810467        49.2653 
  56   0.0000       1.835961        49.9590 
  57   0.0000       1.931288        52.5530 
  58   0.0000       1.963836        53.4387 
  59   0.0000       1.985030        54.0154 
  60   0.0000       2.098280        57.0971 
  61   0.0000       2.156256        58.6747 
  62   0.0000       2.166471        58.9527 
  63   0.0000       2.259505        61.4843 
  64   0.0000       2.304722        62.7147 
  65   0.0000       2.420133        65.8552 
  66   0.0000       2.456842        66.8541 
  67   0.0000       2.537971        69.0617 
  68   0.0000       2.545579        69.2687 
  69   0.0000       2.583008        70.2872 
  70   0.0000       2.614756        71.1511 
  71   0.0000       2.654247        72.2257 
  72   0.0000       2.698852        73.4395 
  73   0.0000       2.729093        74.2624 
  74   0.0000       2.782924        75.7272 
  75   0.0000       2.816274        76.6347 
  76   0.0000       2.867878        78.0389 
  77   0.0000       2.927124        79.6511 
  78   0.0000       3.009726        81.8988 
  79   0.0000       3.020446        82.1905 
  80   0.0000       3.040938        82.7481 
  81   0.0000       3.057062        83.1869 
  82   0.0000       3.162963        86.0686 
  83   0.0000       3.255542        88.5878 
  84   0.0000       3.318132        90.2910 
  85   0.0000       3.351063        91.1871 
  86   0.0000       3.410441        92.8028 
  87   0.0000       3.456176        94.0473 
  88   0.0000       3.573355        97.2359 
  89   0.0000       3.635857        98.9367 
  90   0.0000       3.660752        99.6141 
  91   0.0000       3.727556       101.4319 
  92   0.0000       3.923946       106.7760 
  93   0.0000       3.993943       108.6807 
  94   0.0000       4.091873       111.3455 
  95   0.0000       4.220083       114.8343 
  96   0.0000       4.288721       116.7020 
  97   0.0000       4.341819       118.1469 
  98   0.0000       4.394057       119.5684 
  99   0.0000       4.556189       123.9802 
 100   0.0000       4.659376       126.7881 
 101   0.0000       4.880467       132.8043 
 102   0.0000       5.328496       144.9957 
 103   0.0000       5.482793       149.1944 
 104   0.0000       5.739138       156.1699 
 105   0.0000       5.823309       158.4603 
 106   0.0000       5.898134       160.4964 
 107   0.0000       5.953692       162.0082 
 108   0.0000       6.124952       166.6684 
 109   0.0000       6.629549       180.3992 
 110   0.0000       6.639152       180.6605 
 111   0.0000       6.806900       185.2252 
 112   0.0000       6.976581       189.8424 
 113   0.0000       7.177188       195.3012 
 114   0.0000      22.390680       609.2814 
 115   0.0000      22.537930       613.2882 
 116   0.0000      43.894491      1194.4298 

                    ********************************
                    * MULLIKEN POPULATION ANALYSIS *
                    ********************************

-----------------------
MULLIKEN ATOMIC CHARGES
-----------------------
   0 O :   -0.302302
   1 C :   -0.101985
   2 C :   -0.030813
   3 H :    0.121900
   4 H :    0.116663
   5 H :    0.104123
   6 H :    0.092414
Sum of atomic charges:   -0.0000000

--------------------------------
MULLIKEN REDUCED ORBITAL CHARGES
--------------------------------
  0 O s       :     3.846085  s :     3.846085
      pz      :     1.814107  p :     4.406431
      px      :     1.303528
      py      :     1.288797
      dz2     :     0.005983  d :     0.047340
      dxz     :     0.003043
      dyz     :     0.007629
      dx2y2   :     0.013865
      dxy     :     0.016820
      f0      :     0.000305  f :     0.002446
      f+1     :     0.000222
      f-1     :     0.000485
      f+2     :     0.000096
      f-2     :     0.000248
      f+3     :     0.000375
      f-3     :     0.000716
  1 C s       :     3.219619  s :     3.219619
      pz      :     1.065852  p :     2.761979
      px      :     0.912922
      py      :     0.783205
      dz2     :     0.005080  d :     0.108528
      dxz     :     0.026627
      dyz     :     0.029449
      dx2y2   :     0.028197
      dxy     :     0.019175
      f0      :     0.001444  f :     0.011859
      f+1     :     0.001314
      f-1     :     0.000668
      f+2     :     0.001495
      f-2     :     0.001690
      f+3     :     0.002330
      f-3     :     0.002918
  2 C s       :     3.197912  s :     3.197912
      pz      :     1.021914  p :     2.696636
      px      :     0.899990
      py      :     0.774731
      dz2     :     0.005322  d :     0.123404
      dxz     :     0.027564
      dyz     :     0.035067
      dx2y2   :     0.031102
      dxy     :     0.024348
      f0      :     0.001711  f :     0.012861
      f+1     :     0.001336
      f-1     :     0.000877
      f+2     :     0.000989
      f-2     :     0.002255
      f+3     :     0.002347
      f-3     :     0.003346
  3 H s       :     0.856604  s :     0.856604
      pz      :     0.010058  p :     0.021495
      px      :     0.007241
      py      :     0.004196
  4 H s       :     0.861207  s :     0.861207
      pz      :     0.010465  p :     0.022130
      px      :     0.007322
      py      :     0.004342
  5 H s       :     0.873969  s :     0.873969
      pz      :     0.010166  p :     0.021909
      px      :     0.006744
      py      :     0.004999
  6 H s       :     0.887518  s :     0.887518
      pz      :     0.010484  p :     0.020068
      px      :     0.005779
      py      :     0.003805


                     *******************************
                     * LOEWDIN POPULATION ANALYSIS *
                     *******************************

----------------------
LOEWDIN ATOMIC CHARGES
----------------------
   0 O :    0.181048
   1 C :   -0.281222
   2 C :   -0.357077
   3 H :    0.112163
   4 H :    0.110987
   5 H :    0.110218
   6 H :    0.123883

-------------------------------
LOEWDIN REDUCED ORBITAL CHARGES
-------------------------------
  0 O s       :     3.341403  s :     3.341403
      pz      :     1.683450  p :     4.362829
      px      :     1.285656
      py      :     1.393723
      dz2     :     0.012065  d :     0.106627
      dxz     :     0.009695
      dyz     :     0.017320
      dx2y2   :     0.039263
      dxy     :     0.028283
      f0      :     0.000776  f :     0.008094
      f+1     :     0.000316
      f-1     :     0.000980
      f+2     :     0.000183
      f-2     :     0.001164
      f+3     :     0.001370
      f-3     :     0.003305
  1 C s       :     2.811477  s :     2.811477
      pz      :     1.063466  p :     2.932400
      px      :     1.032201
      py      :     0.836733
      dz2     :     0.048017  d :     0.465686
      dxz     :     0.140659
      dyz     :     0.082250
      dx2y2   :     0.103925
      dxy     :     0.090835
      f0      :     0.008854  f :     0.071659
      f+1     :     0.005904
      f-1     :     0.005820
      f+2     :     0.009330
      f-2     :     0.006629
      f+3     :     0.014502
      f-3     :     0.020621
  2 C s       :     2.803215  s :     2.803215
      pz      :     1.039277  p :     2.924019
      px      :     1.030497
      py      :     0.854245
      dz2     :     0.055024  d :     0.542668
      dxz     :     0.135968
      dyz     :     0.116801
      dx2y2   :     0.117429
      dxy     :     0.117446
      f0      :     0.012291  f :     0.087174
      f+1     :     0.006279
      f-1     :     0.006494
      f+2     :     0.007021
      f-2     :     0.011257
      f+3     :     0.018048
      f-3     :     0.025785
  3 H s       :     0.823774  s :     0.823774
      pz      :     0.031418  p :     0.064063
      px      :     0.019921
      py      :     0.012724
  4 H s       :     0.823504  s :     0.823504
      pz      :     0.032446  p :     0.065510
      px      :     0.019889
      py      :     0.013174
  5 H s       :     0.825082  s :     0.825082
      pz      :     0.031544  p :     0.064700
      px      :     0.018049
      py      :     0.015108
  6 H s       :     0.820843  s :     0.820843
      pz      :     0.029979  p :     0.055273
      px      :     0.014482
      py      :     0.010812


                      *****************************
                      * MAYER POPULATION ANALYSIS *
                      *****************************

  NA   - Mulliken gross atomic population
  ZA   - Total nuclear charge
  QA   - Mulliken gross atomic charge
  VA   - Mayer's total valence
  BVA  - Mayer's bonded valence
  FA   - Mayer's free valence

  ATOM       NA         ZA         QA         VA         BVA        FA
  0 O      8.3023     8.0000    -0.3023     2.0273     2.0273     0.0000
  1 C      6.1020     6.0000    -0.1020     3.9464     3.9464    -0.0000
  2 C      6.0308     6.0000    -0.0308     3.9903     3.9903     0.0000
  3 H      0.8781     1.0000     0.1219     0.9599     0.9599    -0.0000
  4 H      0.8833     1.0000     0.1167     0.9651     0.9651    -0.0000
  5 H      0.8959     1.0000     0.1041     0.9545     0.9545     0.0000
  6 H      0.9076     1.0000     0.0924     0.9598     0.9598    -0.0000

  Mayer bond orders larger than 0.100000
B(  0-O ,  1-C ) :   0.9588 B(  0-O ,  2-C ) :   1.0322 B(  1-C ,  2-C ) :   1.0552 
B(  1-C ,  3-H ) :   0.9533 B(  1-C ,  4-H ) :   0.9657 B(  2-C ,  5-H ) :   0.9471 
B(  2-C ,  6-H ) :   0.9452 

-------
TIMINGS
-------

Total SCF time: 0 days 0 hours 0 min 2 sec 

Total time                  ....       2.581 sec
Sum of individual times     ....       2.386 sec  ( 92.5%)

Fock matrix formation       ....       2.120 sec  ( 82.2%)
  Split-RI-J                ....       0.232 sec  ( 10.9% of F)
  Chain of spheres X        ....       1.422 sec  ( 67.1% of F)
  XC integration            ....       0.400 sec  ( 18.9% of F)
    Basis function eval.    ....       0.107 sec  ( 26.7% of XC)
    Density eval.           ....       0.080 sec  ( 20.1% of XC)
    XC-Functional eval.     ....       0.023 sec  (  5.7% of XC)
    XC-Potential eval.      ....       0.141 sec  ( 35.4% of XC)
Diagonalization             ....       0.016 sec  (  0.6%)
Density matrix formation    ....       0.001 sec  (  0.1%)
Population analysis         ....       0.003 sec  (  0.1%)
Initial guess               ....       0.017 sec  (  0.7%)
Orbital Transformation      ....       0.000 sec  (  0.0%)
Orbital Orthonormalization  ....       0.000 sec  (  0.0%)
DIIS solution               ....       0.013 sec  (  0.5%)
SOSCF solution              ....       0.011 sec  (  0.4%)
Grid generation             ....       0.205 sec  (  8.0%)

Maximum memory used throughout the entire SCF-calculation: 61.1 MB


-------------------------------------------------------------------------------
                          DFT DISPERSION CORRECTION                            
                                                                               
                              DFTD3 V3.1  Rev 1                                
                          USING Becke-Johnson damping                          
-------------------------------------------------------------------------------
The PBE0 functional is recognized
Active option DFTDOPT                   ...         4   

molecular C6(AA) [au] = 350.746454 


            DFT-D V3
 parameters
 s6 scaling factor         :     1.0000 
 a1 scaling factor         :     0.4145 
 s8 scaling factor         :     1.2177 
 a2 scaling factor         :     4.8593 
 ad hoc parameters k1-k3   :    16.0000     1.3333    -4.0000 

 Edisp/kcal,au: -1.511731021383  -0.002409096472 
 E6   /kcal   :  -0.991372940 
 E8   /kcal   :  -0.520358081 
 % E8         :  34.421340417 

-------------------------   ----------------
Dispersion correction           -0.002409096
-------------------------   ----------------


-------------------------   --------------------
FINAL SINGLE POINT ENERGY      -153.667000003876
-------------------------   --------------------



           ************************************************************
           *        Program running with 8 parallel MPI-processes     *
           *              working on a common directory               *
           ************************************************************
------------------------------------------------------------------------------
                         ORCA SCF GRADIENT CALCULATION
------------------------------------------------------------------------------

 ... reading COSX grid (gridx3)
Gradient of the Kohn-Sham DFT energy:
Kohn-Sham wavefunction type      ... RKS
Hartree-Fock exchange scaling    ...    0.250
Number of operators              ...    1
Number of atoms                  ...    7
Basis set dimensions             ...  117
Integral neglect threshold       ... 2.5e-11
Integral primitive cutoff        ... 2.5e-12
SHARK Integral package           ... ON

Nuc. rep. gradient       (SHARK) ... done (  0.0 sec)
HCore & Overlap gradient (SHARK) ... done (  0.0 sec)
RI-J gradient            (SHARK) ... done (  0.1 sec)
COSX-gradient                    ... done (  0.3 sec)
Exchange-correlation gradient    ... done
Dispersion correction            ... done

------------------
CARTESIAN GRADIENT
------------------

   1   O   :    0.016005624   -0.028628827   -0.007819167
   2   C   :    0.004829987   -0.008544880    0.010498096
   3   C   :   -0.008543305    0.056477886   -0.036909324
   4   H   :   -0.006510650   -0.006024618   -0.015941664
   5   H   :    0.001414173    0.006701072    0.017495267
   6   H   :   -0.009545878   -0.005477522    0.016540295
   7   H   :    0.002353662   -0.014654263    0.015989226

Difference to translation invariance:
           :    0.0000036121   -0.0001511507   -0.0001472722

Difference to rotation invariance:
           :   -0.0002491849   -0.0000042776   -0.0002069309

Norm of the cartesian gradient     ...    0.0867466509
RMS gradient                       ...    0.0189296711
MAX gradient                       ...    0.0564778859

-------
TIMINGS
-------

Total SCF gradient time            ...        0.700 sec

One electron gradient       ....       0.010 sec  (  1.4%)
RI-J Coulomb gradient       ....       0.078 sec  ( 11.2%)
COSX gradient               ....       0.312 sec  ( 44.6%)
XC gradient                 ....       0.157 sec  ( 22.4%)

Maximum memory used throughout the entire SCFGRAD-calculation: 35.9 MB

                            ***************************************
                            *     ORCA property calculations      *
                            ***************************************

                                    ---------------------
                                    Active property flags
                                    ---------------------
   (+) Dipole Moment


------------------------------------------------------------------------------
                       ORCA ELECTRIC PROPERTIES CALCULATION
------------------------------------------------------------------------------

Dipole Moment Calculation                       ... on
Quadrupole Moment Calculation                   ... off
Polarizability Calculation                      ... off
GBWName                                         ... ox_gs_A_orca0040.gbw
Electron density                                ... ox_gs_A_orca0040.scfp
The origin for moment calculation is the CENTER OF MASS  = ( 0.010650,  0.041610 -0.038941)

-------------
DIPOLE MOMENT
-------------
                                X             Y             Z
Electronic contribution:      0.08851       1.86666      -0.13087
Nuclear contribution   :     -0.12875      -2.56175       0.14902
                        -----------------------------------------
Total Dipole Moment    :     -0.04024      -0.69509       0.01815
                        -----------------------------------------
Magnitude (a.u.)       :      0.69649
Magnitude (Debye)      :      1.77033



--------------------
Rotational spectrum 
--------------------
 
Rotational constants in cm-1:     0.904325     0.747523     0.484577 
Rotational constants in MHz : 27110.974874 22410.184998 14527.252383 

 Dipole components along the rotational axes: 
x,y,z [a.u.] :    -0.196192     0.667826    -0.024704 
x,y,z [Debye]:    -0.498680     1.697479    -0.062794 

 

Timings for individual modules:

Sum of individual times         ...        4.019 sec (=   0.067 min)
GTO integral calculation        ...        0.318 sec (=   0.005 min)   7.9 %
SCF iterations                  ...        2.771 sec (=   0.046 min)  69.0 %
SCF Gradient evaluation         ...        0.930 sec (=   0.016 min)  23.1 %
                             ****ORCA TERMINATED NORMALLY****
TOTAL RUN TIME: 0 days 0 hours 0 minutes 4 seconds 307 msec
