
                                 *****************
                                 * O   R   C   A *
                                 *****************

                                            #,                                       
                                            ###                                      
                                            ####                                     
                                            #####                                    
                                            ######                                   
                                           ########,                                 
                                     ,,################,,,,,                         
                               ,,#################################,,                 
                          ,,##########################################,,             
                       ,#########################################, ''#####,          
                    ,#############################################,,   '####,        
                  ,##################################################,,,,####,       
                ,###########''''           ''''###############################       
              ,#####''   ,,,,##########,,,,          '''####'''          '####       
            ,##' ,,,,###########################,,,                        '##       
           ' ,,###''''                  '''############,,,                           
         ,,##''                                '''############,,,,        ,,,,,,###''
      ,#''                                            '''#######################'''  
     '                                                          ''''####''''         
             ,#######,   #######,   ,#######,      ##                                
            ,#'     '#,  ##    ##  ,#'     '#,    #''#        ######   ,####,        
            ##       ##  ##   ,#'  ##            #'  '#       #        #'  '#        
            ##       ##  #######   ##           ,######,      #####,   #    #        
            '#,     ,#'  ##    ##  '#,     ,#' ,#      #,         ##   #,  ,#        
             '#######'   ##     ##  '#######'  #'      '#     #####' # '####'        



                  #######################################################
                  #                        -***-                        #
                  #          Department of theory and spectroscopy      #
                  #    Directorship and core code : Frank Neese         #
                  #        Max Planck Institute fuer Kohlenforschung    #
                  #                Kaiser Wilhelm Platz 1               #
                  #                 D-45470 Muelheim/Ruhr               #
                  #                      Germany                        #
                  #                                                     #
                  #                  All rights reserved                #
                  #                        -***-                        #
                  #######################################################


                         Program Version 5.0.2 -  RELEASE  -


 With contributions from (in alphabetic order):
   Daniel Aravena         : Magnetic Suceptibility
   Michael Atanasov       : Ab Initio Ligand Field Theory (pilot matlab implementation)
   Alexander A. Auer      : GIAO ZORA, VPT2 properties, NMR spectrum
   Ute Becker             : Parallelization
   Giovanni Bistoni       : ED, misc. LED, open-shell LED, HFLD
   Martin Brehm           : Molecular dynamics
   Dmytro Bykov           : SCF Hessian
   Vijay G. Chilkuri      : MRCI spin determinant printing, contributions to CSF-ICE
   Dipayan Datta          : RHF DLPNO-CCSD density
   Achintya Kumar Dutta   : EOM-CC, STEOM-CC
   Dmitry Ganyushin       : Spin-Orbit,Spin-Spin,Magnetic field MRCI
   Miquel Garcia          : C-PCM and meta-GGA Hessian, CC/C-PCM, Gaussian charge scheme
   Yang Guo               : DLPNO-NEVPT2, F12-NEVPT2, CIM, IAO-localization
   Andreas Hansen         : Spin unrestricted coupled pair/coupled cluster methods
   Benjamin Helmich-Paris : MC-RPA, TRAH-SCF, COSX integrals
   Lee Huntington         : MR-EOM, pCC
   Robert Izsak           : Overlap fitted RIJCOSX, COSX-SCS-MP3, EOM
   Marcus Kettner         : VPT2
   Christian Kollmar      : KDIIS, OOCD, Brueckner-CCSD(T), CCSD density, CASPT2, CASPT2-K
   Simone Kossmann        : Meta GGA functionals, TD-DFT gradient, OOMP2, MP2 Hessian
   Martin Krupicka        : Initial AUTO-CI
   Lucas Lang             : DCDCAS
   Marvin Lechner         : AUTO-CI (C++ implementation), FIC-MRCC
   Dagmar Lenk            : GEPOL surface, SMD
   Dimitrios Liakos       : Extrapolation schemes; Compound Job, initial MDCI parallelization
   Dimitrios Manganas     : Further ROCIS development; embedding schemes
   Dimitrios Pantazis     : SARC Basis sets
   Anastasios Papadopoulos: AUTO-CI, single reference methods and gradients
   Taras Petrenko         : DFT Hessian,TD-DFT gradient, ASA, ECA, R-Raman, ABS, FL, XAS/XES, NRVS
   Peter Pinski           : DLPNO-MP2, DLPNO-MP2 Gradient
   Christoph Reimann      : Effective Core Potentials
   Marius Retegan         : Local ZFS, SOC
   Christoph Riplinger    : Optimizer, TS searches, QM/MM, DLPNO-CCSD(T), (RO)-DLPNO pert. Triples
   Tobias Risthaus        : Range-separated hybrids, TD-DFT gradient, RPA, STAB
   Michael Roemelt        : Original ROCIS implementation
   Masaaki Saitow         : Open-shell DLPNO-CCSD energy and density
   Barbara Sandhoefer     : DKH picture change effects
   Avijit Sen             : IP-ROCIS
   Kantharuban Sivalingam : CASSCF convergence, NEVPT2, FIC-MRCI
   Bernardo de Souza      : ESD, SOC TD-DFT
   Georgi Stoychev        : AutoAux, RI-MP2 NMR, DLPNO-MP2 response
   Willem Van den Heuvel  : Paramagnetic NMR
   Boris Wezisla          : Elementary symmetry handling
   Frank Wennmohs         : Technical directorship


 We gratefully acknowledge several colleagues who have allowed us to
 interface, adapt or use parts of their codes:
   Stefan Grimme, W. Hujo, H. Kruse, P. Pracht,  : VdW corrections, initial TS optimization,
                  C. Bannwarth, S. Ehlert          DFT functionals, gCP, sTDA/sTD-DF
   Ed Valeev, F. Pavosevic, A. Kumar             : LibInt (2-el integral package), F12 methods
   Garnet Chan, S. Sharma, J. Yang, R. Olivares  : DMRG
   Ulf Ekstrom                                   : XCFun DFT Library
   Mihaly Kallay                                 : mrcc  (arbitrary order and MRCC methods)
   Jiri Pittner, Ondrej Demel                    : Mk-CCSD
   Frank Weinhold                                : gennbo (NPA and NBO analysis)
   Christopher J. Cramer and Donald G. Truhlar   : smd solvation model
   Lars Goerigk                                  : TD-DFT with DH, B97 family of functionals
   V. Asgeirsson, H. Jonsson                     : NEB implementation
   FAccTs GmbH                                   : IRC, NEB, NEB-TS, DLPNO-Multilevel, CI-OPT
                                                   MM, QMMM, 2- and 3-layer-ONIOM, Crystal-QMMM,
                                                   LR-CPCM, SF, NACMEs, symmetry and pop. for TD-DFT,
                                                   nearIR, NL-DFT gradient (VV10), updates on ESD,
                                                   ML-optimized integration grids
   S Lehtola, MJT Oliveira, MAL Marques          : LibXC Library
   Liviu Ungur et al                             : ANISO software


 Your calculation uses the libint2 library for the computation of 2-el integrals
 For citations please refer to: http://libint.valeyev.net

 Your ORCA version has been built with support for libXC version: 5.1.0
 For citations please refer to: https://tddft.org/programs/libxc/

 This ORCA versions uses:
   CBLAS   interface :  Fast vector & matrix operations
   LAPACKE interface :  Fast linear algebra routines
   SCALAPACK package :  Parallel linear algebra routines
   Shared memory     :  Shared parallel matrices
   BLAS/LAPACK       :  OpenBLAS 0.3.15  USE64BITINT DYNAMIC_ARCH NO_AFFINITY SkylakeX SINGLE_THREADED
        Core in use  :  SkylakeX
   Copyright (c) 2011-2014, The OpenBLAS Project


Your calculation utilizes the atom-pairwise dispersion correction
with the Becke-Johnson damping scheme (D3BJ)
Cite in your paper:
S.Grimme, S.Ehrlich, L.Goerigk, J Comput Chem, (2011), 32, 1456–1465 
S.Grimme, J.Antony, S.Ehrlich and H.Krieg, J.Chem.Phys., 132, (2010), 154104 
   

================================================================================

----- Orbital basis set information -----
Your calculation utilizes the basis: def2-TZVP
   F. Weigend and R. Ahlrichs, Phys. Chem. Chem. Phys. 7, 3297 (2005).

----- AuxJ basis set information -----
Your calculation utilizes the auxiliary basis: def2/J
   F. Weigend, Phys. Chem. Chem. Phys. 8, 1057 (2006).

================================================================================
                                        WARNINGS
                       Please study these warnings very carefully!
================================================================================


INFO   : the flag for use of the SHARK integral package has been found!

================================================================================
                                       INPUT FILE
================================================================================
NAME = ox_gs_E_orca0001.inp
|  1> ! engrad PBE0 D3BJ def2-TZVP  
|  2> %pal nprocs 8 end
|  3> %maxcore 3000
|  4>  
|  5> *xyz 0 1 
|  6> O   -0.9224623242604191 0.9720584066410152 -0.07921781786863241
|  7> C   -0.6913985792369097 -0.4577499718353405 0.007873026785331616
|  8> C   0.7616424709854731 -0.47436497648397036 0.07437741875244905
|  9> H   -1.3065944608574713 -0.7097656384089017 0.9439503581527253
| 10> H   -1.3182097351322843 -0.6292857194948837 -0.8609588392484878
| 11> H   1.2445468753575037 -0.7558821607890354 -0.8516283876464565
| 12> H   1.2581586941476413 -0.7364458656260562 0.9921853114740685
| 13> *
| 14> 
| 15>                          ****END OF INPUT****
================================================================================

                     *******************************
                     * Energy+Gradient Calculation *
                     *******************************

---------------------------------
CARTESIAN COORDINATES (ANGSTROEM)
---------------------------------
  O     -0.922462    0.972058   -0.079218
  C     -0.691399   -0.457750    0.007873
  C      0.761642   -0.474365    0.074377
  H     -1.306594   -0.709766    0.943950
  H     -1.318210   -0.629286   -0.860959
  H      1.244547   -0.755882   -0.851628
  H      1.258159   -0.736446    0.992185

----------------------------
CARTESIAN COORDINATES (A.U.)
----------------------------
  NO LB      ZA    FRAG     MASS         X           Y           Z
   0 O     8.0000    0    15.999   -1.743201    1.836924   -0.149700
   1 C     6.0000    0    12.011   -1.306554   -0.865022    0.014878
   2 C     6.0000    0    12.011    1.439296   -0.896420    0.140553
   3 H     1.0000    0     1.008   -2.469106   -1.341263    1.783808
   4 H     1.0000    0     1.008   -2.491055   -1.189178   -1.626976
   5 H     1.0000    0     1.008    2.351853   -1.428410   -1.609344
   6 H     1.0000    0     1.008    2.377575   -1.391681    1.874959

--------------------------------
INTERNAL COORDINATES (ANGSTROEM)
--------------------------------
 O      0   0   0     0.000000000000     0.00000000     0.00000000
 C      1   0   0     1.450974592696     0.00000000     0.00000000
 C      2   1   0     1.454657068234    99.96635168     0.00000000
 H      2   1   3     1.148137029828   100.36427869   122.92337322
 H      2   1   3     1.084981819809    90.90126972   231.38422957
 H      3   2   1     1.081635494196   114.19191192   256.79292974
 H      3   2   1     1.075911743713   120.18235566   109.03794381

---------------------------
INTERNAL COORDINATES (A.U.)
---------------------------
 O      0   0   0     0.000000000000     0.00000000     0.00000000
 C      1   0   0     2.741944607473     0.00000000     0.00000000
 C      2   1   0     2.748903477734    99.96635168     0.00000000
 H      2   1   3     2.169664550588   100.36427869   122.92337322
 H      2   1   3     2.050318499722    90.90126972   231.38422957
 H      3   2   1     2.043994860760   114.19191192   256.79292974
 H      3   2   1     2.033178539887   120.18235566   109.03794381

---------------------
BASIS SET INFORMATION
---------------------
There are 3 groups of distinct atoms

 Group   1 Type O   : 11s6p2d1f contracted to 5s3p2d1f pattern {62111/411/11/1}
 Group   2 Type C   : 11s6p2d1f contracted to 5s3p2d1f pattern {62111/411/11/1}
 Group   3 Type H   : 5s1p contracted to 3s1p pattern {311/1}

Atom   0O    basis set group =>   1
Atom   1C    basis set group =>   2
Atom   2C    basis set group =>   2
Atom   3H    basis set group =>   3
Atom   4H    basis set group =>   3
Atom   5H    basis set group =>   3
Atom   6H    basis set group =>   3
---------------------------------
AUXILIARY/J BASIS SET INFORMATION
---------------------------------
There are 3 groups of distinct atoms

 Group   1 Type O   : 12s5p4d2f1g contracted to 6s4p3d1f1g pattern {711111/2111/211/2/1}
 Group   2 Type C   : 12s5p4d2f1g contracted to 6s4p3d1f1g pattern {711111/2111/211/2/1}
 Group   3 Type H   : 5s2p1d contracted to 3s1p1d pattern {311/2/1}

Atom   0O    basis set group =>   1
Atom   1C    basis set group =>   2
Atom   2C    basis set group =>   2
Atom   3H    basis set group =>   3
Atom   4H    basis set group =>   3
Atom   5H    basis set group =>   3
Atom   6H    basis set group =>   3


           ************************************************************
           *        Program running with 8 parallel MPI-processes     *
           *              working on a common directory               *
           ************************************************************
------------------------------------------------------------------------------
                           ORCA GTO INTEGRAL CALCULATION
                           -- RI-GTO INTEGRALS CHOSEN --
------------------------------------------------------------------------------
------------------------------------------------------------------------------
                   ___                                                        
                  /   \      - P O W E R E D   B Y -                         
                 /     \                                                     
                 |  |  |   _    _      __       _____    __    __             
                 |  |  |  | |  | |    /  \     |  _  \  |  |  /  |          
                  \  \/   | |  | |   /    \    | | | |  |  | /  /          
                 / \  \   | |__| |  /  /\  \   | |_| |  |  |/  /          
                |  |  |   |  __  | /  /__\  \  |    /   |      \           
                |  |  |   | |  | | |   __   |  |    \   |  |\   \          
                \     /   | |  | | |  |  |  |  | |\  \  |  | \   \       
                 \___/    |_|  |_| |__|  |__|  |_| \__\ |__|  \__/        
                                                                              
                      - O R C A' S   B I G   F R I E N D -                    
                                      &                                       
                       - I N T E G R A L  F E E D E R -                       
                                                                              
 v1 FN, 2020, v2 2021                                                         
------------------------------------------------------------------------------


Reading SHARK input file ox_gs_E_orca0001.SHARKINP.tmp ... ok
----------------------
SHARK INTEGRAL PACKAGE
----------------------

Number of atoms                             ...      7
Number of basis functions                   ...    117
Number of shells                            ...     49
Maximum angular momentum                    ...      3
Integral batch strategy                     ... SHARK/LIBINT Hybrid
RI-J (if used) integral strategy            ... SPLIT-RIJ (Revised 2003 algorithm where possible)
Printlevel                                  ...      1
Contraction scheme used                     ... SEGMENTED contraction
Coulomb Range Separation                    ... NOT USED
Exchange Range Separation                   ... NOT USED
Finite Nucleus Model                        ... NOT USED
Auxiliary Coulomb fitting basis             ... AVAILABLE
   # of basis functions in Aux-J            ...    191
   # of shells in Aux-J                     ...     65
   Maximum angular momentum in Aux-J        ...      4
Auxiliary J/K fitting basis                 ... NOT available
Auxiliary Correlation fitting basis         ... NOT available
Auxiliary 'external' fitting basis          ... NOT available
Integral threshold                          ...     2.500000e-11
Primitive cut-off                           ...     2.500000e-12
Primitive pair pre-selection threshold      ...     2.500000e-12

Calculating pre-screening integrals         ... done (  0.0 sec) Dimension = 49
Organizing shell pair data                  ... done (  0.0 sec)
Shell pair information
Total number of shell pairs                 ...      1225
Shell pairs after pre-screening             ...      1213
Total number of primitive shell pairs       ...      3648
Primitive shell pairs kept                  ...      3081
          la=0 lb=0:    367 shell pairs
          la=1 lb=0:    351 shell pairs
          la=1 lb=1:     91 shell pairs
          la=2 lb=0:    161 shell pairs
          la=2 lb=1:     78 shell pairs
          la=2 lb=2:     21 shell pairs
          la=3 lb=0:     81 shell pairs
          la=3 lb=1:     39 shell pairs
          la=3 lb=2:     18 shell pairs
          la=3 lb=3:      6 shell pairs

Calculating one electron integrals          ... done (  0.0 sec)
Calculating RI/J V-Matrix + Cholesky decomp.... done (  0.0 sec)
Calculating Nuclear repulsion               ... done (  0.0 sec) ENN=     67.972764498527 Eh

SHARK setup successfully completed in   0.1 seconds

Maximum memory used throughout the entire GTOINT-calculation: 14.9 MB


           ************************************************************
           *        Program running with 8 parallel MPI-processes     *
           *              working on a common directory               *
           ************************************************************
-------------------------------------------------------------------------------
                                 ORCA SCF
-------------------------------------------------------------------------------

------------
SCF SETTINGS
------------
Hamiltonian:
 Density Functional     Method          .... DFT(GTOs)
 Exchange Functional    Exchange        .... PBE
   PBE kappa parameter   XKappa         ....  0.804000
   PBE mue parameter    XMuePBE         ....  0.219520
 Correlation Functional Correlation     .... PBE
   PBE beta parameter  CBetaPBE         ....  0.066725
 LDA part of GGA corr.  LDAOpt          .... PW91-LDA
 Gradients option       PostSCFGGA      .... off
 Hybrid DFT is turned on
   Fraction HF Exchange ScalHFX         ....  0.250000
   Scaling of DF-GGA-X  ScalDFX         ....  0.750000
   Scaling of DF-GGA-C  ScalDFC         ....  1.000000
   Scaling of DF-LDA-C  ScalLDAC        ....  1.000000
   Perturbative correction              ....  0.000000
   Density functional embedding theory  .... OFF
   NL short-range parameter             ....  6.900000
 RI-approximation to the Coulomb term is turned on
   Number of AuxJ basis functions       .... 191
   RIJ-COSX (HFX calculated with COS-X)).... on


General Settings:
 Integral files         IntName         .... ox_gs_E_orca0001
 Hartree-Fock type      HFTyp           .... RHF
 Total Charge           Charge          ....    0
 Multiplicity           Mult            ....    1
 Number of Electrons    NEL             ....   24
 Basis Dimension        Dim             ....  117
 Nuclear Repulsion      ENuc            ....     67.9727644985 Eh

Convergence Acceleration:
 DIIS                   CNVDIIS         .... on
   Start iteration      DIISMaxIt       ....    12
   Startup error        DIISStart       ....  0.200000
   # of expansion vecs  DIISMaxEq       ....     5
   Bias factor          DIISBfac        ....   1.050
   Max. coefficient     DIISMaxC        ....  10.000
 Trust-Rad. Augm. Hess. CNVTRAH         .... auto
   Auto Start mean grad. ratio tolernc. ....  1.125000
   Auto Start start iteration           ....    20
   Auto Start num. interpolation iter.  ....    10
   Max. Number of Micro iterations      ....    16
   Max. Number of Macro iterations      .... Maxiter - #DIIS iter
   Number of Davidson start vectors     ....     2
   Converg. threshold I  (grad. norm)   ....   1.000e-05
   Converg. threshold II (energy diff.) ....   1.000e-08
   Grad. Scal. Fac. for Micro threshold ....   0.100
   Minimum threshold for Micro iter.    ....   0.010
   NR start threshold (gradient norm)   ....   0.001
   Initial trust radius                 ....   0.400
   Minimum AH scaling param. (alpha)    ....   1.000
   Maximum AH scaling param. (alpha)    .... 1000.000
   Orbital update algorithm             .... Taylor
   White noise on init. David. guess    .... on
   Maximum white noise                  ....   0.010
   Quad. conv. algorithm                .... NR
 SOSCF                  CNVSOSCF        .... on
   Start iteration      SOSCFMaxIt      ....   150
   Startup grad/error   SOSCFStart      ....  0.003300
 Level Shifting         CNVShift        .... on
   Level shift para.    LevelShift      ....    0.2500
   Turn off err/grad.   ShiftErr        ....    0.0010
 Zerner damping         CNVZerner       .... off
 Static damping         CNVDamp         .... on
   Fraction old density DampFac         ....    0.7000
   Max. Damping (<1)    DampMax         ....    0.9800
   Min. Damping (>=0)   DampMin         ....    0.0000
   Turn off err/grad.   DampErr         ....    0.1000
 Fernandez-Rico         CNVRico         .... off

SCF Procedure:
 Maximum # iterations   MaxIter         ....   125
 SCF integral mode      SCFMode         .... Direct
   Integral package                     .... SHARK and LIBINT hybrid scheme
 Reset frequency        DirectResetFreq ....    20
 Integral Threshold     Thresh          ....  2.500e-11 Eh
 Primitive CutOff       TCut            ....  2.500e-12 Eh

Convergence Tolerance:
 Convergence Check Mode ConvCheckMode   .... Total+1el-Energy
 Convergence forced     ConvForced      .... 0
 Energy Change          TolE            ....  1.000e-08 Eh
 1-El. energy change                    ....  1.000e-05 Eh
 Orbital Gradient       TolG            ....  1.000e-05
 Orbital Rotation angle TolX            ....  1.000e-05
 DIIS Error             TolErr          ....  5.000e-07


Diagonalization of the overlap matrix:
Smallest eigenvalue                        ... 4.482e-04
Time for diagonalization                   ...    0.001 sec
Threshold for overlap eigenvalues          ... 1.000e-08
Number of eigenvalues below threshold      ... 0
Time for construction of square roots      ...    0.001 sec
Total time needed                          ...    0.003 sec

Time for model grid setup =    0.023 sec

------------------------------
INITIAL GUESS: MODEL POTENTIAL
------------------------------
Loading Hartree-Fock densities                     ... done
Calculating cut-offs                               ... done
Initializing the effective Hamiltonian             ... done
Setting up the integral package (SHARK)            ... done
Starting the Coulomb interaction                   ... done (   0.0 sec)
Reading the grid                                   ... done
Mapping shells                                     ... done
Starting the XC term evaluation                    ... done (   0.0 sec)
  promolecular density results
     # of electrons  =     23.997927296
     EX              =    -19.446308917
     EC              =     -0.764297525
     EX+EC           =    -20.210606441
Transforming the Hamiltonian                       ... done (   0.0 sec)
Diagonalizing the Hamiltonian                      ... done (   0.0 sec)
Back transforming the eigenvectors                 ... done (   0.0 sec)
Now organizing SCF variables                       ... done
                      ------------------
                      INITIAL GUESS DONE (   0.0 sec)
                      ------------------
-------------------
DFT GRID GENERATION
-------------------

General Integration Accuracy     IntAcc      ... 4.388
Radial Grid Type                 RadialGrid  ... OptM3 with GC (2021)
Angular Grid (max. ang.)         AngularGrid ... 4 (Lebedev-302)
Angular grid pruning method      GridPruning ... 4 (adaptive)
Weight generation scheme         WeightScheme... Becke
Basis function cutoff            BFCut       ... 1.0000e-11
Integration weight cutoff        WCut        ... 1.0000e-14
Angular grids for H and He will be reduced by one unit
Partially contracted basis set               ... off
Rotationally invariant grid construction     ... off

Total number of grid points                  ...    31334
Total number of batches                      ...      494
Average number of points per batch           ...       63
Average number of grid points per atom       ...     4476
Time for grid setup =    0.109 sec

--------------------
COSX GRID GENERATION
--------------------

GRIDX 1
-------
General Integration Accuracy     IntAcc      ... 3.816
Radial Grid Type                 RadialGrid  ... OptM3 with GC (2021)
Angular Grid (max. ang.)         AngularGrid ... 1 (Lebedev-50)
Angular grid pruning method      GridPruning ... 4 (adaptive)
Weight generation scheme         WeightScheme... Becke
Basis function cutoff            BFCut       ... 1.0000e-11
Integration weight cutoff        WCut        ... 1.0000e-14
Angular grids for H and He will be reduced by one unit
Partially contracted basis set               ... on
Rotationally invariant grid construction     ... off

Total number of grid points                  ...     4039
Total number of batches                      ...       67
Average number of points per batch           ...       60
Average number of grid points per atom       ...      577
UseSFitting                                  ... on

GRIDX 2
-------
General Integration Accuracy     IntAcc      ... 4.020
Radial Grid Type                 RadialGrid  ... OptM3 with GC (2021)
Angular Grid (max. ang.)         AngularGrid ... 2 (Lebedev-110)
Angular grid pruning method      GridPruning ... 4 (adaptive)
Weight generation scheme         WeightScheme... Becke
Basis function cutoff            BFCut       ... 1.0000e-11
Integration weight cutoff        WCut        ... 1.0000e-14
Angular grids for H and He will be reduced by one unit
Partially contracted basis set               ... on
Rotationally invariant grid construction     ... off

Total number of grid points                  ...     8732
Total number of batches                      ...      140
Average number of points per batch           ...       62
Average number of grid points per atom       ...     1247
UseSFitting                                  ... on

GRIDX 3
-------
General Integration Accuracy     IntAcc      ... 4.338
Radial Grid Type                 RadialGrid  ... OptM3 with GC (2021)
Angular Grid (max. ang.)         AngularGrid ... 3 (Lebedev-194)
Angular grid pruning method      GridPruning ... 4 (adaptive)
Weight generation scheme         WeightScheme... Becke
Basis function cutoff            BFCut       ... 1.0000e-11
Integration weight cutoff        WCut        ... 1.0000e-14
Angular grids for H and He will be reduced by one unit
Partially contracted basis set               ... on
Rotationally invariant grid construction     ... off

Total number of grid points                  ...    19271
Total number of batches                      ...      305
Average number of points per batch           ...       63
Average number of grid points per atom       ...     2753
UseSFitting                                  ... on

Time for X-Grid setup             =    0.072 sec

--------------
SCF ITERATIONS
--------------
ITER       Energy         Delta-E        Max-DP      RMS-DP      [F,P]     Damp
               ***  Starting incremental Fock matrix formation  ***
  0   -153.3444710807   0.000000000000 0.09973412  0.00287510  0.3463553 0.7000
  1   -153.4498550957  -0.105384014999 0.05897753  0.00148767  0.0841246 0.7000
                               ***Turning on DIIS***
  2   -153.4613232199  -0.011468124246 0.05297561  0.00197010  0.0746511 0.0000
  3   -153.5273301097  -0.066006889770 0.02478154  0.00109801  0.0363741 0.0000
  4   -153.5303590785  -0.003028968834 0.00971821  0.00032884  0.0452005 0.0000
  5   -153.5325427522  -0.002183673644 0.00392127  0.00012170  0.0128356 0.0000
  6   -153.5327448639  -0.000202111776 0.00133796  0.00004258  0.0040945 0.0000
                      *** Initiating the SOSCF procedure ***
                           *** Shutting down DIIS ***
                      *** Re-Reading the Fockian *** 
                      *** Removing any level shift *** 
ITER      Energy       Delta-E        Grad      Rot      Max-DP    RMS-DP
  7   -153.53276154  -0.0000166762  0.000269  0.000269  0.000777  0.000034
               *** Restarting incremental Fock matrix formation ***
  8   -153.53276133   0.0000002143  0.000218  0.001738  0.000864  0.000027
  9   -153.53275624   0.0000050903  0.001021  0.001641  0.000874  0.000020
 10   -153.53276193  -0.0000056902  0.000147  0.000256  0.000223  0.000009
 11   -153.53276179   0.0000001326  0.000177  0.000169  0.000134  0.000005
 12   -153.53276219  -0.0000003927  0.000019  0.000215  0.000066  0.000002
 13   -153.53276220  -0.0000000145  0.000013  0.000477  0.000145  0.000005
 14   -153.53276221  -0.0000000103  0.000008  0.000033  0.000013  0.000001
                  ***Gradient check signals convergence***
              ***Rediagonalizing the Fockian in SOSCF/NRSCF***

               *****************************************************
               *                     SUCCESS                       *
               *           SCF CONVERGED AFTER  15 CYCLES          *
               *****************************************************

Old exchange energy                            =     -4.949300065 Eh
New exchange energy                            =     -4.949302671 Eh
Exchange energy change after final integration =     -0.000002606 Eh
Total energy after final integration           =   -153.532764818 Eh
Final COS-X integration done in                =     0.334 sec

----------------
TOTAL SCF ENERGY
----------------

Total Energy       :         -153.53276482 Eh           -4177.83893 eV

Components:
Nuclear Repulsion  :           67.97276450 Eh            1849.63296 eV
Electronic Energy  :         -221.50552932 Eh           -6027.47188 eV
One Electron Energy:         -342.77237966 Eh           -9327.31064 eV
Two Electron Energy:          121.26685034 Eh            3299.83876 eV
Max COSX asymmetry :            0.00000091 Eh               0.00002 eV

Virial components:
Potential Energy   :         -306.24011495 Eh           -8333.21718 eV
Kinetic Energy     :          152.70735013 Eh            4155.37825 eV
Virial Ratio       :            2.00540521


DFT components:
N(Alpha)           :       12.000001039719 electrons
N(Beta)            :       12.000001039719 electrons
N(Total)           :       24.000002079437 electrons
E(X)               :      -14.865995696348 Eh       
E(C)               :       -0.770248749406 Eh       
E(XC)              :      -15.636244445754 Eh       
DFET-embed. en.    :        0.000000000000 Eh       

---------------
SCF CONVERGENCE
---------------

  Last Energy change         ...   -7.3649e-10  Tolerance :   1.0000e-08
  Last MAX-Density change    ...    1.2212e-15  Tolerance :   1.0000e-07
  Last RMS-Density change    ...    2.4086e-17  Tolerance :   5.0000e-09
  Last Orbital Gradient      ...    2.2184e-06  Tolerance :   1.0000e-05
  Last Orbital Rotation      ...    1.8737e-05  Tolerance :   1.0000e-05

             **** THE GBW FILE WAS UPDATED (ox_gs_E_orca0001.gbw) ****
             **** DENSITY ox_gs_E_orca0001.scfp WAS UPDATED ****
             **** ENERGY FILE WAS UPDATED (ox_gs_E_orca0001.en.tmp) ****
             **** THE GBW FILE WAS UPDATED (ox_gs_E_orca0001.gbw) ****
             **** DENSITY ox_gs_E_orca0001.scfp WAS UPDATED ****
----------------
ORBITAL ENERGIES
----------------

  NO   OCC          E(Eh)            E(eV) 
   0   2.0000     -19.201367      -522.4958 
   1   2.0000     -10.322742      -280.8961 
   2   2.0000     -10.274412      -279.5810 
   3   2.0000      -0.986946       -26.8562 
   4   2.0000      -0.779009       -21.1979 
   5   2.0000      -0.623874       -16.9765 
   6   2.0000      -0.520074       -14.1519 
   7   2.0000      -0.488785       -13.3005 
   8   2.0000      -0.418532       -11.3888 
   9   2.0000      -0.391934       -10.6651 
  10   2.0000      -0.274996        -7.4830 
  11   2.0000      -0.252507        -6.8711 
  12   0.0000      -0.149523        -4.0687 
  13   0.0000       0.053598         1.4585 
  14   0.0000       0.079686         2.1684 
  15   0.0000       0.081893         2.2284 
  16   0.0000       0.123221         3.3530 
  17   0.0000       0.147848         4.0231 
  18   0.0000       0.179242         4.8774 
  19   0.0000       0.206854         5.6288 
  20   0.0000       0.231007         6.2860 
  21   0.0000       0.244546         6.6544 
  22   0.0000       0.258673         7.0388 
  23   0.0000       0.331083         9.0092 
  24   0.0000       0.346614         9.4318 
  25   0.0000       0.371238        10.1019 
  26   0.0000       0.410682        11.1752 
  27   0.0000       0.413979        11.2649 
  28   0.0000       0.438706        11.9378 
  29   0.0000       0.486497        13.2383 
  30   0.0000       0.500531        13.6201 
  31   0.0000       0.532871        14.5002 
  32   0.0000       0.565422        15.3859 
  33   0.0000       0.592460        16.1217 
  34   0.0000       0.675893        18.3920 
  35   0.0000       0.717560        19.5258 
  36   0.0000       0.787347        21.4248 
  37   0.0000       0.856419        23.3044 
  38   0.0000       0.866287        23.5729 
  39   0.0000       0.919596        25.0235 
  40   0.0000       0.926490        25.2111 
  41   0.0000       1.031860        28.0783 
  42   0.0000       1.080191        29.3935 
  43   0.0000       1.093753        29.7625 
  44   0.0000       1.176477        32.0136 
  45   0.0000       1.317467        35.8501 
  46   0.0000       1.405453        38.2443 
  47   0.0000       1.440181        39.1893 
  48   0.0000       1.509935        41.0874 
  49   0.0000       1.540040        41.9066 
  50   0.0000       1.576743        42.9053 
  51   0.0000       1.590039        43.2672 
  52   0.0000       1.613012        43.8923 
  53   0.0000       1.661981        45.2248 
  54   0.0000       1.748227        47.5717 
  55   0.0000       1.767864        48.1060 
  56   0.0000       1.777862        48.3781 
  57   0.0000       1.831672        49.8423 
  58   0.0000       1.872191        50.9449 
  59   0.0000       1.895832        51.5882 
  60   0.0000       2.005241        54.5654 
  61   0.0000       2.021427        55.0058 
  62   0.0000       2.183878        59.4263 
  63   0.0000       2.203336        59.9558 
  64   0.0000       2.302432        62.6524 
  65   0.0000       2.339237        63.6539 
  66   0.0000       2.372595        64.5616 
  67   0.0000       2.455569        66.8194 
  68   0.0000       2.478489        67.4431 
  69   0.0000       2.517248        68.4978 
  70   0.0000       2.538265        69.0697 
  71   0.0000       2.586830        70.3912 
  72   0.0000       2.603483        70.8444 
  73   0.0000       2.634281        71.6824 
  74   0.0000       2.746544        74.7372 
  75   0.0000       2.771984        75.4295 
  76   0.0000       2.861670        77.8700 
  77   0.0000       2.957957        80.4901 
  78   0.0000       2.981433        81.1289 
  79   0.0000       3.013114        81.9910 
  80   0.0000       3.081991        83.8652 
  81   0.0000       3.100945        84.3810 
  82   0.0000       3.129663        85.1625 
  83   0.0000       3.141296        85.4790 
  84   0.0000       3.151400        85.7540 
  85   0.0000       3.177107        86.4535 
  86   0.0000       3.325022        90.4785 
  87   0.0000       3.359710        91.4224 
  88   0.0000       3.425776        93.2201 
  89   0.0000       3.459604        94.1406 
  90   0.0000       3.475310        94.5680 
  91   0.0000       3.638363        99.0049 
  92   0.0000       3.724353       101.3448 
  93   0.0000       3.853646       104.8630 
  94   0.0000       4.016884       109.3050 
  95   0.0000       4.100326       111.5755 
  96   0.0000       4.168466       113.4297 
  97   0.0000       4.248619       115.6108 
  98   0.0000       4.378604       119.1479 
  99   0.0000       4.518949       122.9669 
 100   0.0000       4.557889       124.0265 
 101   0.0000       4.694015       127.7306 
 102   0.0000       5.197068       141.4194 
 103   0.0000       5.237091       142.5085 
 104   0.0000       5.357291       145.7793 
 105   0.0000       5.395736       146.8255 
 106   0.0000       5.713148       155.4627 
 107   0.0000       5.738365       156.1489 
 108   0.0000       5.892191       160.3347 
 109   0.0000       6.370037       173.3375 
 110   0.0000       6.382219       173.6690 
 111   0.0000       6.768754       184.1872 
 112   0.0000       6.780894       184.5175 
 113   0.0000       6.965681       189.5458 
 114   0.0000      22.059315       600.2645 
 115   0.0000      22.384575       609.1152 
 116   0.0000      43.734091      1190.0651 

                    ********************************
                    * MULLIKEN POPULATION ANALYSIS *
                    ********************************

-----------------------
MULLIKEN ATOMIC CHARGES
-----------------------
   0 O :   -0.378630
   1 C :   -0.085362
   2 C :   -0.116750
   3 H :    0.107104
   4 H :    0.141256
   5 H :    0.163072
   6 H :    0.169310
Sum of atomic charges:    0.0000000

--------------------------------
MULLIKEN REDUCED ORBITAL CHARGES
--------------------------------
  0 O s       :     3.915377  s :     3.915377
      pz      :     1.918945  p :     4.440332
      px      :     1.205846
      py      :     1.315541
      dz2     :     0.003009  d :     0.021787
      dxz     :     0.000190
      dyz     :     0.005065
      dx2y2   :     0.008139
      dxy     :     0.005384
      f0      :     0.000138  f :     0.001135
      f+1     :     0.000056
      f-1     :     0.000268
      f+2     :     0.000147
      f-2     :     0.000027
      f+3     :     0.000240
      f-3     :     0.000258
  1 C s       :     3.206211  s :     3.206211
      pz      :     1.082605  p :     2.715096
      px      :     0.899863
      py      :     0.732627
      dz2     :     0.010555  d :     0.154659
      dxz     :     0.021247
      dyz     :     0.043971
      dx2y2   :     0.021216
      dxy     :     0.057670
      f0      :     0.001566  f :     0.009397
      f+1     :     0.001190
      f-1     :     0.000718
      f+2     :     0.002891
      f-2     :     0.000253
      f+3     :     0.002263
      f-3     :     0.000516
  2 C s       :     3.285119  s :     3.285119
      pz      :     1.047129  p :     2.777724
      px      :     1.020133
      py      :     0.710462
      dz2     :     0.005986  d :     0.049532
      dxz     :     0.021719
      dyz     :     0.003924
      dx2y2   :     0.005194
      dxy     :     0.012709
      f0      :     0.000506  f :     0.004375
      f+1     :     0.000996
      f-1     :     0.000169
      f+2     :     0.000646
      f-2     :     0.000214
      f+3     :     0.000716
      f-3     :     0.001128
  3 H s       :     0.873822  s :     0.873822
      pz      :     0.009165  p :     0.019074
      px      :     0.006219
      py      :     0.003690
  4 H s       :     0.835574  s :     0.835574
      pz      :     0.009800  p :     0.023170
      px      :     0.007560
      py      :     0.005809
  5 H s       :     0.813889  s :     0.813889
      pz      :     0.011663  p :     0.023039
      px      :     0.006679
      py      :     0.004697
  6 H s       :     0.807478  s :     0.807478
      pz      :     0.011629  p :     0.023211
      px      :     0.006929
      py      :     0.004653


                     *******************************
                     * LOEWDIN POPULATION ANALYSIS *
                     *******************************

----------------------
LOEWDIN ATOMIC CHARGES
----------------------
   0 O :   -0.078034
   1 C :   -0.442182
   2 C :    0.000588
   3 H :    0.124799
   4 H :    0.126412
   5 H :    0.135646
   6 H :    0.132770

-------------------------------
LOEWDIN REDUCED ORBITAL CHARGES
-------------------------------
  0 O s       :     3.592413  s :     3.592413
      pz      :     1.853664  p :     4.432299
      px      :     1.159642
      py      :     1.418993
      dz2     :     0.006372  d :     0.050135
      dxz     :     0.000179
      dyz     :     0.013980
      dx2y2   :     0.017198
      dxy     :     0.012407
      f0      :     0.000347  f :     0.003187
      f+1     :     0.000083
      f-1     :     0.000527
      f+2     :     0.000615
      f-2     :     0.000040
      f+3     :     0.000851
      f-3     :     0.000723
  1 C s       :     2.838100  s :     2.838100
      pz      :     1.062582  p :     2.954915
      px      :     1.043641
      py      :     0.848692
      dz2     :     0.062797  d :     0.584531
      dxz     :     0.109865
      dyz     :     0.115407
      dx2y2   :     0.121532
      dxy     :     0.174931
      f0      :     0.009025  f :     0.064636
      f+1     :     0.006060
      f-1     :     0.006562
      f+2     :     0.015696
      f-2     :     0.002647
      f+3     :     0.016074
      f-3     :     0.008572
  2 C s       :     2.905664  s :     2.905664
      pz      :     1.075211  p :     2.849896
      px      :     1.130894
      py      :     0.643790
      dz2     :     0.030868  d :     0.220003
      dxz     :     0.102463
      dyz     :     0.012244
      dx2y2   :     0.036423
      dxy     :     0.038004
      f0      :     0.003594  f :     0.023849
      f+1     :     0.003431
      f-1     :     0.001287
      f+2     :     0.004052
      f-2     :     0.001703
      f+3     :     0.004160
      f-3     :     0.005623
  3 H s       :     0.823141  s :     0.823141
      pz      :     0.026610  p :     0.052060
      px      :     0.015628
      py      :     0.009821
  4 H s       :     0.808169  s :     0.808169
      pz      :     0.029763  p :     0.065418
      px      :     0.020167
      py      :     0.015488
  5 H s       :     0.797591  s :     0.797591
      pz      :     0.035106  p :     0.066763
      px      :     0.018520
      py      :     0.013137
  6 H s       :     0.799182  s :     0.799182
      pz      :     0.035604  p :     0.068048
      px      :     0.019265
      py      :     0.013178


                      *****************************
                      * MAYER POPULATION ANALYSIS *
                      *****************************

  NA   - Mulliken gross atomic population
  ZA   - Total nuclear charge
  QA   - Mulliken gross atomic charge
  VA   - Mayer's total valence
  BVA  - Mayer's bonded valence
  FA   - Mayer's free valence

  ATOM       NA         ZA         QA         VA         BVA        FA
  0 O      8.3786     8.0000    -0.3786     1.7777     1.7777    -0.0000
  1 C      6.0854     6.0000    -0.0854     4.0052     4.0052     0.0000
  2 C      6.1168     6.0000    -0.1168     3.7920     3.7920     0.0000
  3 H      0.8929     1.0000     0.1071     0.9622     0.9622     0.0000
  4 H      0.8587     1.0000     0.1413     0.9783     0.9783     0.0000
  5 H      0.8369     1.0000     0.1631     0.9597     0.9597    -0.0000
  6 H      0.8307     1.0000     0.1693     0.9600     0.9600     0.0000

  Mayer bond orders larger than 0.100000
B(  0-O ,  1-C ) :   0.9627 B(  0-O ,  2-C ) :   0.8156 B(  1-C ,  2-C ) :   1.0882 
B(  1-C ,  3-H ) :   0.9602 B(  1-C ,  4-H ) :   0.9876 B(  2-C ,  5-H ) :   0.9464 
B(  2-C ,  6-H ) :   0.9432 

-------
TIMINGS
-------

Total SCF time: 0 days 0 hours 0 min 3 sec 

Total time                  ....       3.725 sec
Sum of individual times     ....       3.384 sec  ( 90.8%)

Fock matrix formation       ....       3.101 sec  ( 83.2%)
  Split-RI-J                ....       0.318 sec  ( 10.3% of F)
  Chain of spheres X        ....       2.142 sec  ( 69.1% of F)
  XC integration            ....       0.566 sec  ( 18.2% of F)
    Basis function eval.    ....       0.158 sec  ( 28.0% of XC)
    Density eval.           ....       0.117 sec  ( 20.6% of XC)
    XC-Functional eval.     ....       0.034 sec  (  6.1% of XC)
    XC-Potential eval.      ....       0.189 sec  ( 33.3% of XC)
Diagonalization             ....       0.018 sec  (  0.5%)
Density matrix formation    ....       0.002 sec  (  0.1%)
Population analysis         ....       0.005 sec  (  0.1%)
Initial guess               ....       0.017 sec  (  0.4%)
Orbital Transformation      ....       0.000 sec  (  0.0%)
Orbital Orthonormalization  ....       0.000 sec  (  0.0%)
DIIS solution               ....       0.015 sec  (  0.4%)
SOSCF solution              ....       0.021 sec  (  0.6%)
Grid generation             ....       0.205 sec  (  5.5%)

Maximum memory used throughout the entire SCF-calculation: 61.0 MB


-------------------------------------------------------------------------------
                          DFT DISPERSION CORRECTION                            
                                                                               
                              DFTD3 V3.1  Rev 1                                
                          USING Becke-Johnson damping                          
-------------------------------------------------------------------------------
The PBE0 functional is recognized
Active option DFTDOPT                   ...         4   

molecular C6(AA) [au] = 394.705029 


            DFT-D V3
 parameters
 s6 scaling factor         :     1.0000 
 a1 scaling factor         :     0.4145 
 s8 scaling factor         :     1.2177 
 a2 scaling factor         :     4.8593 
 ad hoc parameters k1-k3   :    16.0000     1.3333    -4.0000 

 Edisp/kcal,au: -1.644473703367  -0.002620635378 
 E6   /kcal   :  -1.072775177 
 E8   /kcal   :  -0.571698527 
 % E8         :  34.764832395 

-------------------------   ----------------
Dispersion correction           -0.002620635
-------------------------   ----------------


-------------------------   --------------------
FINAL SINGLE POINT ENERGY      -153.535385453229
-------------------------   --------------------



           ************************************************************
           *        Program running with 8 parallel MPI-processes     *
           *              working on a common directory               *
           ************************************************************
------------------------------------------------------------------------------
                         ORCA SCF GRADIENT CALCULATION
------------------------------------------------------------------------------

 ... reading COSX grid (gridx3)
Gradient of the Kohn-Sham DFT energy:
Kohn-Sham wavefunction type      ... RKS
Hartree-Fock exchange scaling    ...    0.250
Number of operators              ...    1
Number of atoms                  ...    7
Basis set dimensions             ...  117
Integral neglect threshold       ... 2.5e-11
Integral primitive cutoff        ... 2.5e-12
SHARK Integral package           ... ON

Nuc. rep. gradient       (SHARK) ... done (  0.0 sec)
HCore & Overlap gradient (SHARK) ... done (  0.0 sec)
RI-J gradient            (SHARK) ... done (  0.1 sec)
COSX-gradient                    ... done (  0.4 sec)
Exchange-correlation gradient    ... done
Dispersion correction            ... done

------------------
CARTESIAN GRADIENT
------------------

   1   O   :   -0.079150415   -0.002444704   -0.015214227
   2   C   :    0.079960666   -0.022537781   -0.031338698
   3   C   :    0.053624855    0.007007783    0.021691420
   4   H   :   -0.026512067    0.013799089    0.020375146
   5   H   :   -0.017905367    0.043522231    0.009841709
   6   H   :   -0.007775166   -0.019278142    0.003587743
   7   H   :   -0.002214676   -0.020042781   -0.008973575

Difference to translation invariance:
           :    0.0000278302    0.0000256962   -0.0000304815

Difference to rotation invariance:
           :   -0.0002184019   -0.0001901226   -0.0000946794

Norm of the cartesian gradient     ...    0.1494438854
RMS gradient                       ...    0.0326113294
MAX gradient                       ...    0.0799606660

-------
TIMINGS
-------

Total SCF gradient time            ...        0.803 sec

One electron gradient       ....       0.010 sec  (  1.3%)
RI-J Coulomb gradient       ....       0.083 sec  ( 10.3%)
COSX gradient               ....       0.377 sec  ( 46.9%)
XC gradient                 ....       0.186 sec  ( 23.1%)

Maximum memory used throughout the entire SCFGRAD-calculation: 35.9 MB

                            ***************************************
                            *     ORCA property calculations      *
                            ***************************************

                                    ---------------------
                                    Active property flags
                                    ---------------------
   (+) Dipole Moment


------------------------------------------------------------------------------
                       ORCA ELECTRIC PROPERTIES CALCULATION
------------------------------------------------------------------------------

Dipole Moment Calculation                       ... on
Quadrupole Moment Calculation                   ... off
Polarizability Calculation                      ... off
GBWName                                         ... ox_gs_E_orca0001.gbw
Electron density                                ... ox_gs_E_orca0001.scfp
The origin for moment calculation is the CENTER OF MASS  = (-0.602177,  0.064444 -0.002323)

-------------
DIPOLE MOMENT
-------------
                                X             Y             Z
Electronic contribution:     -0.35044       1.53272      -0.13934
Nuclear contribution   :      1.07235      -2.77044       0.21319
                        -----------------------------------------
Total Dipole Moment    :      0.72191      -1.23772       0.07385
                        -----------------------------------------
Magnitude (a.u.)       :      1.43477
Magnitude (Debye)      :      3.64689



--------------------
Rotational spectrum 
--------------------
 
Rotational constants in cm-1:     1.212516     0.385229     0.330551 
Rotational constants in MHz : 36350.305109 11548.869004  9909.655101 

 Dipole components along the rotational axes: 
x,y,z [a.u.] :     1.342244    -0.504930     0.044499 
x,y,z [Debye]:     3.411714    -1.283430     0.113107 

 

Timings for individual modules:

Sum of individual times         ...        5.201 sec (=   0.087 min)
GTO integral calculation        ...        0.301 sec (=   0.005 min)   5.8 %
SCF iterations                  ...        3.895 sec (=   0.065 min)  74.9 %
SCF Gradient evaluation         ...        1.005 sec (=   0.017 min)  19.3 %
                             ****ORCA TERMINATED NORMALLY****
TOTAL RUN TIME: 0 days 0 hours 0 minutes 5 seconds 550 msec
