
                                 *****************
                                 * O   R   C   A *
                                 *****************

                                            #,                                       
                                            ###                                      
                                            ####                                     
                                            #####                                    
                                            ######                                   
                                           ########,                                 
                                     ,,################,,,,,                         
                               ,,#################################,,                 
                          ,,##########################################,,             
                       ,#########################################, ''#####,          
                    ,#############################################,,   '####,        
                  ,##################################################,,,,####,       
                ,###########''''           ''''###############################       
              ,#####''   ,,,,##########,,,,          '''####'''          '####       
            ,##' ,,,,###########################,,,                        '##       
           ' ,,###''''                  '''############,,,                           
         ,,##''                                '''############,,,,        ,,,,,,###''
      ,#''                                            '''#######################'''  
     '                                                          ''''####''''         
             ,#######,   #######,   ,#######,      ##                                
            ,#'     '#,  ##    ##  ,#'     '#,    #''#        ######   ,####,        
            ##       ##  ##   ,#'  ##            #'  '#       #        #'  '#        
            ##       ##  #######   ##           ,######,      #####,   #    #        
            '#,     ,#'  ##    ##  '#,     ,#' ,#      #,         ##   #,  ,#        
             '#######'   ##     ##  '#######'  #'      '#     #####' # '####'        



                  #######################################################
                  #                        -***-                        #
                  #          Department of theory and spectroscopy      #
                  #    Directorship and core code : Frank Neese         #
                  #        Max Planck Institute fuer Kohlenforschung    #
                  #                Kaiser Wilhelm Platz 1               #
                  #                 D-45470 Muelheim/Ruhr               #
                  #                      Germany                        #
                  #                                                     #
                  #                  All rights reserved                #
                  #                        -***-                        #
                  #######################################################


                         Program Version 5.0.2 -  RELEASE  -


 With contributions from (in alphabetic order):
   Daniel Aravena         : Magnetic Suceptibility
   Michael Atanasov       : Ab Initio Ligand Field Theory (pilot matlab implementation)
   Alexander A. Auer      : GIAO ZORA, VPT2 properties, NMR spectrum
   Ute Becker             : Parallelization
   Giovanni Bistoni       : ED, misc. LED, open-shell LED, HFLD
   Martin Brehm           : Molecular dynamics
   Dmytro Bykov           : SCF Hessian
   Vijay G. Chilkuri      : MRCI spin determinant printing, contributions to CSF-ICE
   Dipayan Datta          : RHF DLPNO-CCSD density
   Achintya Kumar Dutta   : EOM-CC, STEOM-CC
   Dmitry Ganyushin       : Spin-Orbit,Spin-Spin,Magnetic field MRCI
   Miquel Garcia          : C-PCM and meta-GGA Hessian, CC/C-PCM, Gaussian charge scheme
   Yang Guo               : DLPNO-NEVPT2, F12-NEVPT2, CIM, IAO-localization
   Andreas Hansen         : Spin unrestricted coupled pair/coupled cluster methods
   Benjamin Helmich-Paris : MC-RPA, TRAH-SCF, COSX integrals
   Lee Huntington         : MR-EOM, pCC
   Robert Izsak           : Overlap fitted RIJCOSX, COSX-SCS-MP3, EOM
   Marcus Kettner         : VPT2
   Christian Kollmar      : KDIIS, OOCD, Brueckner-CCSD(T), CCSD density, CASPT2, CASPT2-K
   Simone Kossmann        : Meta GGA functionals, TD-DFT gradient, OOMP2, MP2 Hessian
   Martin Krupicka        : Initial AUTO-CI
   Lucas Lang             : DCDCAS
   Marvin Lechner         : AUTO-CI (C++ implementation), FIC-MRCC
   Dagmar Lenk            : GEPOL surface, SMD
   Dimitrios Liakos       : Extrapolation schemes; Compound Job, initial MDCI parallelization
   Dimitrios Manganas     : Further ROCIS development; embedding schemes
   Dimitrios Pantazis     : SARC Basis sets
   Anastasios Papadopoulos: AUTO-CI, single reference methods and gradients
   Taras Petrenko         : DFT Hessian,TD-DFT gradient, ASA, ECA, R-Raman, ABS, FL, XAS/XES, NRVS
   Peter Pinski           : DLPNO-MP2, DLPNO-MP2 Gradient
   Christoph Reimann      : Effective Core Potentials
   Marius Retegan         : Local ZFS, SOC
   Christoph Riplinger    : Optimizer, TS searches, QM/MM, DLPNO-CCSD(T), (RO)-DLPNO pert. Triples
   Tobias Risthaus        : Range-separated hybrids, TD-DFT gradient, RPA, STAB
   Michael Roemelt        : Original ROCIS implementation
   Masaaki Saitow         : Open-shell DLPNO-CCSD energy and density
   Barbara Sandhoefer     : DKH picture change effects
   Avijit Sen             : IP-ROCIS
   Kantharuban Sivalingam : CASSCF convergence, NEVPT2, FIC-MRCI
   Bernardo de Souza      : ESD, SOC TD-DFT
   Georgi Stoychev        : AutoAux, RI-MP2 NMR, DLPNO-MP2 response
   Willem Van den Heuvel  : Paramagnetic NMR
   Boris Wezisla          : Elementary symmetry handling
   Frank Wennmohs         : Technical directorship


 We gratefully acknowledge several colleagues who have allowed us to
 interface, adapt or use parts of their codes:
   Stefan Grimme, W. Hujo, H. Kruse, P. Pracht,  : VdW corrections, initial TS optimization,
                  C. Bannwarth, S. Ehlert          DFT functionals, gCP, sTDA/sTD-DF
   Ed Valeev, F. Pavosevic, A. Kumar             : LibInt (2-el integral package), F12 methods
   Garnet Chan, S. Sharma, J. Yang, R. Olivares  : DMRG
   Ulf Ekstrom                                   : XCFun DFT Library
   Mihaly Kallay                                 : mrcc  (arbitrary order and MRCC methods)
   Jiri Pittner, Ondrej Demel                    : Mk-CCSD
   Frank Weinhold                                : gennbo (NPA and NBO analysis)
   Christopher J. Cramer and Donald G. Truhlar   : smd solvation model
   Lars Goerigk                                  : TD-DFT with DH, B97 family of functionals
   V. Asgeirsson, H. Jonsson                     : NEB implementation
   FAccTs GmbH                                   : IRC, NEB, NEB-TS, DLPNO-Multilevel, CI-OPT
                                                   MM, QMMM, 2- and 3-layer-ONIOM, Crystal-QMMM,
                                                   LR-CPCM, SF, NACMEs, symmetry and pop. for TD-DFT,
                                                   nearIR, NL-DFT gradient (VV10), updates on ESD,
                                                   ML-optimized integration grids
   S Lehtola, MJT Oliveira, MAL Marques          : LibXC Library
   Liviu Ungur et al                             : ANISO software


 Your calculation uses the libint2 library for the computation of 2-el integrals
 For citations please refer to: http://libint.valeyev.net

 Your ORCA version has been built with support for libXC version: 5.1.0
 For citations please refer to: https://tddft.org/programs/libxc/

 This ORCA versions uses:
   CBLAS   interface :  Fast vector & matrix operations
   LAPACKE interface :  Fast linear algebra routines
   SCALAPACK package :  Parallel linear algebra routines
   Shared memory     :  Shared parallel matrices
   BLAS/LAPACK       :  OpenBLAS 0.3.15  USE64BITINT DYNAMIC_ARCH NO_AFFINITY SkylakeX SINGLE_THREADED
        Core in use  :  SkylakeX
   Copyright (c) 2011-2014, The OpenBLAS Project


Your calculation utilizes the atom-pairwise dispersion correction
with the Becke-Johnson damping scheme (D3BJ)
Cite in your paper:
S.Grimme, S.Ehrlich, L.Goerigk, J Comput Chem, (2011), 32, 1456–1465 
S.Grimme, J.Antony, S.Ehrlich and H.Krieg, J.Chem.Phys., 132, (2010), 154104 
   

================================================================================

----- Orbital basis set information -----
Your calculation utilizes the basis: def2-TZVP
   F. Weigend and R. Ahlrichs, Phys. Chem. Chem. Phys. 7, 3297 (2005).

----- AuxJ basis set information -----
Your calculation utilizes the auxiliary basis: def2/J
   F. Weigend, Phys. Chem. Chem. Phys. 8, 1057 (2006).

================================================================================
                                        WARNINGS
                       Please study these warnings very carefully!
================================================================================


INFO   : the flag for use of the SHARK integral package has been found!

================================================================================
                                       INPUT FILE
================================================================================
NAME = ox_gs_B_orca0001.inp
|  1> ! engrad PBE0 D3BJ def2-TZVP  
|  2> %pal nprocs 8 end
|  3> %maxcore 3000
|  4>  
|  5> *xyz 0 1 
|  6> O   -0.2774012919784112 0.8932175308296351 0.027672066115398918
|  7> C   -0.6629820122909932 -0.470485754235295 0.03377770425611904
|  8> C   0.6380381786704901 -0.45617591700894994 0.05294845937855752
|  9> H   -1.2837149414099995 -0.6513989273193014 0.9723551486446361
| 10> H   -1.2115258572186167 -0.6250850454157582 -0.9260807987423837
| 11> H   1.2700584676884108 -0.6844106002804148 -0.877892484350193
| 12> H   1.3833708957731516 -0.6644608306081382 0.8916538734767522
| 13> *
| 14> 
| 15>                          ****END OF INPUT****
================================================================================

                     *******************************
                     * Energy+Gradient Calculation *
                     *******************************

---------------------------------
CARTESIAN COORDINATES (ANGSTROEM)
---------------------------------
  O     -0.277401    0.893218    0.027672
  C     -0.662982   -0.470486    0.033778
  C      0.638038   -0.456176    0.052948
  H     -1.283715   -0.651399    0.972355
  H     -1.211526   -0.625085   -0.926081
  H      1.270058   -0.684411   -0.877892
  H      1.383371   -0.664461    0.891654

----------------------------
CARTESIAN COORDINATES (A.U.)
----------------------------
  NO LB      ZA    FRAG     MASS         X           Y           Z
   0 O     8.0000    0    15.999   -0.524212    1.687937    0.052293
   1 C     6.0000    0    12.011   -1.252854   -0.889089    0.063831
   2 C     6.0000    0    12.011    1.205717   -0.862048    0.100058
   3 H     1.0000    0     1.008   -2.425870   -1.230966    1.837485
   4 H     1.0000    0     1.008   -2.289452   -1.181240   -1.750039
   5 H     1.0000    0     1.008    2.400063   -1.293349   -1.658976
   6 H     1.0000    0     1.008    2.614192   -1.255649    1.684982

--------------------------------
INTERNAL COORDINATES (ANGSTROEM)
--------------------------------
 O      0   0   0     0.000000000000     0.00000000     0.00000000
 C      1   0   0     1.417179036110     0.00000000     0.00000000
 C      2   1   0     1.301240111041    73.58761102     0.00000000
 H      2   1   3     1.139722143596   107.72658432   119.37010543
 H      2   1   3     1.116301767633   105.26350340   242.23380484
 H      3   2   1     1.148044240829   122.43174172   256.46011743
 H      3   2   1     1.141196843693   131.43920681   105.16295452

---------------------------
INTERNAL COORDINATES (A.U.)
---------------------------
 O      0   0   0     0.000000000000     0.00000000     0.00000000
 C      1   0   0     2.678080260983     0.00000000     0.00000000
 C      2   1   0     2.458987444341    73.58761102     0.00000000
 H      2   1   3     2.153762720162   107.72658432   119.37010543
 H      2   1   3     2.109504623638   105.26350340   242.23380484
 H      3   2   1     2.169489204792   122.43174172   256.46011743
 H      3   2   1     2.156549499475   131.43920681   105.16295452

---------------------
BASIS SET INFORMATION
---------------------
There are 3 groups of distinct atoms

 Group   1 Type O   : 11s6p2d1f contracted to 5s3p2d1f pattern {62111/411/11/1}
 Group   2 Type C   : 11s6p2d1f contracted to 5s3p2d1f pattern {62111/411/11/1}
 Group   3 Type H   : 5s1p contracted to 3s1p pattern {311/1}

Atom   0O    basis set group =>   1
Atom   1C    basis set group =>   2
Atom   2C    basis set group =>   2
Atom   3H    basis set group =>   3
Atom   4H    basis set group =>   3
Atom   5H    basis set group =>   3
Atom   6H    basis set group =>   3
---------------------------------
AUXILIARY/J BASIS SET INFORMATION
---------------------------------
There are 3 groups of distinct atoms

 Group   1 Type O   : 12s5p4d2f1g contracted to 6s4p3d1f1g pattern {711111/2111/211/2/1}
 Group   2 Type C   : 12s5p4d2f1g contracted to 6s4p3d1f1g pattern {711111/2111/211/2/1}
 Group   3 Type H   : 5s2p1d contracted to 3s1p1d pattern {311/2/1}

Atom   0O    basis set group =>   1
Atom   1C    basis set group =>   2
Atom   2C    basis set group =>   2
Atom   3H    basis set group =>   3
Atom   4H    basis set group =>   3
Atom   5H    basis set group =>   3
Atom   6H    basis set group =>   3


           ************************************************************
           *        Program running with 8 parallel MPI-processes     *
           *              working on a common directory               *
           ************************************************************
------------------------------------------------------------------------------
                           ORCA GTO INTEGRAL CALCULATION
                           -- RI-GTO INTEGRALS CHOSEN --
------------------------------------------------------------------------------
------------------------------------------------------------------------------
                   ___                                                        
                  /   \      - P O W E R E D   B Y -                         
                 /     \                                                     
                 |  |  |   _    _      __       _____    __    __             
                 |  |  |  | |  | |    /  \     |  _  \  |  |  /  |          
                  \  \/   | |  | |   /    \    | | | |  |  | /  /          
                 / \  \   | |__| |  /  /\  \   | |_| |  |  |/  /          
                |  |  |   |  __  | /  /__\  \  |    /   |      \           
                |  |  |   | |  | | |   __   |  |    \   |  |\   \          
                \     /   | |  | | |  |  |  |  | |\  \  |  | \   \       
                 \___/    |_|  |_| |__|  |__|  |_| \__\ |__|  \__/        
                                                                              
                      - O R C A' S   B I G   F R I E N D -                    
                                      &                                       
                       - I N T E G R A L  F E E D E R -                       
                                                                              
 v1 FN, 2020, v2 2021                                                         
------------------------------------------------------------------------------


Reading SHARK input file ox_gs_B_orca0001.SHARKINP.tmp ... ok
----------------------
SHARK INTEGRAL PACKAGE
----------------------

Number of atoms                             ...      7
Number of basis functions                   ...    117
Number of shells                            ...     49
Maximum angular momentum                    ...      3
Integral batch strategy                     ... SHARK/LIBINT Hybrid
RI-J (if used) integral strategy            ... SPLIT-RIJ (Revised 2003 algorithm where possible)
Printlevel                                  ...      1
Contraction scheme used                     ... SEGMENTED contraction
Coulomb Range Separation                    ... NOT USED
Exchange Range Separation                   ... NOT USED
Finite Nucleus Model                        ... NOT USED
Auxiliary Coulomb fitting basis             ... AVAILABLE
   # of basis functions in Aux-J            ...    191
   # of shells in Aux-J                     ...     65
   Maximum angular momentum in Aux-J        ...      4
Auxiliary J/K fitting basis                 ... NOT available
Auxiliary Correlation fitting basis         ... NOT available
Auxiliary 'external' fitting basis          ... NOT available
Integral threshold                          ...     2.500000e-11
Primitive cut-off                           ...     2.500000e-12
Primitive pair pre-selection threshold      ...     2.500000e-12

Calculating pre-screening integrals         ... done (  0.0 sec) Dimension = 49
Organizing shell pair data                  ... done (  0.0 sec)
Shell pair information
Total number of shell pairs                 ...      1225
Shell pairs after pre-screening             ...      1220
Total number of primitive shell pairs       ...      3648
Primitive shell pairs kept                  ...      3140
          la=0 lb=0:    373 shell pairs
          la=1 lb=0:    351 shell pairs
          la=1 lb=1:     91 shell pairs
          la=2 lb=0:    162 shell pairs
          la=2 lb=1:     78 shell pairs
          la=2 lb=2:     21 shell pairs
          la=3 lb=0:     81 shell pairs
          la=3 lb=1:     39 shell pairs
          la=3 lb=2:     18 shell pairs
          la=3 lb=3:      6 shell pairs

Calculating one electron integrals          ... done (  0.0 sec)
Calculating RI/J V-Matrix + Cholesky decomp.... done (  0.0 sec)
Calculating Nuclear repulsion               ... done (  0.0 sec) ENN=     74.188730486944 Eh

SHARK setup successfully completed in   0.2 seconds

Maximum memory used throughout the entire GTOINT-calculation: 14.9 MB


           ************************************************************
           *        Program running with 8 parallel MPI-processes     *
           *              working on a common directory               *
           ************************************************************
-------------------------------------------------------------------------------
                                 ORCA SCF
-------------------------------------------------------------------------------

------------
SCF SETTINGS
------------
Hamiltonian:
 Density Functional     Method          .... DFT(GTOs)
 Exchange Functional    Exchange        .... PBE
   PBE kappa parameter   XKappa         ....  0.804000
   PBE mue parameter    XMuePBE         ....  0.219520
 Correlation Functional Correlation     .... PBE
   PBE beta parameter  CBetaPBE         ....  0.066725
 LDA part of GGA corr.  LDAOpt          .... PW91-LDA
 Gradients option       PostSCFGGA      .... off
 Hybrid DFT is turned on
   Fraction HF Exchange ScalHFX         ....  0.250000
   Scaling of DF-GGA-X  ScalDFX         ....  0.750000
   Scaling of DF-GGA-C  ScalDFC         ....  1.000000
   Scaling of DF-LDA-C  ScalLDAC        ....  1.000000
   Perturbative correction              ....  0.000000
   Density functional embedding theory  .... OFF
   NL short-range parameter             ....  6.900000
 RI-approximation to the Coulomb term is turned on
   Number of AuxJ basis functions       .... 191
   RIJ-COSX (HFX calculated with COS-X)).... on


General Settings:
 Integral files         IntName         .... ox_gs_B_orca0001
 Hartree-Fock type      HFTyp           .... RHF
 Total Charge           Charge          ....    0
 Multiplicity           Mult            ....    1
 Number of Electrons    NEL             ....   24
 Basis Dimension        Dim             ....  117
 Nuclear Repulsion      ENuc            ....     74.1887304869 Eh

Convergence Acceleration:
 DIIS                   CNVDIIS         .... on
   Start iteration      DIISMaxIt       ....    12
   Startup error        DIISStart       ....  0.200000
   # of expansion vecs  DIISMaxEq       ....     5
   Bias factor          DIISBfac        ....   1.050
   Max. coefficient     DIISMaxC        ....  10.000
 Trust-Rad. Augm. Hess. CNVTRAH         .... auto
   Auto Start mean grad. ratio tolernc. ....  1.125000
   Auto Start start iteration           ....    20
   Auto Start num. interpolation iter.  ....    10
   Max. Number of Micro iterations      ....    16
   Max. Number of Macro iterations      .... Maxiter - #DIIS iter
   Number of Davidson start vectors     ....     2
   Converg. threshold I  (grad. norm)   ....   1.000e-05
   Converg. threshold II (energy diff.) ....   1.000e-08
   Grad. Scal. Fac. for Micro threshold ....   0.100
   Minimum threshold for Micro iter.    ....   0.010
   NR start threshold (gradient norm)   ....   0.001
   Initial trust radius                 ....   0.400
   Minimum AH scaling param. (alpha)    ....   1.000
   Maximum AH scaling param. (alpha)    .... 1000.000
   Orbital update algorithm             .... Taylor
   White noise on init. David. guess    .... on
   Maximum white noise                  ....   0.010
   Quad. conv. algorithm                .... NR
 SOSCF                  CNVSOSCF        .... on
   Start iteration      SOSCFMaxIt      ....   150
   Startup grad/error   SOSCFStart      ....  0.003300
 Level Shifting         CNVShift        .... on
   Level shift para.    LevelShift      ....    0.2500
   Turn off err/grad.   ShiftErr        ....    0.0010
 Zerner damping         CNVZerner       .... off
 Static damping         CNVDamp         .... on
   Fraction old density DampFac         ....    0.7000
   Max. Damping (<1)    DampMax         ....    0.9800
   Min. Damping (>=0)   DampMin         ....    0.0000
   Turn off err/grad.   DampErr         ....    0.1000
 Fernandez-Rico         CNVRico         .... off

SCF Procedure:
 Maximum # iterations   MaxIter         ....   125
 SCF integral mode      SCFMode         .... Direct
   Integral package                     .... SHARK and LIBINT hybrid scheme
 Reset frequency        DirectResetFreq ....    20
 Integral Threshold     Thresh          ....  2.500e-11 Eh
 Primitive CutOff       TCut            ....  2.500e-12 Eh

Convergence Tolerance:
 Convergence Check Mode ConvCheckMode   .... Total+1el-Energy
 Convergence forced     ConvForced      .... 0
 Energy Change          TolE            ....  1.000e-08 Eh
 1-El. energy change                    ....  1.000e-05 Eh
 Orbital Gradient       TolG            ....  1.000e-05
 Orbital Rotation angle TolX            ....  1.000e-05
 DIIS Error             TolErr          ....  5.000e-07


Diagonalization of the overlap matrix:
Smallest eigenvalue                        ... 1.397e-04
Time for diagonalization                   ...    0.023 sec
Threshold for overlap eigenvalues          ... 1.000e-08
Number of eigenvalues below threshold      ... 0
Time for construction of square roots      ...    0.003 sec
Total time needed                          ...    0.027 sec

Time for model grid setup =    0.039 sec

------------------------------
INITIAL GUESS: MODEL POTENTIAL
------------------------------
Loading Hartree-Fock densities                     ... done
Calculating cut-offs                               ... done
Initializing the effective Hamiltonian             ... done
Setting up the integral package (SHARK)            ... done
Starting the Coulomb interaction                   ... done (   0.0 sec)
Reading the grid                                   ... done
Mapping shells                                     ... done
Starting the XC term evaluation                    ... done (   0.0 sec)
  promolecular density results
     # of electrons  =     23.998248528
     EX              =    -19.520973011
     EC              =     -0.778383046
     EX+EC           =    -20.299356057
Transforming the Hamiltonian                       ... done (   0.0 sec)
Diagonalizing the Hamiltonian                      ... done (   0.0 sec)
Back transforming the eigenvectors                 ... done (   0.0 sec)
Now organizing SCF variables                       ... done
                      ------------------
                      INITIAL GUESS DONE (   0.1 sec)
                      ------------------
-------------------
DFT GRID GENERATION
-------------------

General Integration Accuracy     IntAcc      ... 4.388
Radial Grid Type                 RadialGrid  ... OptM3 with GC (2021)
Angular Grid (max. ang.)         AngularGrid ... 4 (Lebedev-302)
Angular grid pruning method      GridPruning ... 4 (adaptive)
Weight generation scheme         WeightScheme... Becke
Basis function cutoff            BFCut       ... 1.0000e-11
Integration weight cutoff        WCut        ... 1.0000e-14
Angular grids for H and He will be reduced by one unit
Partially contracted basis set               ... off
Rotationally invariant grid construction     ... off

Total number of grid points                  ...    31298
Total number of batches                      ...      493
Average number of points per batch           ...       63
Average number of grid points per atom       ...     4471
Time for grid setup =    0.109 sec

--------------------
COSX GRID GENERATION
--------------------

GRIDX 1
-------
General Integration Accuracy     IntAcc      ... 3.816
Radial Grid Type                 RadialGrid  ... OptM3 with GC (2021)
Angular Grid (max. ang.)         AngularGrid ... 1 (Lebedev-50)
Angular grid pruning method      GridPruning ... 4 (adaptive)
Weight generation scheme         WeightScheme... Becke
Basis function cutoff            BFCut       ... 1.0000e-11
Integration weight cutoff        WCut        ... 1.0000e-14
Angular grids for H and He will be reduced by one unit
Partially contracted basis set               ... on
Rotationally invariant grid construction     ... off

Total number of grid points                  ...     4037
Total number of batches                      ...       68
Average number of points per batch           ...       59
Average number of grid points per atom       ...      577
UseSFitting                                  ... on

GRIDX 2
-------
General Integration Accuracy     IntAcc      ... 4.020
Radial Grid Type                 RadialGrid  ... OptM3 with GC (2021)
Angular Grid (max. ang.)         AngularGrid ... 2 (Lebedev-110)
Angular grid pruning method      GridPruning ... 4 (adaptive)
Weight generation scheme         WeightScheme... Becke
Basis function cutoff            BFCut       ... 1.0000e-11
Integration weight cutoff        WCut        ... 1.0000e-14
Angular grids for H and He will be reduced by one unit
Partially contracted basis set               ... on
Rotationally invariant grid construction     ... off

Total number of grid points                  ...     8722
Total number of batches                      ...      139
Average number of points per batch           ...       62
Average number of grid points per atom       ...     1246
UseSFitting                                  ... on

GRIDX 3
-------
General Integration Accuracy     IntAcc      ... 4.338
Radial Grid Type                 RadialGrid  ... OptM3 with GC (2021)
Angular Grid (max. ang.)         AngularGrid ... 3 (Lebedev-194)
Angular grid pruning method      GridPruning ... 4 (adaptive)
Weight generation scheme         WeightScheme... Becke
Basis function cutoff            BFCut       ... 1.0000e-11
Integration weight cutoff        WCut        ... 1.0000e-14
Angular grids for H and He will be reduced by one unit
Partially contracted basis set               ... on
Rotationally invariant grid construction     ... off

Total number of grid points                  ...    19244
Total number of batches                      ...      305
Average number of points per batch           ...       63
Average number of grid points per atom       ...     2749
UseSFitting                                  ... on

Time for X-Grid setup             =    0.073 sec

--------------
SCF ITERATIONS
--------------
ITER       Energy         Delta-E        Max-DP      RMS-DP      [F,P]     Damp
               ***  Starting incremental Fock matrix formation  ***
  0   -153.5440849671   0.000000000000 0.03442449  0.00131720  0.1867466 0.7000
  1   -153.5794648834  -0.035379916336 0.01970311  0.00095282  0.0758085 0.7000
                               ***Turning on DIIS***
  2   -153.5929903032  -0.013525419742 0.02960301  0.00150277  0.0336954 0.0000
  3   -153.6146933996  -0.021703096491 0.01673061  0.00076563  0.0420526 0.0000
  4   -153.6194556350  -0.004762235314 0.00483131  0.00021317  0.0125050 0.0000
  5   -153.6197255582  -0.000269923266 0.00173218  0.00007804  0.0054239 0.0000
                      *** Initiating the SOSCF procedure ***
                           *** Shutting down DIIS ***
                      *** Re-Reading the Fockian *** 
                      *** Removing any level shift *** 
ITER      Energy       Delta-E        Grad      Rot      Max-DP    RMS-DP
  6   -153.61976729  -0.0000417314  0.000203  0.000203  0.000853  0.000036
               *** Restarting incremental Fock matrix formation ***
  7   -153.61975933   0.0000079563  0.000117  0.000332  0.000229  0.000008
  8   -153.61975905   0.0000002788  0.000234  0.000219  0.000171  0.000006
  9   -153.61975946  -0.0000004058  0.000026  0.000034  0.000048  0.000002
 10   -153.61975946   0.0000000022  0.000029  0.000018  0.000027  0.000001
                  ***Gradient check signals convergence***
              ***Rediagonalizing the Fockian in SOSCF/NRSCF***

               *****************************************************
               *                     SUCCESS                       *
               *           SCF CONVERGED AFTER  11 CYCLES          *
               *****************************************************

Old exchange energy                            =     -4.982711208 Eh
New exchange energy                            =     -4.982733298 Eh
Exchange energy change after final integration =     -0.000022090 Eh
Total energy after final integration           =   -153.619781558 Eh
Final COS-X integration done in                =     0.249 sec

----------------
TOTAL SCF ENERGY
----------------

Total Energy       :         -153.61978156 Eh           -4180.20677 eV

Components:
Nuclear Repulsion  :           74.18873049 Eh            2018.77799 eV
Electronic Energy  :         -227.80851204 Eh           -6198.98476 eV
One Electron Energy:         -355.09699452 Eh           -9662.68046 eV
Two Electron Energy:          127.28848247 Eh            3463.69570 eV
Max COSX asymmetry :            0.00000270 Eh               0.00007 eV

Virial components:
Potential Energy   :         -306.57115860 Eh           -8342.22534 eV
Kinetic Energy     :          152.95137704 Eh            4162.01856 eV
Virial Ratio       :            2.00437005


DFT components:
N(Alpha)           :       11.999999839975 electrons
N(Beta)            :       11.999999839975 electrons
N(Total)           :       23.999999679949 electrons
E(X)               :      -14.930796442822 Eh       
E(C)               :       -0.786203224773 Eh       
E(XC)              :      -15.716999667595 Eh       
DFET-embed. en.    :        0.000000000000 Eh       

---------------
SCF CONVERGENCE
---------------

  Last Energy change         ...   -1.0084e-08  Tolerance :   1.0000e-08
  Last MAX-Density change    ...    4.4409e-16  Tolerance :   1.0000e-07
  Last RMS-Density change    ...    1.3335e-17  Tolerance :   5.0000e-09
  Last Orbital Gradient      ...    7.4876e-07  Tolerance :   1.0000e-05
  Last Orbital Rotation      ...    9.6952e-07  Tolerance :   1.0000e-05

             **** THE GBW FILE WAS UPDATED (ox_gs_B_orca0001.gbw) ****
             **** DENSITY ox_gs_B_orca0001.scfp WAS UPDATED ****
             **** ENERGY FILE WAS UPDATED (ox_gs_B_orca0001.en.tmp) ****
             **** THE GBW FILE WAS UPDATED (ox_gs_B_orca0001.gbw) ****
             **** DENSITY ox_gs_B_orca0001.scfp WAS UPDATED ****
----------------
ORBITAL ENERGIES
----------------

  NO   OCC          E(Eh)            E(eV) 
   0   2.0000     -19.216644      -522.9115 
   1   2.0000     -10.290534      -280.0197 
   2   2.0000     -10.270861      -279.4843 
   3   2.0000      -1.071076       -29.1455 
   4   2.0000      -0.745827       -20.2950 
   5   2.0000      -0.627405       -17.0725 
   6   2.0000      -0.523143       -14.2354 
   7   2.0000      -0.511756       -13.9256 
   8   2.0000      -0.398850       -10.8533 
   9   2.0000      -0.369048       -10.0423 
  10   2.0000      -0.344103        -9.3635 
  11   2.0000      -0.279986        -7.6188 
  12   0.0000       0.007144         0.1944 
  13   0.0000       0.058596         1.5945 
  14   0.0000       0.070588         1.9208 
  15   0.0000       0.081300         2.2123 
  16   0.0000       0.114144         3.1060 
  17   0.0000       0.152852         4.1593 
  18   0.0000       0.180588         4.9141 
  19   0.0000       0.224907         6.1200 
  20   0.0000       0.251727         6.8498 
  21   0.0000       0.266838         7.2610 
  22   0.0000       0.282085         7.6759 
  23   0.0000       0.311350         8.4723 
  24   0.0000       0.377462        10.2713 
  25   0.0000       0.392529        10.6812 
  26   0.0000       0.419237        11.4080 
  27   0.0000       0.424996        11.5647 
  28   0.0000       0.440927        11.9982 
  29   0.0000       0.492386        13.3985 
  30   0.0000       0.497120        13.5273 
  31   0.0000       0.533929        14.5289 
  32   0.0000       0.574316        15.6279 
  33   0.0000       0.677265        18.4293 
  34   0.0000       0.684485        18.6258 
  35   0.0000       0.770145        20.9567 
  36   0.0000       0.815474        22.1902 
  37   0.0000       0.831215        22.6185 
  38   0.0000       0.850389        23.1403 
  39   0.0000       0.976785        26.5797 
  40   0.0000       0.983261        26.7559 
  41   0.0000       1.057528        28.7768 
  42   0.0000       1.098386        29.8886 
  43   0.0000       1.125358        30.6225 
  44   0.0000       1.233530        33.5661 
  45   0.0000       1.377125        37.4735 
  46   0.0000       1.463850        39.8334 
  47   0.0000       1.476298        40.1721 
  48   0.0000       1.500430        40.8288 
  49   0.0000       1.534004        41.7424 
  50   0.0000       1.562515        42.5182 
  51   0.0000       1.646492        44.8033 
  52   0.0000       1.651393        44.9367 
  53   0.0000       1.665158        45.3112 
  54   0.0000       1.725346        46.9490 
  55   0.0000       1.756994        47.8102 
  56   0.0000       1.848712        50.3060 
  57   0.0000       1.866070        50.7784 
  58   0.0000       1.922014        52.3007 
  59   0.0000       2.006344        54.5954 
  60   0.0000       2.033612        55.3374 
  61   0.0000       2.137761        58.1714 
  62   0.0000       2.160189        58.7817 
  63   0.0000       2.270973        61.7963 
  64   0.0000       2.295016        62.4506 
  65   0.0000       2.310409        62.8694 
  66   0.0000       2.402951        65.3876 
  67   0.0000       2.446565        66.5744 
  68   0.0000       2.491151        67.7877 
  69   0.0000       2.544892        69.2500 
  70   0.0000       2.579321        70.1869 
  71   0.0000       2.670135        72.6581 
  72   0.0000       2.725863        74.1745 
  73   0.0000       2.731385        74.3248 
  74   0.0000       2.760488        75.1167 
  75   0.0000       2.800067        76.1937 
  76   0.0000       2.828414        76.9651 
  77   0.0000       2.914642        79.3114 
  78   0.0000       2.988895        81.3320 
  79   0.0000       3.044753        82.8519 
  80   0.0000       3.059536        83.2542 
  81   0.0000       3.085760        83.9678 
  82   0.0000       3.097025        84.2743 
  83   0.0000       3.192261        86.8658 
  84   0.0000       3.296181        89.6937 
  85   0.0000       3.327552        90.5473 
  86   0.0000       3.368123        91.6513 
  87   0.0000       3.396453        92.4222 
  88   0.0000       3.528792        96.0233 
  89   0.0000       3.586298        97.5881 
  90   0.0000       3.627404        98.7067 
  91   0.0000       3.721707       101.2728 
  92   0.0000       3.948850       107.4537 
  93   0.0000       4.061325       110.5143 
  94   0.0000       4.086795       111.2074 
  95   0.0000       4.264318       116.0380 
  96   0.0000       4.335669       117.9795 
  97   0.0000       4.386756       119.3697 
  98   0.0000       4.475026       121.7716 
  99   0.0000       4.504881       122.5840 
 100   0.0000       4.714884       128.2985 
 101   0.0000       4.898270       133.2887 
 102   0.0000       5.269796       143.3984 
 103   0.0000       5.309659       144.4832 
 104   0.0000       5.480501       149.1320 
 105   0.0000       5.620362       152.9378 
 106   0.0000       5.762988       156.8189 
 107   0.0000       5.767331       156.9371 
 108   0.0000       5.985344       162.8695 
 109   0.0000       6.507272       177.0719 
 110   0.0000       6.512346       177.2099 
 111   0.0000       6.789530       184.7525 
 112   0.0000       6.965657       189.5452 
 113   0.0000       7.110335       193.4820 
 114   0.0000      22.106601       601.5512 
 115   0.0000      22.651234       616.3714 
 116   0.0000      43.778299      1191.2681 

                    ********************************
                    * MULLIKEN POPULATION ANALYSIS *
                    ********************************

-----------------------
MULLIKEN ATOMIC CHARGES
-----------------------
   0 O :   -0.345562
   1 C :   -0.030312
   2 C :   -0.117747
   3 H :    0.109988
   4 H :    0.112153
   5 H :    0.128038
   6 H :    0.143443
Sum of atomic charges:   -0.0000000

--------------------------------
MULLIKEN REDUCED ORBITAL CHARGES
--------------------------------
  0 O s       :     3.894019  s :     3.894019
      pz      :     1.875383  p :     4.415680
      px      :     1.381327
      py      :     1.158969
      dz2     :     0.005013  d :     0.034032
      dxz     :     0.001469
      dyz     :     0.005911
      dx2y2   :     0.010102
      dxy     :     0.011537
      f0      :     0.000198  f :     0.001831
      f+1     :     0.000117
      f-1     :     0.000437
      f+2     :     0.000137
      f-2     :     0.000104
      f+3     :     0.000445
      f-3     :     0.000393
  1 C s       :     3.160227  s :     3.160227
      pz      :     1.044235  p :     2.713505
      px      :     0.953927
      py      :     0.715342
      dz2     :     0.007152  d :     0.144754
      dxz     :     0.027764
      dyz     :     0.040465
      dx2y2   :     0.035051
      dxy     :     0.034322
      f0      :     0.001834  f :     0.011827
      f+1     :     0.001099
      f-1     :     0.000724
      f+2     :     0.002788
      f-2     :     0.000705
      f+3     :     0.001291
      f-3     :     0.003386
  2 C s       :     3.228583  s :     3.228583
      pz      :     1.054008  p :     2.782204
      px      :     0.962631
      py      :     0.765565
      dz2     :     0.005180  d :     0.097585
      dxz     :     0.029886
      dyz     :     0.018401
      dx2y2   :     0.022787
      dxy     :     0.021331
      f0      :     0.001035  f :     0.009376
      f+1     :     0.000912
      f-1     :     0.000426
      f+2     :     0.001707
      f-2     :     0.001042
      f+3     :     0.001632
      f-3     :     0.002621
  3 H s       :     0.870822  s :     0.870822
      pz      :     0.009847  p :     0.019191
      px      :     0.006187
      py      :     0.003157
  4 H s       :     0.867640  s :     0.867640
      pz      :     0.010843  p :     0.020207
      px      :     0.005815
      py      :     0.003549
  5 H s       :     0.852469  s :     0.852469
      pz      :     0.009720  p :     0.019493
      px      :     0.006558
      py      :     0.003215
  6 H s       :     0.836696  s :     0.836696
      pz      :     0.008628  p :     0.019860
      px      :     0.008078
      py      :     0.003155


                     *******************************
                     * LOEWDIN POPULATION ANALYSIS *
                     *******************************

----------------------
LOEWDIN ATOMIC CHARGES
----------------------
   0 O :    0.044458
   1 C :   -0.398353
   2 C :   -0.199119
   3 H :    0.135059
   4 H :    0.134576
   5 H :    0.142269
   6 H :    0.141110

-------------------------------
LOEWDIN REDUCED ORBITAL CHARGES
-------------------------------
  0 O s       :     3.479114  s :     3.479114
      pz      :     1.781111  p :     4.402329
      px      :     1.349301
      py      :     1.271916
      dz2     :     0.010538  d :     0.069298
      dxz     :     0.003630
      dyz     :     0.013197
      dx2y2   :     0.022669
      dxy     :     0.019263
      f0      :     0.000451  f :     0.004801
      f+1     :     0.000150
      f-1     :     0.000879
      f+2     :     0.000423
      f-2     :     0.000372
      f+3     :     0.001147
      f-3     :     0.001380
  1 C s       :     2.801268  s :     2.801268
      pz      :     1.011232  p :     2.894253
      px      :     1.097138
      py      :     0.785883
      dz2     :     0.060214  d :     0.611417
      dxz     :     0.162159
      dyz     :     0.105069
      dx2y2   :     0.143029
      dxy     :     0.140946
      f0      :     0.012670  f :     0.091416
      f+1     :     0.006663
      f-1     :     0.007348
      f+2     :     0.018060
      f-2     :     0.002718
      f+3     :     0.015240
      f-3     :     0.028718
  2 C s       :     2.829998  s :     2.829998
      pz      :     1.036854  p :     2.880274
      px      :     1.106629
      py      :     0.736791
      dz2     :     0.036573  d :     0.431218
      dxz     :     0.170012
      dyz     :     0.045078
      dx2y2   :     0.085976
      dxy     :     0.093580
      f0      :     0.006181  f :     0.057629
      f+1     :     0.005431
      f-1     :     0.003777
      f+2     :     0.009150
      f-2     :     0.003587
      f+3     :     0.012044
      f-3     :     0.017460
  3 H s       :     0.813671  s :     0.813671
      pz      :     0.027627  p :     0.051270
      px      :     0.015126
      py      :     0.008517
  4 H s       :     0.810870  s :     0.810870
      pz      :     0.030321  p :     0.054555
      px      :     0.014637
      py      :     0.009597
  5 H s       :     0.805032  s :     0.805032
      pz      :     0.028185  p :     0.052699
      px      :     0.015522
      py      :     0.008992
  6 H s       :     0.804077  s :     0.804077
      pz      :     0.026132  p :     0.054812
      px      :     0.019733
      py      :     0.008947


                      *****************************
                      * MAYER POPULATION ANALYSIS *
                      *****************************

  NA   - Mulliken gross atomic population
  ZA   - Total nuclear charge
  QA   - Mulliken gross atomic charge
  VA   - Mayer's total valence
  BVA  - Mayer's bonded valence
  FA   - Mayer's free valence

  ATOM       NA         ZA         QA         VA         BVA        FA
  0 O      8.3456     8.0000    -0.3456     1.9326     1.9326    -0.0000
  1 C      6.0303     6.0000    -0.0303     4.0469     4.0469    -0.0000
  2 C      6.1177     6.0000    -0.1177     3.9997     3.9997    -0.0000
  3 H      0.8900     1.0000     0.1100     0.9611     0.9611    -0.0000
  4 H      0.8878     1.0000     0.1122     0.9617     0.9617    -0.0000
  5 H      0.8720     1.0000     0.1280     0.9549     0.9549     0.0000
  6 H      0.8566     1.0000     0.1434     0.9534     0.9534    -0.0000

  Mayer bond orders larger than 0.100000
B(  0-O ,  1-C ) :   0.9693 B(  0-O ,  2-C ) :   0.9421 B(  1-C ,  2-C ) :   1.1664 
B(  1-C ,  3-H ) :   0.9380 B(  1-C ,  4-H ) :   0.9444 B(  2-C ,  5-H ) :   0.9310 
B(  2-C ,  6-H ) :   0.9349 

-------
TIMINGS
-------

Total SCF time: 0 days 0 hours 0 min 2 sec 

Total time                  ....       2.847 sec
Sum of individual times     ....       2.487 sec  ( 87.3%)

Fock matrix formation       ....       2.172 sec  ( 76.3%)
  Split-RI-J                ....       0.299 sec  ( 13.8% of F)
  Chain of spheres X        ....       1.400 sec  ( 64.4% of F)
  XC integration            ....       0.382 sec  ( 17.6% of F)
    Basis function eval.    ....       0.102 sec  ( 26.7% of XC)
    Density eval.           ....       0.077 sec  ( 20.1% of XC)
    XC-Functional eval.     ....       0.022 sec  (  5.8% of XC)
    XC-Potential eval.      ....       0.140 sec  ( 36.6% of XC)
Diagonalization             ....       0.015 sec  (  0.5%)
Density matrix formation    ....       0.001 sec  (  0.0%)
Population analysis         ....       0.004 sec  (  0.2%)
Initial guess               ....       0.050 sec  (  1.7%)
Orbital Transformation      ....       0.000 sec  (  0.0%)
Orbital Orthonormalization  ....       0.000 sec  (  0.0%)
DIIS solution               ....       0.013 sec  (  0.4%)
SOSCF solution              ....       0.010 sec  (  0.4%)
Grid generation             ....       0.221 sec  (  7.8%)

Maximum memory used throughout the entire SCF-calculation: 61.1 MB


-------------------------------------------------------------------------------
                          DFT DISPERSION CORRECTION                            
                                                                               
                              DFTD3 V3.1  Rev 1                                
                          USING Becke-Johnson damping                          
-------------------------------------------------------------------------------
The PBE0 functional is recognized
Active option DFTDOPT                   ...         4   

molecular C6(AA) [au] = 352.298347 


            DFT-D V3
 parameters
 s6 scaling factor         :     1.0000 
 a1 scaling factor         :     0.4145 
 s8 scaling factor         :     1.2177 
 a2 scaling factor         :     4.8593 
 ad hoc parameters k1-k3   :    16.0000     1.3333    -4.0000 

 Edisp/kcal,au: -1.510088836493  -0.002406479484 
 E6   /kcal   :  -0.989596359 
 E8   /kcal   :  -0.520492477 
 % E8         :  34.467672685 

-------------------------   ----------------
Dispersion correction           -0.002406479
-------------------------   ----------------


-------------------------   --------------------
FINAL SINGLE POINT ENERGY      -153.622188037249
-------------------------   --------------------



           ************************************************************
           *        Program running with 8 parallel MPI-processes     *
           *              working on a common directory               *
           ************************************************************
------------------------------------------------------------------------------
                         ORCA SCF GRADIENT CALCULATION
------------------------------------------------------------------------------

 ... reading COSX grid (gridx3)
Gradient of the Kohn-Sham DFT energy:
Kohn-Sham wavefunction type      ... RKS
Hartree-Fock exchange scaling    ...    0.250
Number of operators              ...    1
Number of atoms                  ...    7
Basis set dimensions             ...  117
Integral neglect threshold       ... 2.5e-11
Integral primitive cutoff        ... 2.5e-12
SHARK Integral package           ... ON

Nuc. rep. gradient       (SHARK) ... done (  0.0 sec)
HCore & Overlap gradient (SHARK) ... done (  0.0 sec)
RI-J gradient            (SHARK) ... done (  0.2 sec)
COSX-gradient                    ... done (  0.3 sec)
Exchange-correlation gradient    ... done
Dispersion correction            ... done

------------------
CARTESIAN GRADIENT
------------------

   1   O   :   -0.060886666    0.040422315   -0.004536772
   2   C   :    0.190746400   -0.009124520   -0.009183332
   3   C   :   -0.172744758   -0.025524308    0.015106359
   4   H   :   -0.014078062    0.009440040    0.024583062
   5   H   :   -0.005252704    0.016335729   -0.016552910
   6   H   :    0.027097182   -0.016271430   -0.017788183
   7   H   :    0.035250297   -0.015108047    0.008347172

Difference to translation invariance:
           :    0.0001316883    0.0001697803   -0.0000246034

Difference to rotation invariance:
           :    0.0000295144   -0.0000140047   -0.0001582630

Norm of the cartesian gradient     ...    0.2773985974
RMS gradient                       ...    0.0605333367
MAX gradient                       ...    0.1907463996

-------
TIMINGS
-------

Total SCF gradient time            ...        0.849 sec

One electron gradient       ....       0.014 sec  (  1.7%)
RI-J Coulomb gradient       ....       0.158 sec  ( 18.6%)
COSX gradient               ....       0.327 sec  ( 38.5%)
XC gradient                 ....       0.148 sec  ( 17.5%)

Maximum memory used throughout the entire SCFGRAD-calculation: 35.9 MB

                            ***************************************
                            *     ORCA property calculations      *
                            ***************************************

                                    ---------------------
                                    Active property flags
                                    ---------------------
   (+) Dipole Moment


------------------------------------------------------------------------------
                       ORCA ELECTRIC PROPERTIES CALCULATION
------------------------------------------------------------------------------

Dipole Moment Calculation                       ... on
Quadrupole Moment Calculation                   ... off
Polarizability Calculation                      ... off
GBWName                                         ... ox_gs_B_orca0001.gbw
Electron density                                ... ox_gs_B_orca0001.scfp
The origin for moment calculation is the CENTER OF MASS  = (-0.196393,  0.022053  0.066271)

-------------
DIPOLE MOMENT
-------------
                                X             Y             Z
Electronic contribution:     -0.30802       1.54406       0.07357
Nuclear contribution   :      0.53585      -2.49380      -0.07539
                        -----------------------------------------
Total Dipole Moment    :      0.22783      -0.94975      -0.00182
                        -----------------------------------------
Magnitude (a.u.)       :      0.97669
Magnitude (Debye)      :      2.48255



--------------------
Rotational spectrum 
--------------------
 
Rotational constants in cm-1:     0.934058     0.647685     0.452212 
Rotational constants in MHz : 28002.360669 19417.108783 13556.988511 

 Dipole components along the rotational axes: 
x,y,z [a.u.] :    -0.891322    -0.399196    -0.010615 
x,y,z [Debye]:    -2.265561    -1.014676    -0.026980 

 

Timings for individual modules:

Sum of individual times         ...        4.926 sec (=   0.082 min)
GTO integral calculation        ...        0.703 sec (=   0.012 min)  14.3 %
SCF iterations                  ...        3.084 sec (=   0.051 min)  62.6 %
SCF Gradient evaluation         ...        1.139 sec (=   0.019 min)  23.1 %
                             ****ORCA TERMINATED NORMALLY****
TOTAL RUN TIME: 0 days 0 hours 0 minutes 5 seconds 537 msec
