
                                 *****************
                                 * O   R   C   A *
                                 *****************

                                            #,                                       
                                            ###                                      
                                            ####                                     
                                            #####                                    
                                            ######                                   
                                           ########,                                 
                                     ,,################,,,,,                         
                               ,,#################################,,                 
                          ,,##########################################,,             
                       ,#########################################, ''#####,          
                    ,#############################################,,   '####,        
                  ,##################################################,,,,####,       
                ,###########''''           ''''###############################       
              ,#####''   ,,,,##########,,,,          '''####'''          '####       
            ,##' ,,,,###########################,,,                        '##       
           ' ,,###''''                  '''############,,,                           
         ,,##''                                '''############,,,,        ,,,,,,###''
      ,#''                                            '''#######################'''  
     '                                                          ''''####''''         
             ,#######,   #######,   ,#######,      ##                                
            ,#'     '#,  ##    ##  ,#'     '#,    #''#        ######   ,####,        
            ##       ##  ##   ,#'  ##            #'  '#       #        #'  '#        
            ##       ##  #######   ##           ,######,      #####,   #    #        
            '#,     ,#'  ##    ##  '#,     ,#' ,#      #,         ##   #,  ,#        
             '#######'   ##     ##  '#######'  #'      '#     #####' # '####'        



                  #######################################################
                  #                        -***-                        #
                  #          Department of theory and spectroscopy      #
                  #    Directorship and core code : Frank Neese         #
                  #        Max Planck Institute fuer Kohlenforschung    #
                  #                Kaiser Wilhelm Platz 1               #
                  #                 D-45470 Muelheim/Ruhr               #
                  #                      Germany                        #
                  #                                                     #
                  #                  All rights reserved                #
                  #                        -***-                        #
                  #######################################################


                         Program Version 5.0.2 -  RELEASE  -


 With contributions from (in alphabetic order):
   Daniel Aravena         : Magnetic Suceptibility
   Michael Atanasov       : Ab Initio Ligand Field Theory (pilot matlab implementation)
   Alexander A. Auer      : GIAO ZORA, VPT2 properties, NMR spectrum
   Ute Becker             : Parallelization
   Giovanni Bistoni       : ED, misc. LED, open-shell LED, HFLD
   Martin Brehm           : Molecular dynamics
   Dmytro Bykov           : SCF Hessian
   Vijay G. Chilkuri      : MRCI spin determinant printing, contributions to CSF-ICE
   Dipayan Datta          : RHF DLPNO-CCSD density
   Achintya Kumar Dutta   : EOM-CC, STEOM-CC
   Dmitry Ganyushin       : Spin-Orbit,Spin-Spin,Magnetic field MRCI
   Miquel Garcia          : C-PCM and meta-GGA Hessian, CC/C-PCM, Gaussian charge scheme
   Yang Guo               : DLPNO-NEVPT2, F12-NEVPT2, CIM, IAO-localization
   Andreas Hansen         : Spin unrestricted coupled pair/coupled cluster methods
   Benjamin Helmich-Paris : MC-RPA, TRAH-SCF, COSX integrals
   Lee Huntington         : MR-EOM, pCC
   Robert Izsak           : Overlap fitted RIJCOSX, COSX-SCS-MP3, EOM
   Marcus Kettner         : VPT2
   Christian Kollmar      : KDIIS, OOCD, Brueckner-CCSD(T), CCSD density, CASPT2, CASPT2-K
   Simone Kossmann        : Meta GGA functionals, TD-DFT gradient, OOMP2, MP2 Hessian
   Martin Krupicka        : Initial AUTO-CI
   Lucas Lang             : DCDCAS
   Marvin Lechner         : AUTO-CI (C++ implementation), FIC-MRCC
   Dagmar Lenk            : GEPOL surface, SMD
   Dimitrios Liakos       : Extrapolation schemes; Compound Job, initial MDCI parallelization
   Dimitrios Manganas     : Further ROCIS development; embedding schemes
   Dimitrios Pantazis     : SARC Basis sets
   Anastasios Papadopoulos: AUTO-CI, single reference methods and gradients
   Taras Petrenko         : DFT Hessian,TD-DFT gradient, ASA, ECA, R-Raman, ABS, FL, XAS/XES, NRVS
   Peter Pinski           : DLPNO-MP2, DLPNO-MP2 Gradient
   Christoph Reimann      : Effective Core Potentials
   Marius Retegan         : Local ZFS, SOC
   Christoph Riplinger    : Optimizer, TS searches, QM/MM, DLPNO-CCSD(T), (RO)-DLPNO pert. Triples
   Tobias Risthaus        : Range-separated hybrids, TD-DFT gradient, RPA, STAB
   Michael Roemelt        : Original ROCIS implementation
   Masaaki Saitow         : Open-shell DLPNO-CCSD energy and density
   Barbara Sandhoefer     : DKH picture change effects
   Avijit Sen             : IP-ROCIS
   Kantharuban Sivalingam : CASSCF convergence, NEVPT2, FIC-MRCI
   Bernardo de Souza      : ESD, SOC TD-DFT
   Georgi Stoychev        : AutoAux, RI-MP2 NMR, DLPNO-MP2 response
   Willem Van den Heuvel  : Paramagnetic NMR
   Boris Wezisla          : Elementary symmetry handling
   Frank Wennmohs         : Technical directorship


 We gratefully acknowledge several colleagues who have allowed us to
 interface, adapt or use parts of their codes:
   Stefan Grimme, W. Hujo, H. Kruse, P. Pracht,  : VdW corrections, initial TS optimization,
                  C. Bannwarth, S. Ehlert          DFT functionals, gCP, sTDA/sTD-DF
   Ed Valeev, F. Pavosevic, A. Kumar             : LibInt (2-el integral package), F12 methods
   Garnet Chan, S. Sharma, J. Yang, R. Olivares  : DMRG
   Ulf Ekstrom                                   : XCFun DFT Library
   Mihaly Kallay                                 : mrcc  (arbitrary order and MRCC methods)
   Jiri Pittner, Ondrej Demel                    : Mk-CCSD
   Frank Weinhold                                : gennbo (NPA and NBO analysis)
   Christopher J. Cramer and Donald G. Truhlar   : smd solvation model
   Lars Goerigk                                  : TD-DFT with DH, B97 family of functionals
   V. Asgeirsson, H. Jonsson                     : NEB implementation
   FAccTs GmbH                                   : IRC, NEB, NEB-TS, DLPNO-Multilevel, CI-OPT
                                                   MM, QMMM, 2- and 3-layer-ONIOM, Crystal-QMMM,
                                                   LR-CPCM, SF, NACMEs, symmetry and pop. for TD-DFT,
                                                   nearIR, NL-DFT gradient (VV10), updates on ESD,
                                                   ML-optimized integration grids
   S Lehtola, MJT Oliveira, MAL Marques          : LibXC Library
   Liviu Ungur et al                             : ANISO software


 Your calculation uses the libint2 library for the computation of 2-el integrals
 For citations please refer to: http://libint.valeyev.net

 Your ORCA version has been built with support for libXC version: 5.1.0
 For citations please refer to: https://tddft.org/programs/libxc/

 This ORCA versions uses:
   CBLAS   interface :  Fast vector & matrix operations
   LAPACKE interface :  Fast linear algebra routines
   SCALAPACK package :  Parallel linear algebra routines
   Shared memory     :  Shared parallel matrices
   BLAS/LAPACK       :  OpenBLAS 0.3.15  USE64BITINT DYNAMIC_ARCH NO_AFFINITY SkylakeX SINGLE_THREADED
        Core in use  :  SkylakeX
   Copyright (c) 2011-2014, The OpenBLAS Project


Your calculation utilizes the atom-pairwise dispersion correction
with the Becke-Johnson damping scheme (D3BJ)
Cite in your paper:
S.Grimme, S.Ehrlich, L.Goerigk, J Comput Chem, (2011), 32, 1456–1465 
S.Grimme, J.Antony, S.Ehrlich and H.Krieg, J.Chem.Phys., 132, (2010), 154104 
   

================================================================================

----- Orbital basis set information -----
Your calculation utilizes the basis: def2-TZVP
   F. Weigend and R. Ahlrichs, Phys. Chem. Chem. Phys. 7, 3297 (2005).

----- AuxJ basis set information -----
Your calculation utilizes the auxiliary basis: def2/J
   F. Weigend, Phys. Chem. Chem. Phys. 8, 1057 (2006).

================================================================================
                                        WARNINGS
                       Please study these warnings very carefully!
================================================================================


INFO   : the flag for use of the SHARK integral package has been found!

================================================================================
                                       INPUT FILE
================================================================================
NAME = ox_gs_F_orca0003.inp
|  1> ! engrad PBE0 D3BJ def2-TZVP  
|  2> %pal nprocs 8 end
|  3> %maxcore 3000
|  4>  
|  5> *xyz 0 1 
|  6> O   -1.2166595264099314 0.8949308530570428 -0.12563071611591672
|  7> C   -0.5937539647015689 -0.41783796096182646 0.01693908742960556
|  8> C   0.7633396104134093 -0.3620030562270792 -0.022063362124725053
|  9> H   -1.248098239984935 -0.6364559306272866 0.9243147889038454
| 10> H   -1.2697123515083701 -0.7320645817282162 -0.8746384219156441
| 11> H   1.2641259508883416 -0.7108760419550497 -0.8949968481778707
| 12> H   1.1881824067139126 -0.5680562783512181 0.9829174542895165
| 13> *
| 14> 
| 15>                          ****END OF INPUT****
================================================================================

                     *******************************
                     * Energy+Gradient Calculation *
                     *******************************

---------------------------------
CARTESIAN COORDINATES (ANGSTROEM)
---------------------------------
  O     -1.216660    0.894931   -0.125631
  C     -0.593754   -0.417838    0.016939
  C      0.763340   -0.362003   -0.022063
  H     -1.248098   -0.636456    0.924315
  H     -1.269712   -0.732065   -0.874638
  H      1.264126   -0.710876   -0.894997
  H      1.188182   -0.568056    0.982917

----------------------------
CARTESIAN COORDINATES (A.U.)
----------------------------
  NO LB      ZA    FRAG     MASS         X           Y           Z
   0 O     8.0000    0    15.999   -2.299153    1.691174   -0.237408
   1 C     6.0000    0    12.011   -1.122032   -0.789599    0.032010
   2 C     6.0000    0    12.011    1.442503   -0.684087   -0.041694
   3 H     1.0000    0     1.008   -2.358564   -1.202727    1.746702
   4 H     1.0000    0     1.008   -2.399409   -1.383402   -1.652827
   5 H     1.0000    0     1.008    2.388852   -1.343361   -1.691299
   6 H     1.0000    0     1.008    2.245339   -1.073471    1.857445

--------------------------------
INTERNAL COORDINATES (ANGSTROEM)
--------------------------------
 O      0   0   0     0.000000000000     0.00000000     0.00000000
 C      1   0   0     1.460034056709     0.00000000     0.00000000
 C      2   1   0     1.358801567292   112.72769465     0.00000000
 H      2   1   3     1.139864426536    90.30174326   131.08146550
 H      2   1   3     1.162139649553    85.41406701   234.09939008
 H      3   2   1     1.065134822476   118.66166304   253.50801313
 H      3   2   1     1.110376410627   110.39719630   109.16519565

---------------------------
INTERNAL COORDINATES (A.U.)
---------------------------
 O      0   0   0     0.000000000000     0.00000000     0.00000000
 C      1   0   0     2.759064513378     0.00000000     0.00000000
 C      2   1   0     2.567762832526   112.72769465     0.00000000
 H      2   1   3     2.154031595953    90.30174326   131.08146550
 H      2   1   3     2.196125667026    85.41406701   234.09939008
 H      3   2   1     2.012813110182   118.66166304   253.50801313
 H      3   2   1     2.098307321651   110.39719630   109.16519565

---------------------
BASIS SET INFORMATION
---------------------
There are 3 groups of distinct atoms

 Group   1 Type O   : 11s6p2d1f contracted to 5s3p2d1f pattern {62111/411/11/1}
 Group   2 Type C   : 11s6p2d1f contracted to 5s3p2d1f pattern {62111/411/11/1}
 Group   3 Type H   : 5s1p contracted to 3s1p pattern {311/1}

Atom   0O    basis set group =>   1
Atom   1C    basis set group =>   2
Atom   2C    basis set group =>   2
Atom   3H    basis set group =>   3
Atom   4H    basis set group =>   3
Atom   5H    basis set group =>   3
Atom   6H    basis set group =>   3
---------------------------------
AUXILIARY/J BASIS SET INFORMATION
---------------------------------
There are 3 groups of distinct atoms

 Group   1 Type O   : 12s5p4d2f1g contracted to 6s4p3d1f1g pattern {711111/2111/211/2/1}
 Group   2 Type C   : 12s5p4d2f1g contracted to 6s4p3d1f1g pattern {711111/2111/211/2/1}
 Group   3 Type H   : 5s2p1d contracted to 3s1p1d pattern {311/2/1}

Atom   0O    basis set group =>   1
Atom   1C    basis set group =>   2
Atom   2C    basis set group =>   2
Atom   3H    basis set group =>   3
Atom   4H    basis set group =>   3
Atom   5H    basis set group =>   3
Atom   6H    basis set group =>   3


           ************************************************************
           *        Program running with 8 parallel MPI-processes     *
           *              working on a common directory               *
           ************************************************************
------------------------------------------------------------------------------
                           ORCA GTO INTEGRAL CALCULATION
                           -- RI-GTO INTEGRALS CHOSEN --
------------------------------------------------------------------------------
------------------------------------------------------------------------------
                   ___                                                        
                  /   \      - P O W E R E D   B Y -                         
                 /     \                                                     
                 |  |  |   _    _      __       _____    __    __             
                 |  |  |  | |  | |    /  \     |  _  \  |  |  /  |          
                  \  \/   | |  | |   /    \    | | | |  |  | /  /          
                 / \  \   | |__| |  /  /\  \   | |_| |  |  |/  /          
                |  |  |   |  __  | /  /__\  \  |    /   |      \           
                |  |  |   | |  | | |   __   |  |    \   |  |\   \          
                \     /   | |  | | |  |  |  |  | |\  \  |  | \   \       
                 \___/    |_|  |_| |__|  |__|  |_| \__\ |__|  \__/        
                                                                              
                      - O R C A' S   B I G   F R I E N D -                    
                                      &                                       
                       - I N T E G R A L  F E E D E R -                       
                                                                              
 v1 FN, 2020, v2 2021                                                         
------------------------------------------------------------------------------


Reading SHARK input file ox_gs_F_orca0003.SHARKINP.tmp ... ok
----------------------
SHARK INTEGRAL PACKAGE
----------------------

Number of atoms                             ...      7
Number of basis functions                   ...    117
Number of shells                            ...     49
Maximum angular momentum                    ...      3
Integral batch strategy                     ... SHARK/LIBINT Hybrid
RI-J (if used) integral strategy            ... SPLIT-RIJ (Revised 2003 algorithm where possible)
Printlevel                                  ...      1
Contraction scheme used                     ... SEGMENTED contraction
Coulomb Range Separation                    ... NOT USED
Exchange Range Separation                   ... NOT USED
Finite Nucleus Model                        ... NOT USED
Auxiliary Coulomb fitting basis             ... AVAILABLE
   # of basis functions in Aux-J            ...    191
   # of shells in Aux-J                     ...     65
   Maximum angular momentum in Aux-J        ...      4
Auxiliary J/K fitting basis                 ... NOT available
Auxiliary Correlation fitting basis         ... NOT available
Auxiliary 'external' fitting basis          ... NOT available
Integral threshold                          ...     2.500000e-11
Primitive cut-off                           ...     2.500000e-12
Primitive pair pre-selection threshold      ...     2.500000e-12

Calculating pre-screening integrals         ... done (  0.0 sec) Dimension = 49
Organizing shell pair data                  ... done (  0.0 sec)
Shell pair information
Total number of shell pairs                 ...      1225
Shell pairs after pre-screening             ...      1213
Total number of primitive shell pairs       ...      3648
Primitive shell pairs kept                  ...      3079
          la=0 lb=0:    367 shell pairs
          la=1 lb=0:    351 shell pairs
          la=1 lb=1:     91 shell pairs
          la=2 lb=0:    161 shell pairs
          la=2 lb=1:     78 shell pairs
          la=2 lb=2:     21 shell pairs
          la=3 lb=0:     81 shell pairs
          la=3 lb=1:     39 shell pairs
          la=3 lb=2:     18 shell pairs
          la=3 lb=3:      6 shell pairs

Calculating one electron integrals          ... done (  0.0 sec)
Calculating RI/J V-Matrix + Cholesky decomp.... done (  0.0 sec)
Calculating Nuclear repulsion               ... done (  0.0 sec) ENN=     68.284425576218 Eh

SHARK setup successfully completed in   0.2 seconds

Maximum memory used throughout the entire GTOINT-calculation: 14.9 MB


           ************************************************************
           *        Program running with 8 parallel MPI-processes     *
           *              working on a common directory               *
           ************************************************************
-------------------------------------------------------------------------------
                                 ORCA SCF
-------------------------------------------------------------------------------

------------
SCF SETTINGS
------------
Hamiltonian:
 Density Functional     Method          .... DFT(GTOs)
 Exchange Functional    Exchange        .... PBE
   PBE kappa parameter   XKappa         ....  0.804000
   PBE mue parameter    XMuePBE         ....  0.219520
 Correlation Functional Correlation     .... PBE
   PBE beta parameter  CBetaPBE         ....  0.066725
 LDA part of GGA corr.  LDAOpt          .... PW91-LDA
 Gradients option       PostSCFGGA      .... off
 Hybrid DFT is turned on
   Fraction HF Exchange ScalHFX         ....  0.250000
   Scaling of DF-GGA-X  ScalDFX         ....  0.750000
   Scaling of DF-GGA-C  ScalDFC         ....  1.000000
   Scaling of DF-LDA-C  ScalLDAC        ....  1.000000
   Perturbative correction              ....  0.000000
   Density functional embedding theory  .... OFF
   NL short-range parameter             ....  6.900000
 RI-approximation to the Coulomb term is turned on
   Number of AuxJ basis functions       .... 191
   RIJ-COSX (HFX calculated with COS-X)).... on


General Settings:
 Integral files         IntName         .... ox_gs_F_orca0003
 Hartree-Fock type      HFTyp           .... RHF
 Total Charge           Charge          ....    0
 Multiplicity           Mult            ....    1
 Number of Electrons    NEL             ....   24
 Basis Dimension        Dim             ....  117
 Nuclear Repulsion      ENuc            ....     68.2844255762 Eh

Convergence Acceleration:
 DIIS                   CNVDIIS         .... on
   Start iteration      DIISMaxIt       ....    12
   Startup error        DIISStart       ....  0.200000
   # of expansion vecs  DIISMaxEq       ....     5
   Bias factor          DIISBfac        ....   1.050
   Max. coefficient     DIISMaxC        ....  10.000
 Trust-Rad. Augm. Hess. CNVTRAH         .... auto
   Auto Start mean grad. ratio tolernc. ....  1.125000
   Auto Start start iteration           ....    20
   Auto Start num. interpolation iter.  ....    10
   Max. Number of Micro iterations      ....    16
   Max. Number of Macro iterations      .... Maxiter - #DIIS iter
   Number of Davidson start vectors     ....     2
   Converg. threshold I  (grad. norm)   ....   1.000e-05
   Converg. threshold II (energy diff.) ....   1.000e-08
   Grad. Scal. Fac. for Micro threshold ....   0.100
   Minimum threshold for Micro iter.    ....   0.010
   NR start threshold (gradient norm)   ....   0.001
   Initial trust radius                 ....   0.400
   Minimum AH scaling param. (alpha)    ....   1.000
   Maximum AH scaling param. (alpha)    .... 1000.000
   Orbital update algorithm             .... Taylor
   White noise on init. David. guess    .... on
   Maximum white noise                  ....   0.010
   Quad. conv. algorithm                .... NR
 SOSCF                  CNVSOSCF        .... on
   Start iteration      SOSCFMaxIt      ....   150
   Startup grad/error   SOSCFStart      ....  0.003300
 Level Shifting         CNVShift        .... on
   Level shift para.    LevelShift      ....    0.2500
   Turn off err/grad.   ShiftErr        ....    0.0010
 Zerner damping         CNVZerner       .... off
 Static damping         CNVDamp         .... on
   Fraction old density DampFac         ....    0.7000
   Max. Damping (<1)    DampMax         ....    0.9800
   Min. Damping (>=0)   DampMin         ....    0.0000
   Turn off err/grad.   DampErr         ....    0.1000
 Fernandez-Rico         CNVRico         .... off

SCF Procedure:
 Maximum # iterations   MaxIter         ....   125
 SCF integral mode      SCFMode         .... Direct
   Integral package                     .... SHARK and LIBINT hybrid scheme
 Reset frequency        DirectResetFreq ....    20
 Integral Threshold     Thresh          ....  2.500e-11 Eh
 Primitive CutOff       TCut            ....  2.500e-12 Eh

Convergence Tolerance:
 Convergence Check Mode ConvCheckMode   .... Total+1el-Energy
 Convergence forced     ConvForced      .... 0
 Energy Change          TolE            ....  1.000e-08 Eh
 1-El. energy change                    ....  1.000e-05 Eh
 Orbital Gradient       TolG            ....  1.000e-05
 Orbital Rotation angle TolX            ....  1.000e-05
 DIIS Error             TolErr          ....  5.000e-07


Diagonalization of the overlap matrix:
Smallest eigenvalue                        ... 2.330e-04
Time for diagonalization                   ...    0.020 sec
Threshold for overlap eigenvalues          ... 1.000e-08
Number of eigenvalues below threshold      ... 0
Time for construction of square roots      ...    0.003 sec
Total time needed                          ...    0.023 sec

Time for model grid setup =    0.041 sec

------------------------------
INITIAL GUESS: MODEL POTENTIAL
------------------------------
Loading Hartree-Fock densities                     ... done
Calculating cut-offs                               ... done
Initializing the effective Hamiltonian             ... done
Setting up the integral package (SHARK)            ... done
Starting the Coulomb interaction                   ... done (   0.0 sec)
Reading the grid                                   ... done
Mapping shells                                     ... done
Starting the XC term evaluation                    ... done (   0.0 sec)
  promolecular density results
     # of electrons  =     23.997184080
     EX              =    -19.461044586
     EC              =     -0.766551090
     EX+EC           =    -20.227595675
Transforming the Hamiltonian                       ... done (   0.0 sec)
Diagonalizing the Hamiltonian                      ... done (   0.0 sec)
Back transforming the eigenvectors                 ... done (   0.0 sec)
Now organizing SCF variables                       ... done
                      ------------------
                      INITIAL GUESS DONE (   0.1 sec)
                      ------------------
-------------------
DFT GRID GENERATION
-------------------

General Integration Accuracy     IntAcc      ... 4.388
Radial Grid Type                 RadialGrid  ... OptM3 with GC (2021)
Angular Grid (max. ang.)         AngularGrid ... 4 (Lebedev-302)
Angular grid pruning method      GridPruning ... 4 (adaptive)
Weight generation scheme         WeightScheme... Becke
Basis function cutoff            BFCut       ... 1.0000e-11
Integration weight cutoff        WCut        ... 1.0000e-14
Angular grids for H and He will be reduced by one unit
Partially contracted basis set               ... off
Rotationally invariant grid construction     ... off

Total number of grid points                  ...    31330
Total number of batches                      ...      493
Average number of points per batch           ...       63
Average number of grid points per atom       ...     4476
Time for grid setup =    0.110 sec

--------------------
COSX GRID GENERATION
--------------------

GRIDX 1
-------
General Integration Accuracy     IntAcc      ... 3.816
Radial Grid Type                 RadialGrid  ... OptM3 with GC (2021)
Angular Grid (max. ang.)         AngularGrid ... 1 (Lebedev-50)
Angular grid pruning method      GridPruning ... 4 (adaptive)
Weight generation scheme         WeightScheme... Becke
Basis function cutoff            BFCut       ... 1.0000e-11
Integration weight cutoff        WCut        ... 1.0000e-14
Angular grids for H and He will be reduced by one unit
Partially contracted basis set               ... on
Rotationally invariant grid construction     ... off

Total number of grid points                  ...     4038
Total number of batches                      ...       66
Average number of points per batch           ...       61
Average number of grid points per atom       ...      577
UseSFitting                                  ... on

GRIDX 2
-------
General Integration Accuracy     IntAcc      ... 4.020
Radial Grid Type                 RadialGrid  ... OptM3 with GC (2021)
Angular Grid (max. ang.)         AngularGrid ... 2 (Lebedev-110)
Angular grid pruning method      GridPruning ... 4 (adaptive)
Weight generation scheme         WeightScheme... Becke
Basis function cutoff            BFCut       ... 1.0000e-11
Integration weight cutoff        WCut        ... 1.0000e-14
Angular grids for H and He will be reduced by one unit
Partially contracted basis set               ... on
Rotationally invariant grid construction     ... off

Total number of grid points                  ...     8740
Total number of batches                      ...      140
Average number of points per batch           ...       62
Average number of grid points per atom       ...     1249
UseSFitting                                  ... on

GRIDX 3
-------
General Integration Accuracy     IntAcc      ... 4.338
Radial Grid Type                 RadialGrid  ... OptM3 with GC (2021)
Angular Grid (max. ang.)         AngularGrid ... 3 (Lebedev-194)
Angular grid pruning method      GridPruning ... 4 (adaptive)
Weight generation scheme         WeightScheme... Becke
Basis function cutoff            BFCut       ... 1.0000e-11
Integration weight cutoff        WCut        ... 1.0000e-14
Angular grids for H and He will be reduced by one unit
Partially contracted basis set               ... on
Rotationally invariant grid construction     ... off

Total number of grid points                  ...    19272
Total number of batches                      ...      304
Average number of points per batch           ...       63
Average number of grid points per atom       ...     2753
UseSFitting                                  ... on

Time for X-Grid setup             =    0.073 sec

--------------
SCF ITERATIONS
--------------
ITER       Energy         Delta-E        Max-DP      RMS-DP      [F,P]     Damp
               ***  Starting incremental Fock matrix formation  ***
  0   -153.2623242225   0.000000000000 0.09765661  0.00357719  0.3631130 0.7000
  1   -153.3815124762  -0.119188253685 0.05532110  0.00182119  0.0803803 0.7000
                               ***Turning on DIIS***
  2   -153.3917601853  -0.010247709075 0.05285726  0.00254597  0.0706091 0.0000
  3   -153.4710888448  -0.079328659578 0.03059440  0.00137352  0.0387933 0.0000
  4   -153.4758982134  -0.004809368559 0.01006336  0.00038283  0.0402819 0.0000
  5   -153.4783575164  -0.002459303045 0.00464750  0.00019100  0.0114308 0.0000
  6   -153.4787285693  -0.000371052829 0.00237862  0.00011342  0.0034086 0.0000
                      *** Initiating the SOSCF procedure ***
                           *** Shutting down DIIS ***
                      *** Re-Reading the Fockian *** 
                      *** Removing any level shift *** 
ITER      Energy       Delta-E        Grad      Rot      Max-DP    RMS-DP
  7   -153.47885149  -0.0001229200  0.002729  0.002729  0.002073  0.000095
               *** Restarting incremental Fock matrix formation ***
  8   -153.47896776  -0.0001162664  0.002561  0.039746  0.009499  0.000420
  9   -153.47938449  -0.0004167391  0.002077  0.546941  0.157452  0.005788
 10   -153.45507569   0.0243088096  0.055375  0.492387  0.147410  0.005239
 11   -153.47960140  -0.0245257140  0.006036  0.023884  0.012438  0.000509
 12   -153.47906132   0.0005400831  0.008093  0.037969  0.018597  0.000568
 13   -153.48020986  -0.0011485473  0.001836  0.036216  0.012190  0.000446
 14   -153.48046263  -0.0002527623  0.001690  0.092219  0.031185  0.001142
 15   -153.48051611  -0.0000534816  0.003402  0.047960  0.014742  0.000566
 16   -153.48066661  -0.0001504999  0.000306  0.008645  0.003607  0.000126
 17   -153.48067963  -0.0000130184  0.000250  0.005592  0.002313  0.000075
 18   -153.48068243  -0.0000028093  0.000153  0.001105  0.000275  0.000015
 19   -153.48068280  -0.0000003669  0.000064  0.000485  0.000182  0.000006
 20   -153.48068293  -0.0000001277  0.000009  0.000078  0.000032  0.000001
 21   -153.48068293  -0.0000000026  0.000004  0.000012  0.000008  0.000000
                 **** Energy Check signals convergence ****
              ***Rediagonalizing the Fockian in SOSCF/NRSCF***

               *****************************************************
               *                     SUCCESS                       *
               *           SCF CONVERGED AFTER  22 CYCLES          *
               *****************************************************

Old exchange energy                            =     -4.950153484 Eh
New exchange energy                            =     -4.950163665 Eh
Exchange energy change after final integration =     -0.000010182 Eh
Total energy after final integration           =   -153.480693114 Eh
Final COS-X integration done in                =     0.246 sec

----------------
TOTAL SCF ENERGY
----------------

Total Energy       :         -153.48069311 Eh           -4176.42198 eV

Components:
Nuclear Repulsion  :           68.28442558 Eh            1858.11368 eV
Electronic Energy  :         -221.76511869 Eh           -6034.53567 eV
One Electron Energy:         -343.38734969 Eh           -9344.04483 eV
Two Electron Energy:          121.62223100 Eh            3309.50916 eV
Max COSX asymmetry :            0.00000159 Eh               0.00004 eV

Virial components:
Potential Energy   :         -306.38264209 Eh           -8337.09554 eV
Kinetic Energy     :          152.90194897 Eh            4160.67356 eV
Virial Ratio       :            2.00378507


DFT components:
N(Alpha)           :       12.000003202427 electrons
N(Beta)            :       12.000003202427 electrons
N(Total)           :       24.000006404854 electrons
E(X)               :      -14.879154891857 Eh       
E(C)               :       -0.772119981659 Eh       
E(XC)              :      -15.651274873517 Eh       
DFET-embed. en.    :        0.000000000000 Eh       

---------------
SCF CONVERGENCE
---------------

  Last Energy change         ...   -5.4754e-10  Tolerance :   1.0000e-08
  Last MAX-Density change    ...    6.6613e-16  Tolerance :   1.0000e-07
  Last RMS-Density change    ...    1.6399e-17  Tolerance :   5.0000e-09
  Last Orbital Gradient      ...    6.4132e-07  Tolerance :   1.0000e-05
  Last Orbital Rotation      ...    3.1752e-06  Tolerance :   1.0000e-05

             **** THE GBW FILE WAS UPDATED (ox_gs_F_orca0003.gbw) ****
             **** DENSITY ox_gs_F_orca0003.scfp WAS UPDATED ****
             **** ENERGY FILE WAS UPDATED (ox_gs_F_orca0003.en.tmp) ****
             **** THE GBW FILE WAS UPDATED (ox_gs_F_orca0003.gbw) ****
             **** DENSITY ox_gs_F_orca0003.scfp WAS UPDATED ****
----------------
ORBITAL ENERGIES
----------------

  NO   OCC          E(Eh)            E(eV) 
   0   2.0000     -19.188308      -522.1404 
   1   2.0000     -10.300999      -280.3044 
   2   2.0000     -10.277405      -279.6624 
   3   2.0000      -0.980660       -26.6851 
   4   2.0000      -0.801713       -21.8157 
   5   2.0000      -0.610441       -16.6109 
   6   2.0000      -0.528641       -14.3851 
   7   2.0000      -0.492855       -13.4113 
   8   2.0000      -0.411179       -11.1888 
   9   2.0000      -0.395361       -10.7583 
  10   2.0000      -0.260112        -7.0780 
  11   2.0000      -0.234788        -6.3889 
  12   0.0000      -0.166111        -4.5201 
  13   0.0000       0.045588         1.2405 
  14   0.0000       0.066933         1.8213 
  15   0.0000       0.084901         2.3103 
  16   0.0000       0.131928         3.5899 
  17   0.0000       0.148057         4.0288 
  18   0.0000       0.176975         4.8157 
  19   0.0000       0.216172         5.8823 
  20   0.0000       0.230591         6.2747 
  21   0.0000       0.244381         6.6500 
  22   0.0000       0.257302         7.0015 
  23   0.0000       0.325013         8.8441 
  24   0.0000       0.335741         9.1360 
  25   0.0000       0.374149        10.1811 
  26   0.0000       0.395049        10.7498 
  27   0.0000       0.416173        11.3246 
  28   0.0000       0.435340        11.8462 
  29   0.0000       0.500050        13.6071 
  30   0.0000       0.511910        13.9298 
  31   0.0000       0.537072        14.6145 
  32   0.0000       0.555904        15.1269 
  33   0.0000       0.585856        15.9420 
  34   0.0000       0.674176        18.3453 
  35   0.0000       0.728562        19.8252 
  36   0.0000       0.792168        21.5560 
  37   0.0000       0.869925        23.6719 
  38   0.0000       0.875321        23.8187 
  39   0.0000       0.921210        25.0674 
  40   0.0000       0.938797        25.5460 
  41   0.0000       1.039016        28.2730 
  42   0.0000       1.101709        29.9790 
  43   0.0000       1.123271        30.5658 
  44   0.0000       1.193556        32.4783 
  45   0.0000       1.338085        36.4112 
  46   0.0000       1.421733        38.6873 
  47   0.0000       1.432191        38.9719 
  48   0.0000       1.505413        40.9644 
  49   0.0000       1.542240        41.9665 
  50   0.0000       1.570354        42.7315 
  51   0.0000       1.587352        43.1940 
  52   0.0000       1.619435        44.0671 
  53   0.0000       1.662896        45.2497 
  54   0.0000       1.714892        46.6646 
  55   0.0000       1.744613        47.4733 
  56   0.0000       1.820960        49.5508 
  57   0.0000       1.851545        50.3831 
  58   0.0000       1.877820        51.0981 
  59   0.0000       1.924876        52.3785 
  60   0.0000       1.971855        53.6569 
  61   0.0000       2.009853        54.6909 
  62   0.0000       2.173025        59.1310 
  63   0.0000       2.231411        60.7198 
  64   0.0000       2.298154        62.5359 
  65   0.0000       2.337075        63.5951 
  66   0.0000       2.365841        64.3778 
  67   0.0000       2.444729        66.5245 
  68   0.0000       2.459759        66.9334 
  69   0.0000       2.521242        68.6065 
  70   0.0000       2.539706        69.1089 
  71   0.0000       2.579743        70.1984 
  72   0.0000       2.627605        71.5008 
  73   0.0000       2.645556        71.9892 
  74   0.0000       2.733603        74.3851 
  75   0.0000       2.810438        76.4759 
  76   0.0000       2.840946        77.3061 
  77   0.0000       2.971086        80.8474 
  78   0.0000       2.994831        81.4935 
  79   0.0000       3.025934        82.3399 
  80   0.0000       3.051475        83.0348 
  81   0.0000       3.075201        83.6805 
  82   0.0000       3.100472        84.3681 
  83   0.0000       3.131581        85.2147 
  84   0.0000       3.183616        86.6306 
  85   0.0000       3.284791        89.3837 
  86   0.0000       3.356528        91.3358 
  87   0.0000       3.394814        92.3776 
  88   0.0000       3.411348        92.8275 
  89   0.0000       3.463735        94.2530 
  90   0.0000       3.551881        96.6516 
  91   0.0000       3.653443        99.4152 
  92   0.0000       3.760732       102.3347 
  93   0.0000       3.946501       107.3897 
  94   0.0000       4.002196       108.9053 
  95   0.0000       4.210974       114.5864 
  96   0.0000       4.227151       115.0266 
  97   0.0000       4.310831       117.3037 
  98   0.0000       4.468314       121.5890 
  99   0.0000       4.535759       123.4243 
 100   0.0000       4.607767       125.3837 
 101   0.0000       4.677225       127.2738 
 102   0.0000       5.201600       141.5427 
 103   0.0000       5.225012       142.1798 
 104   0.0000       5.370507       146.1389 
 105   0.0000       5.422967       147.5664 
 106   0.0000       5.688845       154.8013 
 107   0.0000       5.784544       157.4054 
 108   0.0000       5.889183       160.2528 
 109   0.0000       6.359271       173.0446 
 110   0.0000       6.381310       173.6443 
 111   0.0000       6.764009       184.0580 
 112   0.0000       6.795092       184.9038 
 113   0.0000       6.977272       189.8612 
 114   0.0000      22.004249       598.7661 
 115   0.0000      22.532128       613.1304 
 116   0.0000      43.759743      1190.7631 

                    ********************************
                    * MULLIKEN POPULATION ANALYSIS *
                    ********************************

-----------------------
MULLIKEN ATOMIC CHARGES
-----------------------
   0 O :   -0.387401
   1 C :   -0.195174
   2 C :   -0.068719
   3 H :    0.127890
   4 H :    0.206419
   5 H :    0.168002
   6 H :    0.148983
Sum of atomic charges:   -0.0000000

--------------------------------
MULLIKEN REDUCED ORBITAL CHARGES
--------------------------------
  0 O s       :     3.909172  s :     3.909172
      pz      :     1.591611  p :     4.456116
      px      :     1.488551
      py      :     1.375954
      dz2     :     0.002861  d :     0.021004
      dxz     :     0.000619
      dyz     :     0.005141
      dx2y2   :     0.005912
      dxy     :     0.006472
      f0      :     0.000098  f :     0.001109
      f+1     :     0.000068
      f-1     :     0.000160
      f+2     :     0.000097
      f-2     :     0.000086
      f+3     :     0.000376
      f-3     :     0.000225
  1 C s       :     3.230744  s :     3.230744
      pz      :     1.060360  p :     2.794272
      px      :     0.920075
      py      :     0.813836
      dz2     :     0.012022  d :     0.160145
      dxz     :     0.035601
      dyz     :     0.030429
      dx2y2   :     0.027361
      dxy     :     0.054732
      f0      :     0.001233  f :     0.010013
      f+1     :     0.001234
      f-1     :     0.000540
      f+2     :     0.001710
      f-2     :     0.000855
      f+3     :     0.001804
      f-3     :     0.002637
  2 C s       :     3.232333  s :     3.232333
      pz      :     1.030759  p :     2.779627
      px      :     1.013609
      py      :     0.735258
      dz2     :     0.006806  d :     0.052572
      dxz     :     0.023122
      dyz     :     0.002733
      dx2y2   :     0.005793
      dxy     :     0.014118
      f0      :     0.000643  f :     0.004187
      f+1     :     0.000787
      f-1     :     0.000203
      f+2     :     0.000701
      f-2     :     0.000124
      f+3     :     0.000390
      f-3     :     0.001340
  3 H s       :     0.851374  s :     0.851374
      pz      :     0.008968  p :     0.020736
      px      :     0.006816
      py      :     0.004952
  4 H s       :     0.771132  s :     0.771132
      pz      :     0.008315  p :     0.022449
      px      :     0.007858
      py      :     0.006276
  5 H s       :     0.808253  s :     0.808253
      pz      :     0.010880  p :     0.023745
      px      :     0.006923
      py      :     0.005942
  6 H s       :     0.829316  s :     0.829316
      pz      :     0.012325  p :     0.021701
      px      :     0.005455
      py      :     0.003921


                     *******************************
                     * LOEWDIN POPULATION ANALYSIS *
                     *******************************

----------------------
LOEWDIN ATOMIC CHARGES
----------------------
   0 O :   -0.115306
   1 C :   -0.469930
   2 C :   -0.038349
   3 H :    0.135051
   4 H :    0.203108
   5 H :    0.137379
   6 H :    0.148048

-------------------------------
LOEWDIN REDUCED ORBITAL CHARGES
-------------------------------
  0 O s       :     3.600256  s :     3.600256
      pz      :     1.544494  p :     4.461220
      px      :     1.455465
      py      :     1.461261
      dz2     :     0.006164  d :     0.050738
      dxz     :     0.001430
      dyz     :     0.013291
      dx2y2   :     0.015581
      dxy     :     0.014272
      f0      :     0.000336  f :     0.003092
      f+1     :     0.000140
      f-1     :     0.000415
      f+2     :     0.000317
      f-2     :     0.000251
      f+3     :     0.000826
      f-3     :     0.000808
  1 C s       :     2.826496  s :     2.826496
      pz      :     1.008038  p :     2.969763
      px      :     1.072480
      py      :     0.889245
      dz2     :     0.064884  d :     0.605198
      dxz     :     0.143418
      dyz     :     0.077715
      dx2y2   :     0.136817
      dxy     :     0.182365
      f0      :     0.007870  f :     0.068473
      f+1     :     0.007962
      f-1     :     0.005189
      f+2     :     0.009140
      f-2     :     0.006101
      f+3     :     0.017789
      f-3     :     0.014423
  2 C s       :     2.892610  s :     2.892610
      pz      :     1.045845  p :     2.873152
      px      :     1.154069
      py      :     0.673237
      dz2     :     0.032809  d :     0.242725
      dxz     :     0.116049
      dyz     :     0.010204
      dx2y2   :     0.038885
      dxy     :     0.044778
      f0      :     0.005305  f :     0.029862
      f+1     :     0.004183
      f-1     :     0.001471
      f+2     :     0.005328
      f-2     :     0.001779
      f+3     :     0.004941
      f-3     :     0.006855
  3 H s       :     0.809331  s :     0.809331
      pz      :     0.025920  p :     0.055618
      px      :     0.016786
      py      :     0.012912
  4 H s       :     0.739994  s :     0.739994
      pz      :     0.023614  p :     0.056898
      px      :     0.018107
      py      :     0.015177
  5 H s       :     0.793233  s :     0.793233
      pz      :     0.033111  p :     0.069388
      px      :     0.018999
      py      :     0.017279
  6 H s       :     0.791467  s :     0.791467
      pz      :     0.034510  p :     0.060485
      px      :     0.014710
      py      :     0.011265


                      *****************************
                      * MAYER POPULATION ANALYSIS *
                      *****************************

  NA   - Mulliken gross atomic population
  ZA   - Total nuclear charge
  QA   - Mulliken gross atomic charge
  VA   - Mayer's total valence
  BVA  - Mayer's bonded valence
  FA   - Mayer's free valence

  ATOM       NA         ZA         QA         VA         BVA        FA
  0 O      8.3874     8.0000    -0.3874     1.6535     1.6535     0.0000
  1 C      6.1952     6.0000    -0.1952     4.1159     4.1159    -0.0000
  2 C      6.0687     6.0000    -0.0687     3.7477     3.7477     0.0000
  3 H      0.8721     1.0000     0.1279     0.9675     0.9675    -0.0000
  4 H      0.7936     1.0000     0.2064     0.9579     0.9579    -0.0000
  5 H      0.8320     1.0000     0.1680     0.9625     0.9625    -0.0000
  6 H      0.8510     1.0000     0.1490     0.9717     0.9717    -0.0000

  Mayer bond orders larger than 0.100000
B(  0-O ,  1-C ) :   1.0182 B(  0-O ,  2-C ) :   0.5919 B(  1-C ,  2-C ) :   1.2358 
B(  1-C ,  3-H ) :   0.9733 B(  1-C ,  4-H ) :   0.8769 B(  2-C ,  5-H ) :   0.9363 
B(  2-C ,  6-H ) :   0.9479 

-------
TIMINGS
-------

Total SCF time: 0 days 0 hours 0 min 4 sec 

Total time                  ....       4.582 sec
Sum of individual times     ....       4.248 sec  ( 92.7%)

Fock matrix formation       ....       3.907 sec  ( 85.3%)
  Split-RI-J                ....       0.406 sec  ( 10.4% of F)
  Chain of spheres X        ....       2.657 sec  ( 68.0% of F)
  XC integration            ....       0.719 sec  ( 18.4% of F)
    Basis function eval.    ....       0.196 sec  ( 27.3% of XC)
    Density eval.           ....       0.149 sec  ( 20.8% of XC)
    XC-Functional eval.     ....       0.043 sec  (  6.0% of XC)
    XC-Potential eval.      ....       0.251 sec  ( 34.9% of XC)
Diagonalization             ....       0.018 sec  (  0.4%)
Density matrix formation    ....       0.002 sec  (  0.0%)
Population analysis         ....       0.004 sec  (  0.1%)
Initial guess               ....       0.045 sec  (  1.0%)
Orbital Transformation      ....       0.000 sec  (  0.0%)
Orbital Orthonormalization  ....       0.000 sec  (  0.0%)
DIIS solution               ....       0.015 sec  (  0.3%)
SOSCF solution              ....       0.032 sec  (  0.7%)
Grid generation             ....       0.225 sec  (  4.9%)

Maximum memory used throughout the entire SCF-calculation: 61.0 MB


-------------------------------------------------------------------------------
                          DFT DISPERSION CORRECTION                            
                                                                               
                              DFTD3 V3.1  Rev 1                                
                          USING Becke-Johnson damping                          
-------------------------------------------------------------------------------
The PBE0 functional is recognized
Active option DFTDOPT                   ...         4   

molecular C6(AA) [au] = 395.157556 


            DFT-D V3
 parameters
 s6 scaling factor         :     1.0000 
 a1 scaling factor         :     0.4145 
 s8 scaling factor         :     1.2177 
 a2 scaling factor         :     4.8593 
 ad hoc parameters k1-k3   :    16.0000     1.3333    -4.0000 

 Edisp/kcal,au: -1.644283546889  -0.002620332345 
 E6   /kcal   :  -1.073179543 
 E8   /kcal   :  -0.571104004 
 % E8         :  34.732695886 

-------------------------   ----------------
Dispersion correction           -0.002620332
-------------------------   ----------------


-------------------------   --------------------
FINAL SINGLE POINT ENERGY      -153.483313446578
-------------------------   --------------------



           ************************************************************
           *        Program running with 8 parallel MPI-processes     *
           *              working on a common directory               *
           ************************************************************
------------------------------------------------------------------------------
                         ORCA SCF GRADIENT CALCULATION
------------------------------------------------------------------------------

 ... reading COSX grid (gridx3)
Gradient of the Kohn-Sham DFT energy:
Kohn-Sham wavefunction type      ... RKS
Hartree-Fock exchange scaling    ...    0.250
Number of operators              ...    1
Number of atoms                  ...    7
Basis set dimensions             ...  117
Integral neglect threshold       ... 2.5e-11
Integral primitive cutoff        ... 2.5e-12
SHARK Integral package           ... ON

Nuc. rep. gradient       (SHARK) ... done (  0.0 sec)
HCore & Overlap gradient (SHARK) ... done (  0.0 sec)
RI-J gradient            (SHARK) ... done (  0.1 sec)
COSX-gradient                    ... done (  0.3 sec)
Exchange-correlation gradient    ... done
Dispersion correction            ... done

------------------
CARTESIAN GRADIENT
------------------

   1   O   :   -0.036888014   -0.030497602    0.021729768
   2   C   :    0.155433686   -0.012855190   -0.018139210
   3   C   :   -0.022440569    0.031250705   -0.029780065
   4   H   :   -0.033134627    0.026013070    0.008198441
   5   H   :   -0.038330496    0.017374282   -0.015872829
   6   H   :   -0.014158812   -0.022121769    0.016073386
   7   H   :   -0.010547091   -0.009076755    0.017781755

Difference to translation invariance:
           :   -0.0000659222    0.0000867425   -0.0000087555

Difference to rotation invariance:
           :    0.0000598735   -0.0000046436   -0.0001033654

Norm of the cartesian gradient     ...    0.1873681469
RMS gradient                       ...    0.0408870817
MAX gradient                       ...    0.1554336861

-------
TIMINGS
-------

Total SCF gradient time            ...        0.800 sec

One electron gradient       ....       0.013 sec  (  1.6%)
RI-J Coulomb gradient       ....       0.137 sec  ( 17.1%)
COSX gradient               ....       0.312 sec  ( 39.0%)
XC gradient                 ....       0.149 sec  ( 18.6%)

Maximum memory used throughout the entire SCFGRAD-calculation: 35.8 MB

                            ***************************************
                            *     ORCA property calculations      *
                            ***************************************

                                    ---------------------
                                    Active property flags
                                    ---------------------
   (+) Dipole Moment


------------------------------------------------------------------------------
                       ORCA ELECTRIC PROPERTIES CALCULATION
------------------------------------------------------------------------------

Dipole Moment Calculation                       ... on
Quadrupole Moment Calculation                   ... off
Polarizability Calculation                      ... off
GBWName                                         ... ox_gs_F_orca0003.gbw
Electron density                                ... ox_gs_F_orca0003.scfp
The origin for moment calculation is the CENTER OF MASS  = (-0.750454,  0.097920 -0.082911)

-------------
DIPOLE MOMENT
-------------
                                X             Y             Z
Electronic contribution:     -0.56927       1.50445      -0.18954
Nuclear contribution   :      1.41671      -2.66576       0.29253
                        -----------------------------------------
Total Dipole Moment    :      0.84745      -1.16132       0.10299
                        -----------------------------------------
Magnitude (a.u.)       :      1.44133
Magnitude (Debye)      :      3.66357



--------------------
Rotational spectrum 
--------------------
 
Rotational constants in cm-1:     1.513116     0.349685     0.320939 
Rotational constants in MHz : 45362.069808 10483.297681  9621.516331 

 Dipole components along the rotational axes: 
x,y,z [a.u.] :    -1.339461    -0.531033    -0.035718 
x,y,z [Debye]:    -3.404639    -1.349778    -0.090788 

 

Timings for individual modules:

Sum of individual times         ...        6.548 sec (=   0.109 min)
GTO integral calculation        ...        0.703 sec (=   0.012 min)  10.7 %
SCF iterations                  ...        4.813 sec (=   0.080 min)  73.5 %
SCF Gradient evaluation         ...        1.032 sec (=   0.017 min)  15.8 %
                             ****ORCA TERMINATED NORMALLY****
TOTAL RUN TIME: 0 days 0 hours 0 minutes 6 seconds 828 msec
