
                                 *****************
                                 * O   R   C   A *
                                 *****************

                                            #,                                       
                                            ###                                      
                                            ####                                     
                                            #####                                    
                                            ######                                   
                                           ########,                                 
                                     ,,################,,,,,                         
                               ,,#################################,,                 
                          ,,##########################################,,             
                       ,#########################################, ''#####,          
                    ,#############################################,,   '####,        
                  ,##################################################,,,,####,       
                ,###########''''           ''''###############################       
              ,#####''   ,,,,##########,,,,          '''####'''          '####       
            ,##' ,,,,###########################,,,                        '##       
           ' ,,###''''                  '''############,,,                           
         ,,##''                                '''############,,,,        ,,,,,,###''
      ,#''                                            '''#######################'''  
     '                                                          ''''####''''         
             ,#######,   #######,   ,#######,      ##                                
            ,#'     '#,  ##    ##  ,#'     '#,    #''#        ######   ,####,        
            ##       ##  ##   ,#'  ##            #'  '#       #        #'  '#        
            ##       ##  #######   ##           ,######,      #####,   #    #        
            '#,     ,#'  ##    ##  '#,     ,#' ,#      #,         ##   #,  ,#        
             '#######'   ##     ##  '#######'  #'      '#     #####' # '####'        



                  #######################################################
                  #                        -***-                        #
                  #          Department of theory and spectroscopy      #
                  #    Directorship and core code : Frank Neese         #
                  #        Max Planck Institute fuer Kohlenforschung    #
                  #                Kaiser Wilhelm Platz 1               #
                  #                 D-45470 Muelheim/Ruhr               #
                  #                      Germany                        #
                  #                                                     #
                  #                  All rights reserved                #
                  #                        -***-                        #
                  #######################################################


                         Program Version 5.0.2 -  RELEASE  -


 With contributions from (in alphabetic order):
   Daniel Aravena         : Magnetic Suceptibility
   Michael Atanasov       : Ab Initio Ligand Field Theory (pilot matlab implementation)
   Alexander A. Auer      : GIAO ZORA, VPT2 properties, NMR spectrum
   Ute Becker             : Parallelization
   Giovanni Bistoni       : ED, misc. LED, open-shell LED, HFLD
   Martin Brehm           : Molecular dynamics
   Dmytro Bykov           : SCF Hessian
   Vijay G. Chilkuri      : MRCI spin determinant printing, contributions to CSF-ICE
   Dipayan Datta          : RHF DLPNO-CCSD density
   Achintya Kumar Dutta   : EOM-CC, STEOM-CC
   Dmitry Ganyushin       : Spin-Orbit,Spin-Spin,Magnetic field MRCI
   Miquel Garcia          : C-PCM and meta-GGA Hessian, CC/C-PCM, Gaussian charge scheme
   Yang Guo               : DLPNO-NEVPT2, F12-NEVPT2, CIM, IAO-localization
   Andreas Hansen         : Spin unrestricted coupled pair/coupled cluster methods
   Benjamin Helmich-Paris : MC-RPA, TRAH-SCF, COSX integrals
   Lee Huntington         : MR-EOM, pCC
   Robert Izsak           : Overlap fitted RIJCOSX, COSX-SCS-MP3, EOM
   Marcus Kettner         : VPT2
   Christian Kollmar      : KDIIS, OOCD, Brueckner-CCSD(T), CCSD density, CASPT2, CASPT2-K
   Simone Kossmann        : Meta GGA functionals, TD-DFT gradient, OOMP2, MP2 Hessian
   Martin Krupicka        : Initial AUTO-CI
   Lucas Lang             : DCDCAS
   Marvin Lechner         : AUTO-CI (C++ implementation), FIC-MRCC
   Dagmar Lenk            : GEPOL surface, SMD
   Dimitrios Liakos       : Extrapolation schemes; Compound Job, initial MDCI parallelization
   Dimitrios Manganas     : Further ROCIS development; embedding schemes
   Dimitrios Pantazis     : SARC Basis sets
   Anastasios Papadopoulos: AUTO-CI, single reference methods and gradients
   Taras Petrenko         : DFT Hessian,TD-DFT gradient, ASA, ECA, R-Raman, ABS, FL, XAS/XES, NRVS
   Peter Pinski           : DLPNO-MP2, DLPNO-MP2 Gradient
   Christoph Reimann      : Effective Core Potentials
   Marius Retegan         : Local ZFS, SOC
   Christoph Riplinger    : Optimizer, TS searches, QM/MM, DLPNO-CCSD(T), (RO)-DLPNO pert. Triples
   Tobias Risthaus        : Range-separated hybrids, TD-DFT gradient, RPA, STAB
   Michael Roemelt        : Original ROCIS implementation
   Masaaki Saitow         : Open-shell DLPNO-CCSD energy and density
   Barbara Sandhoefer     : DKH picture change effects
   Avijit Sen             : IP-ROCIS
   Kantharuban Sivalingam : CASSCF convergence, NEVPT2, FIC-MRCI
   Bernardo de Souza      : ESD, SOC TD-DFT
   Georgi Stoychev        : AutoAux, RI-MP2 NMR, DLPNO-MP2 response
   Willem Van den Heuvel  : Paramagnetic NMR
   Boris Wezisla          : Elementary symmetry handling
   Frank Wennmohs         : Technical directorship


 We gratefully acknowledge several colleagues who have allowed us to
 interface, adapt or use parts of their codes:
   Stefan Grimme, W. Hujo, H. Kruse, P. Pracht,  : VdW corrections, initial TS optimization,
                  C. Bannwarth, S. Ehlert          DFT functionals, gCP, sTDA/sTD-DF
   Ed Valeev, F. Pavosevic, A. Kumar             : LibInt (2-el integral package), F12 methods
   Garnet Chan, S. Sharma, J. Yang, R. Olivares  : DMRG
   Ulf Ekstrom                                   : XCFun DFT Library
   Mihaly Kallay                                 : mrcc  (arbitrary order and MRCC methods)
   Jiri Pittner, Ondrej Demel                    : Mk-CCSD
   Frank Weinhold                                : gennbo (NPA and NBO analysis)
   Christopher J. Cramer and Donald G. Truhlar   : smd solvation model
   Lars Goerigk                                  : TD-DFT with DH, B97 family of functionals
   V. Asgeirsson, H. Jonsson                     : NEB implementation
   FAccTs GmbH                                   : IRC, NEB, NEB-TS, DLPNO-Multilevel, CI-OPT
                                                   MM, QMMM, 2- and 3-layer-ONIOM, Crystal-QMMM,
                                                   LR-CPCM, SF, NACMEs, symmetry and pop. for TD-DFT,
                                                   nearIR, NL-DFT gradient (VV10), updates on ESD,
                                                   ML-optimized integration grids
   S Lehtola, MJT Oliveira, MAL Marques          : LibXC Library
   Liviu Ungur et al                             : ANISO software


 Your calculation uses the libint2 library for the computation of 2-el integrals
 For citations please refer to: http://libint.valeyev.net

 Your ORCA version has been built with support for libXC version: 5.1.0
 For citations please refer to: https://tddft.org/programs/libxc/

 This ORCA versions uses:
   CBLAS   interface :  Fast vector & matrix operations
   LAPACKE interface :  Fast linear algebra routines
   SCALAPACK package :  Parallel linear algebra routines
   Shared memory     :  Shared parallel matrices
   BLAS/LAPACK       :  OpenBLAS 0.3.15  USE64BITINT DYNAMIC_ARCH NO_AFFINITY SkylakeX SINGLE_THREADED
        Core in use  :  SkylakeX
   Copyright (c) 2011-2014, The OpenBLAS Project


Your calculation utilizes the atom-pairwise dispersion correction
with the Becke-Johnson damping scheme (D3BJ)
Cite in your paper:
S.Grimme, S.Ehrlich, L.Goerigk, J Comput Chem, (2011), 32, 1456–1465 
S.Grimme, J.Antony, S.Ehrlich and H.Krieg, J.Chem.Phys., 132, (2010), 154104 
   

================================================================================

----- Orbital basis set information -----
Your calculation utilizes the basis: def2-TZVP
   F. Weigend and R. Ahlrichs, Phys. Chem. Chem. Phys. 7, 3297 (2005).

----- AuxJ basis set information -----
Your calculation utilizes the auxiliary basis: def2/J
   F. Weigend, Phys. Chem. Chem. Phys. 8, 1057 (2006).

================================================================================
                                        WARNINGS
                       Please study these warnings very carefully!
================================================================================


INFO   : the flag for use of the SHARK integral package has been found!

================================================================================
                                       INPUT FILE
================================================================================
NAME = ox_gs_C_orca0000.inp
|  1> ! engrad PBE0 D3BJ def2-TZVP  
|  2> %pal nprocs 8 end
|  3> %maxcore 3000
|  4>  
|  5> *xyz 0 1 
|  6> O   -0.5305756929175096 1.0358662647002923 -0.05709122020413681
|  7> C   -0.6933518464970363 -0.4214729579886196 0.05745147170727597
|  8> C   0.7019665286797279 -0.4838527442827509 -0.0037998241324467283
|  9> H   -1.2213820388901715 -0.6357816454035848 0.8914156360250105
| 10> H   -1.309530686377666 -0.674446898766428 -0.9058945442151969
| 11> H   1.3036034174247428 -0.6593011392460592 -0.8598758776866517
| 12> H   1.2824136424160617 -0.6827749889387956 0.9391547181038161
| 13> *
| 14> 
| 15>                          ****END OF INPUT****
================================================================================

                     *******************************
                     * Energy+Gradient Calculation *
                     *******************************

---------------------------------
CARTESIAN COORDINATES (ANGSTROEM)
---------------------------------
  O     -0.530576    1.035866   -0.057091
  C     -0.693352   -0.421473    0.057451
  C      0.701967   -0.483853   -0.003800
  H     -1.221382   -0.635782    0.891416
  H     -1.309531   -0.674447   -0.905895
  H      1.303603   -0.659301   -0.859876
  H      1.282414   -0.682775    0.939155

----------------------------
CARTESIAN COORDINATES (A.U.)
----------------------------
  NO LB      ZA    FRAG     MASS         X           Y           Z
   0 O     8.0000    0    15.999   -1.002643    1.957504   -0.107887
   1 C     6.0000    0    12.011   -1.310245   -0.796468    0.108568
   2 C     6.0000    0    12.011    1.326524   -0.914349   -0.007181
   3 H     1.0000    0     1.008   -2.308078   -1.201453    1.684531
   4 H     1.0000    0     1.008   -2.474654   -1.274520   -1.711893
   5 H     1.0000    0     1.008    2.463453   -1.245899   -1.624930
   6 H     1.0000    0     1.008    2.423411   -1.290258    1.774745

--------------------------------
INTERNAL COORDINATES (ANGSTROEM)
--------------------------------
 O      0   0   0     0.000000000000     0.00000000     0.00000000
 C      1   0   0     1.470868353875     0.00000000     0.00000000
 C      2   1   0     1.398054479298    86.00592335     0.00000000
 H      2   1   3     1.010069465406   109.41270777   123.93960108
 H      2   1   3     1.171199267342   102.01559148   241.54447908
 H      3   2   1     1.060950184817   127.49513027   264.15130115
 H      3   2   1     1.125012079930   119.08491198   104.42862723

---------------------------
INTERNAL COORDINATES (A.U.)
---------------------------
 O      0   0   0     0.000000000000     0.00000000     0.00000000
 C      1   0   0     2.779538367876     0.00000000     0.00000000
 C      2   1   0     2.641940086176    86.00592335     0.00000000
 H      2   1   3     1.908754665854   109.41270777   123.93960108
 H      2   1   3     2.213245863526   102.01559148   241.54447908
 H      3   2   1     2.004905291037   127.49513027   264.15130115
 H      3   2   1     2.125964728420   119.08491198   104.42862723

---------------------
BASIS SET INFORMATION
---------------------
There are 3 groups of distinct atoms

 Group   1 Type O   : 11s6p2d1f contracted to 5s3p2d1f pattern {62111/411/11/1}
 Group   2 Type C   : 11s6p2d1f contracted to 5s3p2d1f pattern {62111/411/11/1}
 Group   3 Type H   : 5s1p contracted to 3s1p pattern {311/1}

Atom   0O    basis set group =>   1
Atom   1C    basis set group =>   2
Atom   2C    basis set group =>   2
Atom   3H    basis set group =>   3
Atom   4H    basis set group =>   3
Atom   5H    basis set group =>   3
Atom   6H    basis set group =>   3
---------------------------------
AUXILIARY/J BASIS SET INFORMATION
---------------------------------
There are 3 groups of distinct atoms

 Group   1 Type O   : 12s5p4d2f1g contracted to 6s4p3d1f1g pattern {711111/2111/211/2/1}
 Group   2 Type C   : 12s5p4d2f1g contracted to 6s4p3d1f1g pattern {711111/2111/211/2/1}
 Group   3 Type H   : 5s2p1d contracted to 3s1p1d pattern {311/2/1}

Atom   0O    basis set group =>   1
Atom   1C    basis set group =>   2
Atom   2C    basis set group =>   2
Atom   3H    basis set group =>   3
Atom   4H    basis set group =>   3
Atom   5H    basis set group =>   3
Atom   6H    basis set group =>   3


           ************************************************************
           *        Program running with 8 parallel MPI-processes     *
           *              working on a common directory               *
           ************************************************************
------------------------------------------------------------------------------
                           ORCA GTO INTEGRAL CALCULATION
                           -- RI-GTO INTEGRALS CHOSEN --
------------------------------------------------------------------------------
------------------------------------------------------------------------------
                   ___                                                        
                  /   \      - P O W E R E D   B Y -                         
                 /     \                                                     
                 |  |  |   _    _      __       _____    __    __             
                 |  |  |  | |  | |    /  \     |  _  \  |  |  /  |          
                  \  \/   | |  | |   /    \    | | | |  |  | /  /          
                 / \  \   | |__| |  /  /\  \   | |_| |  |  |/  /          
                |  |  |   |  __  | /  /__\  \  |    /   |      \           
                |  |  |   | |  | | |   __   |  |    \   |  |\   \          
                \     /   | |  | | |  |  |  |  | |\  \  |  | \   \       
                 \___/    |_|  |_| |__|  |__|  |_| \__\ |__|  \__/        
                                                                              
                      - O R C A' S   B I G   F R I E N D -                    
                                      &                                       
                       - I N T E G R A L  F E E D E R -                       
                                                                              
 v1 FN, 2020, v2 2021                                                         
------------------------------------------------------------------------------


Reading SHARK input file ox_gs_C_orca0000.SHARKINP.tmp ... ok
----------------------
SHARK INTEGRAL PACKAGE
----------------------

Number of atoms                             ...      7
Number of basis functions                   ...    117
Number of shells                            ...     49
Maximum angular momentum                    ...      3
Integral batch strategy                     ... SHARK/LIBINT Hybrid
RI-J (if used) integral strategy            ... SPLIT-RIJ (Revised 2003 algorithm where possible)
Printlevel                                  ...      1
Contraction scheme used                     ... SEGMENTED contraction
Coulomb Range Separation                    ... NOT USED
Exchange Range Separation                   ... NOT USED
Finite Nucleus Model                        ... NOT USED
Auxiliary Coulomb fitting basis             ... AVAILABLE
   # of basis functions in Aux-J            ...    191
   # of shells in Aux-J                     ...     65
   Maximum angular momentum in Aux-J        ...      4
Auxiliary J/K fitting basis                 ... NOT available
Auxiliary Correlation fitting basis         ... NOT available
Auxiliary 'external' fitting basis          ... NOT available
Integral threshold                          ...     2.500000e-11
Primitive cut-off                           ...     2.500000e-12
Primitive pair pre-selection threshold      ...     2.500000e-12

Calculating pre-screening integrals         ... done (  0.0 sec) Dimension = 49
Organizing shell pair data                  ... done (  0.0 sec)
Shell pair information
Total number of shell pairs                 ...      1225
Shell pairs after pre-screening             ...      1217
Total number of primitive shell pairs       ...      3648
Primitive shell pairs kept                  ...      3105
          la=0 lb=0:    370 shell pairs
          la=1 lb=0:    351 shell pairs
          la=1 lb=1:     91 shell pairs
          la=2 lb=0:    162 shell pairs
          la=2 lb=1:     78 shell pairs
          la=2 lb=2:     21 shell pairs
          la=3 lb=0:     81 shell pairs
          la=3 lb=1:     39 shell pairs
          la=3 lb=2:     18 shell pairs
          la=3 lb=3:      6 shell pairs

Calculating one electron integrals          ... done (  0.0 sec)
Calculating RI/J V-Matrix + Cholesky decomp.... done (  0.0 sec)
Calculating Nuclear repulsion               ... done (  0.0 sec) ENN=     70.016044217573 Eh

SHARK setup successfully completed in   0.1 seconds

Maximum memory used throughout the entire GTOINT-calculation: 14.9 MB


           ************************************************************
           *        Program running with 8 parallel MPI-processes     *
           *              working on a common directory               *
           ************************************************************
-------------------------------------------------------------------------------
                                 ORCA SCF
-------------------------------------------------------------------------------

------------
SCF SETTINGS
------------
Hamiltonian:
 Density Functional     Method          .... DFT(GTOs)
 Exchange Functional    Exchange        .... PBE
   PBE kappa parameter   XKappa         ....  0.804000
   PBE mue parameter    XMuePBE         ....  0.219520
 Correlation Functional Correlation     .... PBE
   PBE beta parameter  CBetaPBE         ....  0.066725
 LDA part of GGA corr.  LDAOpt          .... PW91-LDA
 Gradients option       PostSCFGGA      .... off
 Hybrid DFT is turned on
   Fraction HF Exchange ScalHFX         ....  0.250000
   Scaling of DF-GGA-X  ScalDFX         ....  0.750000
   Scaling of DF-GGA-C  ScalDFC         ....  1.000000
   Scaling of DF-LDA-C  ScalLDAC        ....  1.000000
   Perturbative correction              ....  0.000000
   Density functional embedding theory  .... OFF
   NL short-range parameter             ....  6.900000
 RI-approximation to the Coulomb term is turned on
   Number of AuxJ basis functions       .... 191
   RIJ-COSX (HFX calculated with COS-X)).... on


General Settings:
 Integral files         IntName         .... ox_gs_C_orca0000
 Hartree-Fock type      HFTyp           .... RHF
 Total Charge           Charge          ....    0
 Multiplicity           Mult            ....    1
 Number of Electrons    NEL             ....   24
 Basis Dimension        Dim             ....  117
 Nuclear Repulsion      ENuc            ....     70.0160442176 Eh

Convergence Acceleration:
 DIIS                   CNVDIIS         .... on
   Start iteration      DIISMaxIt       ....    12
   Startup error        DIISStart       ....  0.200000
   # of expansion vecs  DIISMaxEq       ....     5
   Bias factor          DIISBfac        ....   1.050
   Max. coefficient     DIISMaxC        ....  10.000
 Trust-Rad. Augm. Hess. CNVTRAH         .... auto
   Auto Start mean grad. ratio tolernc. ....  1.125000
   Auto Start start iteration           ....    20
   Auto Start num. interpolation iter.  ....    10
   Max. Number of Micro iterations      ....    16
   Max. Number of Macro iterations      .... Maxiter - #DIIS iter
   Number of Davidson start vectors     ....     2
   Converg. threshold I  (grad. norm)   ....   1.000e-05
   Converg. threshold II (energy diff.) ....   1.000e-08
   Grad. Scal. Fac. for Micro threshold ....   0.100
   Minimum threshold for Micro iter.    ....   0.010
   NR start threshold (gradient norm)   ....   0.001
   Initial trust radius                 ....   0.400
   Minimum AH scaling param. (alpha)    ....   1.000
   Maximum AH scaling param. (alpha)    .... 1000.000
   Orbital update algorithm             .... Taylor
   White noise on init. David. guess    .... on
   Maximum white noise                  ....   0.010
   Quad. conv. algorithm                .... NR
 SOSCF                  CNVSOSCF        .... on
   Start iteration      SOSCFMaxIt      ....   150
   Startup grad/error   SOSCFStart      ....  0.003300
 Level Shifting         CNVShift        .... on
   Level shift para.    LevelShift      ....    0.2500
   Turn off err/grad.   ShiftErr        ....    0.0010
 Zerner damping         CNVZerner       .... off
 Static damping         CNVDamp         .... on
   Fraction old density DampFac         ....    0.7000
   Max. Damping (<1)    DampMax         ....    0.9800
   Min. Damping (>=0)   DampMin         ....    0.0000
   Turn off err/grad.   DampErr         ....    0.1000
 Fernandez-Rico         CNVRico         .... off

SCF Procedure:
 Maximum # iterations   MaxIter         ....   125
 SCF integral mode      SCFMode         .... Direct
   Integral package                     .... SHARK and LIBINT hybrid scheme
 Reset frequency        DirectResetFreq ....    20
 Integral Threshold     Thresh          ....  2.500e-11 Eh
 Primitive CutOff       TCut            ....  2.500e-12 Eh

Convergence Tolerance:
 Convergence Check Mode ConvCheckMode   .... Total+1el-Energy
 Convergence forced     ConvForced      .... 0
 Energy Change          TolE            ....  1.000e-08 Eh
 1-El. energy change                    ....  1.000e-05 Eh
 Orbital Gradient       TolG            ....  1.000e-05
 Orbital Rotation angle TolX            ....  1.000e-05
 DIIS Error             TolErr          ....  5.000e-07


Diagonalization of the overlap matrix:
Smallest eigenvalue                        ... 2.964e-04
Time for diagonalization                   ...    0.001 sec
Threshold for overlap eigenvalues          ... 1.000e-08
Number of eigenvalues below threshold      ... 0
Time for construction of square roots      ...    0.001 sec
Total time needed                          ...    0.003 sec

Time for model grid setup =    0.021 sec

------------------------------
INITIAL GUESS: MODEL POTENTIAL
------------------------------
Loading Hartree-Fock densities                     ... done
Calculating cut-offs                               ... done
Initializing the effective Hamiltonian             ... done
Setting up the integral package (SHARK)            ... done
Starting the Coulomb interaction                   ... done (   0.0 sec)
Reading the grid                                   ... done
Mapping shells                                     ... done
Starting the XC term evaluation                    ... done (   0.0 sec)
  promolecular density results
     # of electrons  =     23.997859156
     EX              =    -19.469338358
     EC              =     -0.768375014
     EX+EC           =    -20.237713371
Transforming the Hamiltonian                       ... done (   0.0 sec)
Diagonalizing the Hamiltonian                      ... done (   0.0 sec)
Back transforming the eigenvectors                 ... done (   0.0 sec)
Now organizing SCF variables                       ... done
                      ------------------
                      INITIAL GUESS DONE (   0.0 sec)
                      ------------------
-------------------
DFT GRID GENERATION
-------------------

General Integration Accuracy     IntAcc      ... 4.388
Radial Grid Type                 RadialGrid  ... OptM3 with GC (2021)
Angular Grid (max. ang.)         AngularGrid ... 4 (Lebedev-302)
Angular grid pruning method      GridPruning ... 4 (adaptive)
Weight generation scheme         WeightScheme... Becke
Basis function cutoff            BFCut       ... 1.0000e-11
Integration weight cutoff        WCut        ... 1.0000e-14
Angular grids for H and He will be reduced by one unit
Partially contracted basis set               ... off
Rotationally invariant grid construction     ... off

Total number of grid points                  ...    31310
Total number of batches                      ...      494
Average number of points per batch           ...       63
Average number of grid points per atom       ...     4473
Time for grid setup =    0.112 sec

--------------------
COSX GRID GENERATION
--------------------

GRIDX 1
-------
General Integration Accuracy     IntAcc      ... 3.816
Radial Grid Type                 RadialGrid  ... OptM3 with GC (2021)
Angular Grid (max. ang.)         AngularGrid ... 1 (Lebedev-50)
Angular grid pruning method      GridPruning ... 4 (adaptive)
Weight generation scheme         WeightScheme... Becke
Basis function cutoff            BFCut       ... 1.0000e-11
Integration weight cutoff        WCut        ... 1.0000e-14
Angular grids for H and He will be reduced by one unit
Partially contracted basis set               ... on
Rotationally invariant grid construction     ... off

Total number of grid points                  ...     4038
Total number of batches                      ...       67
Average number of points per batch           ...       60
Average number of grid points per atom       ...      577
UseSFitting                                  ... on

GRIDX 2
-------
General Integration Accuracy     IntAcc      ... 4.020
Radial Grid Type                 RadialGrid  ... OptM3 with GC (2021)
Angular Grid (max. ang.)         AngularGrid ... 2 (Lebedev-110)
Angular grid pruning method      GridPruning ... 4 (adaptive)
Weight generation scheme         WeightScheme... Becke
Basis function cutoff            BFCut       ... 1.0000e-11
Integration weight cutoff        WCut        ... 1.0000e-14
Angular grids for H and He will be reduced by one unit
Partially contracted basis set               ... on
Rotationally invariant grid construction     ... off

Total number of grid points                  ...     8729
Total number of batches                      ...      140
Average number of points per batch           ...       62
Average number of grid points per atom       ...     1247
UseSFitting                                  ... on

GRIDX 3
-------
General Integration Accuracy     IntAcc      ... 4.338
Radial Grid Type                 RadialGrid  ... OptM3 with GC (2021)
Angular Grid (max. ang.)         AngularGrid ... 3 (Lebedev-194)
Angular grid pruning method      GridPruning ... 4 (adaptive)
Weight generation scheme         WeightScheme... Becke
Basis function cutoff            BFCut       ... 1.0000e-11
Integration weight cutoff        WCut        ... 1.0000e-14
Angular grids for H and He will be reduced by one unit
Partially contracted basis set               ... on
Rotationally invariant grid construction     ... off

Total number of grid points                  ...    19242
Total number of batches                      ...      305
Average number of points per batch           ...       63
Average number of grid points per atom       ...     2749
UseSFitting                                  ... on

Time for X-Grid setup             =    0.072 sec

--------------
SCF ITERATIONS
--------------
ITER       Energy         Delta-E        Max-DP      RMS-DP      [F,P]     Damp
               ***  Starting incremental Fock matrix formation  ***
  0   -153.4915080668   0.000000000000 0.05578356  0.00160186  0.2426554 0.7000
  1   -153.5407015858  -0.049193518996 0.03173974  0.00101733  0.0782862 0.7000
                               ***Turning on DIIS***
  2   -153.5540635804  -0.013361994655 0.03104404  0.00142058  0.0413110 0.0000
  3   -153.5842640780  -0.030200497597 0.02139985  0.00082919  0.0360328 0.0000
  4   -153.5872713534  -0.003007275377 0.00865030  0.00026639  0.0333969 0.0000
  5   -153.5887477695  -0.001476416102 0.00196249  0.00006239  0.0033406 0.0000
                      *** Initiating the SOSCF procedure ***
                           *** Shutting down DIIS ***
                      *** Re-Reading the Fockian *** 
                      *** Removing any level shift *** 
ITER      Energy       Delta-E        Grad      Rot      Max-DP    RMS-DP
  6   -153.58877886  -0.0000310866  0.000406  0.000406  0.000665  0.000024
               *** Restarting incremental Fock matrix formation ***
  7   -153.58878080  -0.0000019468  0.000273  0.001277  0.000583  0.000021
  8   -153.58878047   0.0000003369  0.000450  0.000408  0.000302  0.000013
  9   -153.58878159  -0.0000011255  0.000138  0.000170  0.000234  0.000008
 10   -153.58878160  -0.0000000071  0.000141  0.000092  0.000123  0.000004
 11   -153.58878182  -0.0000002249  0.000006  0.000034  0.000010  0.000000
                  ***Gradient check signals convergence***
              ***Rediagonalizing the Fockian in SOSCF/NRSCF***

               *****************************************************
               *                     SUCCESS                       *
               *           SCF CONVERGED AFTER  12 CYCLES          *
               *****************************************************

Old exchange energy                            =     -4.964369530 Eh
New exchange energy                            =     -4.964368335 Eh
Exchange energy change after final integration =      0.000001195 Eh
Total energy after final integration           =   -153.588780630 Eh
Final COS-X integration done in                =     0.248 sec

----------------
TOTAL SCF ENERGY
----------------

Total Energy       :         -153.58878063 Eh           -4179.36320 eV

Components:
Nuclear Repulsion  :           70.01604422 Eh            1905.23342 eV
Electronic Energy  :         -223.60482485 Eh           -6084.59662 eV
One Electron Energy:         -346.86527357 Eh           -9438.68395 eV
Two Electron Energy:          123.26044872 Eh            3354.08733 eV
Max COSX asymmetry :            0.00000120 Eh               0.00003 eV

Virial components:
Potential Energy   :         -306.37898580 Eh           -8336.99605 eV
Kinetic Energy     :          152.79020517 Eh            4157.63285 eV
Virial Ratio       :            2.00522661


DFT components:
N(Alpha)           :       11.999999583559 electrons
N(Beta)            :       11.999999583559 electrons
N(Total)           :       23.999999167117 electrons
E(X)               :      -14.894200055465 Eh       
E(C)               :       -0.775110755286 Eh       
E(XC)              :      -15.669310810752 Eh       
DFET-embed. en.    :        0.000000000000 Eh       

---------------
SCF CONVERGENCE
---------------

  Last Energy change         ...   -1.2877e-09  Tolerance :   1.0000e-08
  Last MAX-Density change    ...    1.9984e-15  Tolerance :   1.0000e-07
  Last RMS-Density change    ...    3.0790e-17  Tolerance :   5.0000e-09
  Last Orbital Gradient      ...    1.6371e-06  Tolerance :   1.0000e-05
  Last Orbital Rotation      ...    1.2500e-05  Tolerance :   1.0000e-05

             **** THE GBW FILE WAS UPDATED (ox_gs_C_orca0000.gbw) ****
             **** DENSITY ox_gs_C_orca0000.scfp WAS UPDATED ****
             **** ENERGY FILE WAS UPDATED (ox_gs_C_orca0000.en.tmp) ****
             **** THE GBW FILE WAS UPDATED (ox_gs_C_orca0000.gbw) ****
             **** DENSITY ox_gs_C_orca0000.scfp WAS UPDATED ****
----------------
ORBITAL ENERGIES
----------------

  NO   OCC          E(Eh)            E(eV) 
   0   2.0000     -19.209868      -522.7271 
   1   2.0000     -10.306806      -280.4625 
   2   2.0000     -10.271876      -279.5120 
   3   2.0000      -0.998375       -27.1672 
   4   2.0000      -0.767381       -20.8815 
   5   2.0000      -0.640039       -17.4163 
   6   2.0000      -0.515087       -14.0162 
   7   2.0000      -0.499194       -13.5837 
   8   2.0000      -0.403317       -10.9748 
   9   2.0000      -0.395064       -10.7502 
  10   2.0000      -0.301827        -8.2131 
  11   2.0000      -0.267943        -7.2911 
  12   0.0000      -0.087603        -2.3838 
  13   0.0000       0.059368         1.6155 
  14   0.0000       0.074875         2.0375 
  15   0.0000       0.089327         2.4307 
  16   0.0000       0.110493         3.0067 
  17   0.0000       0.151327         4.1178 
  18   0.0000       0.183173         4.9844 
  19   0.0000       0.211940         5.7672 
  20   0.0000       0.235314         6.4032 
  21   0.0000       0.258166         7.0250 
  22   0.0000       0.266628         7.2553 
  23   0.0000       0.315776         8.5927 
  24   0.0000       0.378167        10.2904 
  25   0.0000       0.396564        10.7910 
  26   0.0000       0.421838        11.4788 
  27   0.0000       0.422911        11.5080 
  28   0.0000       0.445975        12.1356 
  29   0.0000       0.491737        13.3808 
  30   0.0000       0.519734        14.1427 
  31   0.0000       0.525841        14.3088 
  32   0.0000       0.552770        15.0416 
  33   0.0000       0.637491        17.3470 
  34   0.0000       0.649623        17.6772 
  35   0.0000       0.765125        20.8201 
  36   0.0000       0.810199        22.0466 
  37   0.0000       0.832333        22.6489 
  38   0.0000       0.852144        23.1880 
  39   0.0000       0.940696        25.5976 
  40   0.0000       0.953235        25.9389 
  41   0.0000       1.035856        28.1871 
  42   0.0000       1.072693        29.1895 
  43   0.0000       1.104001        30.0414 
  44   0.0000       1.190162        32.3860 
  45   0.0000       1.343218        36.5508 
  46   0.0000       1.389170        37.8012 
  47   0.0000       1.469704        39.9927 
  48   0.0000       1.504262        40.9330 
  49   0.0000       1.545987        42.0684 
  50   0.0000       1.563457        42.5438 
  51   0.0000       1.602654        43.6104 
  52   0.0000       1.660456        45.1833 
  53   0.0000       1.683903        45.8213 
  54   0.0000       1.697114        46.1808 
  55   0.0000       1.775077        48.3023 
  56   0.0000       1.830785        49.8182 
  57   0.0000       1.849871        50.3375 
  58   0.0000       1.900348        51.7111 
  59   0.0000       1.920179        52.2507 
  60   0.0000       1.998428        54.3800 
  61   0.0000       2.093695        56.9723 
  62   0.0000       2.135048        58.0976 
  63   0.0000       2.227011        60.6001 
  64   0.0000       2.310211        62.8640 
  65   0.0000       2.329348        63.3848 
  66   0.0000       2.412581        65.6497 
  67   0.0000       2.443526        66.4917 
  68   0.0000       2.494581        67.8810 
  69   0.0000       2.536265        69.0153 
  70   0.0000       2.562552        69.7306 
  71   0.0000       2.659320        72.3638 
  72   0.0000       2.712869        73.8209 
  73   0.0000       2.729111        74.2629 
  74   0.0000       2.760255        75.1103 
  75   0.0000       2.795978        76.0824 
  76   0.0000       2.825419        76.8836 
  77   0.0000       2.871800        78.1457 
  78   0.0000       2.962466        80.6128 
  79   0.0000       2.990705        81.3812 
  80   0.0000       3.049613        82.9842 
  81   0.0000       3.086983        84.0011 
  82   0.0000       3.099538        84.3427 
  83   0.0000       3.130962        85.1978 
  84   0.0000       3.158908        85.9583 
  85   0.0000       3.226372        87.7941 
  86   0.0000       3.346438        91.0612 
  87   0.0000       3.404990        92.6545 
  88   0.0000       3.446907        93.7951 
  89   0.0000       3.503081        95.3237 
  90   0.0000       3.559016        96.8457 
  91   0.0000       3.709792       100.9486 
  92   0.0000       3.725753       101.3829 
  93   0.0000       3.927995       106.8862 
  94   0.0000       4.117617       112.0461 
  95   0.0000       4.176626       113.6518 
  96   0.0000       4.213839       114.6644 
  97   0.0000       4.290491       116.7502 
  98   0.0000       4.426414       120.4488 
  99   0.0000       4.522116       123.0530 
 100   0.0000       4.616275       125.6152 
 101   0.0000       4.836121       131.5975 
 102   0.0000       5.229526       142.3026 
 103   0.0000       5.257036       143.0512 
 104   0.0000       5.348863       145.5500 
 105   0.0000       5.376443       146.3005 
 106   0.0000       5.687663       154.7692 
 107   0.0000       5.713063       155.4603 
 108   0.0000       5.891963       160.3285 
 109   0.0000       6.391673       173.9263 
 110   0.0000       6.466624       175.9658 
 111   0.0000       6.733954       183.2402 
 112   0.0000       6.857125       186.5919 
 113   0.0000       6.983912       190.0419 
 114   0.0000      22.168540       603.2367 
 115   0.0000      22.522918       612.8798 
 116   0.0000      43.668504      1188.2804 

                    ********************************
                    * MULLIKEN POPULATION ANALYSIS *
                    ********************************

-----------------------
MULLIKEN ATOMIC CHARGES
-----------------------
   0 O :   -0.374796
   1 C :   -0.024957
   2 C :   -0.129140
   3 H :    0.119537
   4 H :    0.100377
   5 H :    0.161375
   6 H :    0.147604
Sum of atomic charges:   -0.0000000

--------------------------------
MULLIKEN REDUCED ORBITAL CHARGES
--------------------------------
  0 O s       :     3.918163  s :     3.918163
      pz      :     1.907281  p :     4.432596
      px      :     1.360410
      py      :     1.164905
      dz2     :     0.003367  d :     0.022845
      dxz     :     0.000466
      dyz     :     0.004455
      dx2y2   :     0.007542
      dxy     :     0.007016
      f0      :     0.000133  f :     0.001192
      f+1     :     0.000062
      f-1     :     0.000300
      f+2     :     0.000127
      f-2     :     0.000036
      f+3     :     0.000261
      f-3     :     0.000273
  1 C s       :     3.176242  s :     3.176242
      pz      :     1.050082  p :     2.695908
      px      :     0.921579
      py      :     0.724247
      dz2     :     0.008542  d :     0.143068
      dxz     :     0.021409
      dyz     :     0.040967
      dx2y2   :     0.026890
      dxy     :     0.045260
      f0      :     0.001454  f :     0.009739
      f+1     :     0.001107
      f-1     :     0.000815
      f+2     :     0.002721
      f-2     :     0.000231
      f+3     :     0.001410
      f-3     :     0.001999
  2 C s       :     3.281656  s :     3.281656
      pz      :     1.057821  p :     2.778702
      px      :     0.986898
      py      :     0.733983
      dz2     :     0.005701  d :     0.062971
      dxz     :     0.025025
      dyz     :     0.007730
      dx2y2   :     0.009386
      dxy     :     0.015128
      f0      :     0.000562  f :     0.005809
      f+1     :     0.001045
      f-1     :     0.000158
      f+2     :     0.001009
      f-2     :     0.000375
      f+3     :     0.001146
      f-3     :     0.001514
  3 H s       :     0.857399  s :     0.857399
      pz      :     0.010708  p :     0.023065
      px      :     0.007655
      py      :     0.004701
  4 H s       :     0.881526  s :     0.881526
      pz      :     0.009197  p :     0.018097
      px      :     0.005673
      py      :     0.003227
  5 H s       :     0.815501  s :     0.815501
      pz      :     0.010924  p :     0.023124
      px      :     0.007990
      py      :     0.004210
  6 H s       :     0.831490  s :     0.831490
      pz      :     0.010751  p :     0.020906
      px      :     0.006554
      py      :     0.003600


                     *******************************
                     * LOEWDIN POPULATION ANALYSIS *
                     *******************************

----------------------
LOEWDIN ATOMIC CHARGES
----------------------
   0 O :   -0.072176
   1 C :   -0.382253
   2 C :   -0.046264
   3 H :    0.100052
   4 H :    0.135674
   5 H :    0.123142
   6 H :    0.141825

-------------------------------
LOEWDIN REDUCED ORBITAL CHARGES
-------------------------------
  0 O s       :     3.586127  s :     3.586127
      pz      :     1.840321  p :     4.434878
      px      :     1.320018
      py      :     1.274539
      dz2     :     0.007235  d :     0.048147
      dxz     :     0.000860
      dyz     :     0.010415
      dx2y2   :     0.016468
      dxy     :     0.013169
      f0      :     0.000273  f :     0.003024
      f+1     :     0.000085
      f-1     :     0.000570
      f+2     :     0.000471
      f-2     :     0.000085
      f+3     :     0.000828
      f-3     :     0.000712
  1 C s       :     2.812883  s :     2.812883
      pz      :     1.048782  p :     2.925265
      px      :     1.070244
      py      :     0.806239
      dz2     :     0.059473  d :     0.575102
      dxz     :     0.124417
      dyz     :     0.108703
      dx2y2   :     0.135202
      dxy     :     0.147306
      f0      :     0.008949  f :     0.069003
      f+1     :     0.005715
      f-1     :     0.007091
      f+2     :     0.015535
      f-2     :     0.001804
      f+3     :     0.010980
      f-3     :     0.018928
  2 C s       :     2.879538  s :     2.879538
      pz      :     1.066510  p :     2.855357
      px      :     1.112022
      py      :     0.676825
      dz2     :     0.031718  d :     0.280283
      dxz     :     0.130556
      dyz     :     0.016341
      dx2y2   :     0.048197
      dxy     :     0.053472
      f0      :     0.003898  f :     0.031087
      f+1     :     0.004154
      f-1     :     0.001418
      f+2     :     0.005804
      f-2     :     0.001366
      f+3     :     0.006042
      f-3     :     0.008404
  3 H s       :     0.826853  s :     0.826853
      pz      :     0.035802  p :     0.073095
      px      :     0.022340
      py      :     0.014953
  4 H s       :     0.816618  s :     0.816618
      pz      :     0.025590  p :     0.047708
      px      :     0.013670
      py      :     0.008448
  5 H s       :     0.808078  s :     0.808078
      pz      :     0.034441  p :     0.068780
      px      :     0.022145
      py      :     0.012194
  6 H s       :     0.800146  s :     0.800146
      pz      :     0.031274  p :     0.058029
      px      :     0.017030
      py      :     0.009725


                      *****************************
                      * MAYER POPULATION ANALYSIS *
                      *****************************

  NA   - Mulliken gross atomic population
  ZA   - Total nuclear charge
  QA   - Mulliken gross atomic charge
  VA   - Mayer's total valence
  BVA  - Mayer's bonded valence
  FA   - Mayer's free valence

  ATOM       NA         ZA         QA         VA         BVA        FA
  0 O      8.3748     8.0000    -0.3748     1.8534     1.8534    -0.0000
  1 C      6.0250     6.0000    -0.0250     4.0327     4.0327    -0.0000
  2 C      6.1291     6.0000    -0.1291     3.8810     3.8810     0.0000
  3 H      0.8805     1.0000     0.1195     0.9506     0.9506    -0.0000
  4 H      0.8996     1.0000     0.1004     0.9634     0.9634    -0.0000
  5 H      0.8386     1.0000     0.1614     0.9537     0.9537     0.0000
  6 H      0.8524     1.0000     0.1476     0.9594     0.9594     0.0000

  Mayer bond orders larger than 0.100000
B(  0-O ,  1-C ) :   0.9883 B(  0-O ,  2-C ) :   0.8594 B(  1-C ,  2-C ) :   1.1221 
B(  1-C ,  3-H ) :   0.9578 B(  1-C ,  4-H ) :   0.9527 B(  2-C ,  5-H ) :   0.9438 
B(  2-C ,  6-H ) :   0.9441 

-------
TIMINGS
-------

Total SCF time: 0 days 0 hours 0 min 2 sec 

Total time                  ....       2.782 sec
Sum of individual times     ....       2.496 sec  ( 89.7%)

Fock matrix formation       ....       2.229 sec  ( 80.1%)
  Split-RI-J                ....       0.241 sec  ( 10.8% of F)
  Chain of spheres X        ....       1.508 sec  ( 67.7% of F)
  XC integration            ....       0.415 sec  ( 18.6% of F)
    Basis function eval.    ....       0.112 sec  ( 27.0% of XC)
    Density eval.           ....       0.085 sec  ( 20.5% of XC)
    XC-Functional eval.     ....       0.024 sec  (  5.9% of XC)
    XC-Potential eval.      ....       0.143 sec  ( 34.5% of XC)
Diagonalization             ....       0.016 sec  (  0.6%)
Density matrix formation    ....       0.001 sec  (  0.1%)
Population analysis         ....       0.004 sec  (  0.1%)
Initial guess               ....       0.016 sec  (  0.6%)
Orbital Transformation      ....       0.000 sec  (  0.0%)
Orbital Orthonormalization  ....       0.000 sec  (  0.0%)
DIIS solution               ....       0.013 sec  (  0.5%)
SOSCF solution              ....       0.013 sec  (  0.5%)
Grid generation             ....       0.205 sec  (  7.4%)

Maximum memory used throughout the entire SCF-calculation: 61.0 MB


-------------------------------------------------------------------------------
                          DFT DISPERSION CORRECTION                            
                                                                               
                              DFTD3 V3.1  Rev 1                                
                          USING Becke-Johnson damping                          
-------------------------------------------------------------------------------
The PBE0 functional is recognized
Active option DFTDOPT                   ...         4   

molecular C6(AA) [au] = 389.169979 


            DFT-D V3
 parameters
 s6 scaling factor         :     1.0000 
 a1 scaling factor         :     0.4145 
 s8 scaling factor         :     1.2177 
 a2 scaling factor         :     4.8593 
 ad hoc parameters k1-k3   :    16.0000     1.3333    -4.0000 

 Edisp/kcal,au: -1.643335936327  -0.002618822231 
 E6   /kcal   :  -1.073291210 
 E8   /kcal   :  -0.570044726 
 % E8         :  34.688265116 

-------------------------   ----------------
Dispersion correction           -0.002618822
-------------------------   ----------------


-------------------------   --------------------
FINAL SINGLE POINT ENERGY      -153.591399452262
-------------------------   --------------------



           ************************************************************
           *        Program running with 8 parallel MPI-processes     *
           *              working on a common directory               *
           ************************************************************
------------------------------------------------------------------------------
                         ORCA SCF GRADIENT CALCULATION
------------------------------------------------------------------------------

 ... reading COSX grid (gridx3)
Gradient of the Kohn-Sham DFT energy:
Kohn-Sham wavefunction type      ... RKS
Hartree-Fock exchange scaling    ...    0.250
Number of operators              ...    1
Number of atoms                  ...    7
Basis set dimensions             ...  117
Integral neglect threshold       ... 2.5e-11
Integral primitive cutoff        ... 2.5e-12
SHARK Integral package           ... ON

Nuc. rep. gradient       (SHARK) ... done (  0.0 sec)
HCore & Overlap gradient (SHARK) ... done (  0.0 sec)
RI-J gradient            (SHARK) ... done (  0.1 sec)
COSX-gradient                    ... done (  0.3 sec)
Exchange-correlation gradient    ... done
Dispersion correction            ... done

------------------
CARTESIAN GRADIENT
------------------

   1   O   :   -0.063076085    0.060866537   -0.012108942
   2   C   :    0.053918888   -0.041145859    0.105860264
   3   C   :   -0.009226305   -0.023246685   -0.040231007
   4   H   :    0.026428414    0.023223928   -0.055972778
   5   H   :   -0.023555391    0.008374323   -0.033831401
   6   H   :    0.001121051   -0.008539851    0.021218721
   7   H   :    0.014503141   -0.019287960    0.014993049

Difference to translation invariance:
           :    0.0001137126    0.0002444325   -0.0000720934

Difference to rotation invariance:
           :   -0.0002103420   -0.0001001062   -0.0002393993

Norm of the cartesian gradient     ...    0.1826267669
RMS gradient                       ...    0.0398524278
MAX gradient                       ...    0.1058602638

-------
TIMINGS
-------

Total SCF gradient time            ...        0.670 sec

One electron gradient       ....       0.010 sec  (  1.4%)
RI-J Coulomb gradient       ....       0.073 sec  ( 10.8%)
COSX gradient               ....       0.298 sec  ( 44.5%)
XC gradient                 ....       0.145 sec  ( 21.6%)

Maximum memory used throughout the entire SCFGRAD-calculation: 35.9 MB

                            ***************************************
                            *     ORCA property calculations      *
                            ***************************************

                                    ---------------------
                                    Active property flags
                                    ---------------------
   (+) Dipole Moment


------------------------------------------------------------------------------
                       ORCA ELECTRIC PROPERTIES CALCULATION
------------------------------------------------------------------------------

Dipole Moment Calculation                       ... on
Quadrupole Moment Calculation                   ... off
Polarizability Calculation                      ... off
GBWName                                         ... ox_gs_C_orca0000.gbw
Electron density                                ... ox_gs_C_orca0000.scfp
The origin for moment calculation is the CENTER OF MASS  = (-0.357315,  0.129781 -0.008737)

-------------
DIPOLE MOMENT
-------------
                                X             Y             Z
Electronic contribution:     -0.32160       1.52972       0.01619
Nuclear contribution   :      0.75622      -2.73175       0.07737
                        -----------------------------------------
Total Dipole Moment    :      0.43462      -1.20203       0.09356
                        -----------------------------------------
Magnitude (a.u.)       :      1.28161
Magnitude (Debye)      :      3.25759



--------------------
Rotational spectrum 
--------------------
 
Rotational constants in cm-1:     1.002344     0.485728     0.374696 
Rotational constants in MHz : 30049.529019 14561.749765 11233.107451 

 Dipole components along the rotational axes: 
x,y,z [a.u.] :    -1.195087    -0.462547     0.018412 
x,y,z [Debye]:    -3.037669    -1.175700     0.046799 

 

Timings for individual modules:

Sum of individual times         ...        4.116 sec (=   0.069 min)
GTO integral calculation        ...        0.308 sec (=   0.005 min)   7.5 %
SCF iterations                  ...        2.948 sec (=   0.049 min)  71.6 %
SCF Gradient evaluation         ...        0.860 sec (=   0.014 min)  20.9 %
                             ****ORCA TERMINATED NORMALLY****
TOTAL RUN TIME: 0 days 0 hours 0 minutes 4 seconds 456 msec
