
                                 *****************
                                 * O   R   C   A *
                                 *****************

                                            #,                                       
                                            ###                                      
                                            ####                                     
                                            #####                                    
                                            ######                                   
                                           ########,                                 
                                     ,,################,,,,,                         
                               ,,#################################,,                 
                          ,,##########################################,,             
                       ,#########################################, ''#####,          
                    ,#############################################,,   '####,        
                  ,##################################################,,,,####,       
                ,###########''''           ''''###############################       
              ,#####''   ,,,,##########,,,,          '''####'''          '####       
            ,##' ,,,,###########################,,,                        '##       
           ' ,,###''''                  '''############,,,                           
         ,,##''                                '''############,,,,        ,,,,,,###''
      ,#''                                            '''#######################'''  
     '                                                          ''''####''''         
             ,#######,   #######,   ,#######,      ##                                
            ,#'     '#,  ##    ##  ,#'     '#,    #''#        ######   ,####,        
            ##       ##  ##   ,#'  ##            #'  '#       #        #'  '#        
            ##       ##  #######   ##           ,######,      #####,   #    #        
            '#,     ,#'  ##    ##  '#,     ,#' ,#      #,         ##   #,  ,#        
             '#######'   ##     ##  '#######'  #'      '#     #####' # '####'        



                  #######################################################
                  #                        -***-                        #
                  #          Department of theory and spectroscopy      #
                  #    Directorship and core code : Frank Neese         #
                  #        Max Planck Institute fuer Kohlenforschung    #
                  #                Kaiser Wilhelm Platz 1               #
                  #                 D-45470 Muelheim/Ruhr               #
                  #                      Germany                        #
                  #                                                     #
                  #                  All rights reserved                #
                  #                        -***-                        #
                  #######################################################


                         Program Version 5.0.2 -  RELEASE  -


 With contributions from (in alphabetic order):
   Daniel Aravena         : Magnetic Suceptibility
   Michael Atanasov       : Ab Initio Ligand Field Theory (pilot matlab implementation)
   Alexander A. Auer      : GIAO ZORA, VPT2 properties, NMR spectrum
   Ute Becker             : Parallelization
   Giovanni Bistoni       : ED, misc. LED, open-shell LED, HFLD
   Martin Brehm           : Molecular dynamics
   Dmytro Bykov           : SCF Hessian
   Vijay G. Chilkuri      : MRCI spin determinant printing, contributions to CSF-ICE
   Dipayan Datta          : RHF DLPNO-CCSD density
   Achintya Kumar Dutta   : EOM-CC, STEOM-CC
   Dmitry Ganyushin       : Spin-Orbit,Spin-Spin,Magnetic field MRCI
   Miquel Garcia          : C-PCM and meta-GGA Hessian, CC/C-PCM, Gaussian charge scheme
   Yang Guo               : DLPNO-NEVPT2, F12-NEVPT2, CIM, IAO-localization
   Andreas Hansen         : Spin unrestricted coupled pair/coupled cluster methods
   Benjamin Helmich-Paris : MC-RPA, TRAH-SCF, COSX integrals
   Lee Huntington         : MR-EOM, pCC
   Robert Izsak           : Overlap fitted RIJCOSX, COSX-SCS-MP3, EOM
   Marcus Kettner         : VPT2
   Christian Kollmar      : KDIIS, OOCD, Brueckner-CCSD(T), CCSD density, CASPT2, CASPT2-K
   Simone Kossmann        : Meta GGA functionals, TD-DFT gradient, OOMP2, MP2 Hessian
   Martin Krupicka        : Initial AUTO-CI
   Lucas Lang             : DCDCAS
   Marvin Lechner         : AUTO-CI (C++ implementation), FIC-MRCC
   Dagmar Lenk            : GEPOL surface, SMD
   Dimitrios Liakos       : Extrapolation schemes; Compound Job, initial MDCI parallelization
   Dimitrios Manganas     : Further ROCIS development; embedding schemes
   Dimitrios Pantazis     : SARC Basis sets
   Anastasios Papadopoulos: AUTO-CI, single reference methods and gradients
   Taras Petrenko         : DFT Hessian,TD-DFT gradient, ASA, ECA, R-Raman, ABS, FL, XAS/XES, NRVS
   Peter Pinski           : DLPNO-MP2, DLPNO-MP2 Gradient
   Christoph Reimann      : Effective Core Potentials
   Marius Retegan         : Local ZFS, SOC
   Christoph Riplinger    : Optimizer, TS searches, QM/MM, DLPNO-CCSD(T), (RO)-DLPNO pert. Triples
   Tobias Risthaus        : Range-separated hybrids, TD-DFT gradient, RPA, STAB
   Michael Roemelt        : Original ROCIS implementation
   Masaaki Saitow         : Open-shell DLPNO-CCSD energy and density
   Barbara Sandhoefer     : DKH picture change effects
   Avijit Sen             : IP-ROCIS
   Kantharuban Sivalingam : CASSCF convergence, NEVPT2, FIC-MRCI
   Bernardo de Souza      : ESD, SOC TD-DFT
   Georgi Stoychev        : AutoAux, RI-MP2 NMR, DLPNO-MP2 response
   Willem Van den Heuvel  : Paramagnetic NMR
   Boris Wezisla          : Elementary symmetry handling
   Frank Wennmohs         : Technical directorship


 We gratefully acknowledge several colleagues who have allowed us to
 interface, adapt or use parts of their codes:
   Stefan Grimme, W. Hujo, H. Kruse, P. Pracht,  : VdW corrections, initial TS optimization,
                  C. Bannwarth, S. Ehlert          DFT functionals, gCP, sTDA/sTD-DF
   Ed Valeev, F. Pavosevic, A. Kumar             : LibInt (2-el integral package), F12 methods
   Garnet Chan, S. Sharma, J. Yang, R. Olivares  : DMRG
   Ulf Ekstrom                                   : XCFun DFT Library
   Mihaly Kallay                                 : mrcc  (arbitrary order and MRCC methods)
   Jiri Pittner, Ondrej Demel                    : Mk-CCSD
   Frank Weinhold                                : gennbo (NPA and NBO analysis)
   Christopher J. Cramer and Donald G. Truhlar   : smd solvation model
   Lars Goerigk                                  : TD-DFT with DH, B97 family of functionals
   V. Asgeirsson, H. Jonsson                     : NEB implementation
   FAccTs GmbH                                   : IRC, NEB, NEB-TS, DLPNO-Multilevel, CI-OPT
                                                   MM, QMMM, 2- and 3-layer-ONIOM, Crystal-QMMM,
                                                   LR-CPCM, SF, NACMEs, symmetry and pop. for TD-DFT,
                                                   nearIR, NL-DFT gradient (VV10), updates on ESD,
                                                   ML-optimized integration grids
   S Lehtola, MJT Oliveira, MAL Marques          : LibXC Library
   Liviu Ungur et al                             : ANISO software


 Your calculation uses the libint2 library for the computation of 2-el integrals
 For citations please refer to: http://libint.valeyev.net

 Your ORCA version has been built with support for libXC version: 5.1.0
 For citations please refer to: https://tddft.org/programs/libxc/

 This ORCA versions uses:
   CBLAS   interface :  Fast vector & matrix operations
   LAPACKE interface :  Fast linear algebra routines
   SCALAPACK package :  Parallel linear algebra routines
   Shared memory     :  Shared parallel matrices
   BLAS/LAPACK       :  OpenBLAS 0.3.15  USE64BITINT DYNAMIC_ARCH NO_AFFINITY SkylakeX SINGLE_THREADED
        Core in use  :  SkylakeX
   Copyright (c) 2011-2014, The OpenBLAS Project


Your calculation utilizes the atom-pairwise dispersion correction
with the Becke-Johnson damping scheme (D3BJ)
Cite in your paper:
S.Grimme, S.Ehrlich, L.Goerigk, J Comput Chem, (2011), 32, 1456–1465 
S.Grimme, J.Antony, S.Ehrlich and H.Krieg, J.Chem.Phys., 132, (2010), 154104 
   

================================================================================

----- Orbital basis set information -----
Your calculation utilizes the basis: def2-TZVP
   F. Weigend and R. Ahlrichs, Phys. Chem. Chem. Phys. 7, 3297 (2005).

----- AuxJ basis set information -----
Your calculation utilizes the auxiliary basis: def2/J
   F. Weigend, Phys. Chem. Chem. Phys. 8, 1057 (2006).

================================================================================
                                        WARNINGS
                       Please study these warnings very carefully!
================================================================================


INFO   : the flag for use of the SHARK integral package has been found!

================================================================================
                                       INPUT FILE
================================================================================
NAME = ox_gs_G_orca0003.inp
|  1> ! engrad PBE0 D3BJ def2-TZVP  
|  2> %pal nprocs 8 end
|  3> %maxcore 3000
|  4>  
|  5> *xyz 0 1 
|  6> O   -1.4091582924346304 0.8518857517697526 0.03423286125722084
|  7> C   -0.7452902720923965 -0.3309849258931881 0.0690573917507456
|  8> C   0.7639462335483627 -0.44364212374770756 0.0016178479930416283
|  9> H   -1.23126123545359 -0.6743376932794655 0.9364313795724697
| 10> H   -1.2736749396722529 -0.7146553441786225 -0.8980403578399285
| 11> H   1.2501776632069859 -0.6572838602521291 -0.8815082985981798
| 12> H   1.277358856005567 -0.595578326247965 1.0017857102602246
| 13> *
| 14> 
| 15>                          ****END OF INPUT****
================================================================================

                     *******************************
                     * Energy+Gradient Calculation *
                     *******************************

---------------------------------
CARTESIAN COORDINATES (ANGSTROEM)
---------------------------------
  O     -1.409158    0.851886    0.034233
  C     -0.745290   -0.330985    0.069057
  C      0.763946   -0.443642    0.001618
  H     -1.231261   -0.674338    0.936431
  H     -1.273675   -0.714655   -0.898040
  H      1.250178   -0.657284   -0.881508
  H      1.277359   -0.595578    1.001786

----------------------------
CARTESIAN COORDINATES (A.U.)
----------------------------
  NO LB      ZA    FRAG     MASS         X           Y           Z
   0 O     8.0000    0    15.999   -2.662923    1.609831    0.064691
   1 C     6.0000    0    12.011   -1.408395   -0.625471    0.130500
   2 C     6.0000    0    12.011    1.443649   -0.838362    0.003057
   3 H     1.0000    0     1.008   -2.326747   -1.274314    1.769599
   4 H     1.0000    0     1.008   -2.406897   -1.350503   -1.697050
   5 H     1.0000    0     1.008    2.362493   -1.242086   -1.665809
   6 H     1.0000    0     1.008    2.413858   -1.125480    1.893101

--------------------------------
INTERNAL COORDINATES (ANGSTROEM)
--------------------------------
 O      0   0   0     0.000000000000     0.00000000     0.00000000
 C      1   0   0     1.356877494998     0.00000000     0.00000000
 C      2   1   0     1.514937149274   123.44290403     0.00000000
 H      2   1   3     1.051853856223    94.57037377   128.39684271
 H      2   1   3     1.166906767512    92.51127717   240.23067814
 H      3   2   1     1.030521996639   121.57543701   261.83118317
 H      3   2   1     1.134465902194   114.93367202    99.77533230

---------------------------
INTERNAL COORDINATES (A.U.)
---------------------------
 O      0   0   0     0.000000000000     0.00000000     0.00000000
 C      1   0   0     2.564126862827     0.00000000     0.00000000
 C      2   1   0     2.862816322231   123.44290403     0.00000000
 H      2   1   3     1.987715721171    94.57037377   128.39684271
 H      2   1   3     2.205134214416    92.51127717   240.23067814
 H      3   2   1     1.947404348630   121.57543701   261.83118317
 H      3   2   1     2.143829863418   114.93367202    99.77533230

---------------------
BASIS SET INFORMATION
---------------------
There are 3 groups of distinct atoms

 Group   1 Type O   : 11s6p2d1f contracted to 5s3p2d1f pattern {62111/411/11/1}
 Group   2 Type C   : 11s6p2d1f contracted to 5s3p2d1f pattern {62111/411/11/1}
 Group   3 Type H   : 5s1p contracted to 3s1p pattern {311/1}

Atom   0O    basis set group =>   1
Atom   1C    basis set group =>   2
Atom   2C    basis set group =>   2
Atom   3H    basis set group =>   3
Atom   4H    basis set group =>   3
Atom   5H    basis set group =>   3
Atom   6H    basis set group =>   3
---------------------------------
AUXILIARY/J BASIS SET INFORMATION
---------------------------------
There are 3 groups of distinct atoms

 Group   1 Type O   : 12s5p4d2f1g contracted to 6s4p3d1f1g pattern {711111/2111/211/2/1}
 Group   2 Type C   : 12s5p4d2f1g contracted to 6s4p3d1f1g pattern {711111/2111/211/2/1}
 Group   3 Type H   : 5s2p1d contracted to 3s1p1d pattern {311/2/1}

Atom   0O    basis set group =>   1
Atom   1C    basis set group =>   2
Atom   2C    basis set group =>   2
Atom   3H    basis set group =>   3
Atom   4H    basis set group =>   3
Atom   5H    basis set group =>   3
Atom   6H    basis set group =>   3


           ************************************************************
           *        Program running with 8 parallel MPI-processes     *
           *              working on a common directory               *
           ************************************************************
------------------------------------------------------------------------------
                           ORCA GTO INTEGRAL CALCULATION
                           -- RI-GTO INTEGRALS CHOSEN --
------------------------------------------------------------------------------
------------------------------------------------------------------------------
                   ___                                                        
                  /   \      - P O W E R E D   B Y -                         
                 /     \                                                     
                 |  |  |   _    _      __       _____    __    __             
                 |  |  |  | |  | |    /  \     |  _  \  |  |  /  |          
                  \  \/   | |  | |   /    \    | | | |  |  | /  /          
                 / \  \   | |__| |  /  /\  \   | |_| |  |  |/  /          
                |  |  |   |  __  | /  /__\  \  |    /   |      \           
                |  |  |   | |  | | |   __   |  |    \   |  |\   \          
                \     /   | |  | | |  |  |  |  | |\  \  |  | \   \       
                 \___/    |_|  |_| |__|  |__|  |_| \__\ |__|  \__/        
                                                                              
                      - O R C A' S   B I G   F R I E N D -                    
                                      &                                       
                       - I N T E G R A L  F E E D E R -                       
                                                                              
 v1 FN, 2020, v2 2021                                                         
------------------------------------------------------------------------------


Reading SHARK input file ox_gs_G_orca0003.SHARKINP.tmp ... ok
----------------------
SHARK INTEGRAL PACKAGE
----------------------

Number of atoms                             ...      7
Number of basis functions                   ...    117
Number of shells                            ...     49
Maximum angular momentum                    ...      3
Integral batch strategy                     ... SHARK/LIBINT Hybrid
RI-J (if used) integral strategy            ... SPLIT-RIJ (Revised 2003 algorithm where possible)
Printlevel                                  ...      1
Contraction scheme used                     ... SEGMENTED contraction
Coulomb Range Separation                    ... NOT USED
Exchange Range Separation                   ... NOT USED
Finite Nucleus Model                        ... NOT USED
Auxiliary Coulomb fitting basis             ... AVAILABLE
   # of basis functions in Aux-J            ...    191
   # of shells in Aux-J                     ...     65
   Maximum angular momentum in Aux-J        ...      4
Auxiliary J/K fitting basis                 ... NOT available
Auxiliary Correlation fitting basis         ... NOT available
Auxiliary 'external' fitting basis          ... NOT available
Integral threshold                          ...     2.500000e-11
Primitive cut-off                           ...     2.500000e-12
Primitive pair pre-selection threshold      ...     2.500000e-12

Calculating pre-screening integrals         ... done (  0.0 sec) Dimension = 49
Organizing shell pair data                  ... done (  0.0 sec)
Shell pair information
Total number of shell pairs                 ...      1225
Shell pairs after pre-screening             ...      1211
Total number of primitive shell pairs       ...      3648
Primitive shell pairs kept                  ...      3060
          la=0 lb=0:    368 shell pairs
          la=1 lb=0:    348 shell pairs
          la=1 lb=1:     91 shell pairs
          la=2 lb=0:    161 shell pairs
          la=2 lb=1:     78 shell pairs
          la=2 lb=2:     21 shell pairs
          la=3 lb=0:     81 shell pairs
          la=3 lb=1:     39 shell pairs
          la=3 lb=2:     18 shell pairs
          la=3 lb=3:      6 shell pairs

Calculating one electron integrals          ... done (  0.0 sec)
Calculating RI/J V-Matrix + Cholesky decomp.... done (  0.0 sec)
Calculating Nuclear repulsion               ... done (  0.0 sec) ENN=     67.306095413405 Eh

SHARK setup successfully completed in   0.1 seconds

Maximum memory used throughout the entire GTOINT-calculation: 14.9 MB


           ************************************************************
           *        Program running with 8 parallel MPI-processes     *
           *              working on a common directory               *
           ************************************************************
-------------------------------------------------------------------------------
                                 ORCA SCF
-------------------------------------------------------------------------------

------------
SCF SETTINGS
------------
Hamiltonian:
 Density Functional     Method          .... DFT(GTOs)
 Exchange Functional    Exchange        .... PBE
   PBE kappa parameter   XKappa         ....  0.804000
   PBE mue parameter    XMuePBE         ....  0.219520
 Correlation Functional Correlation     .... PBE
   PBE beta parameter  CBetaPBE         ....  0.066725
 LDA part of GGA corr.  LDAOpt          .... PW91-LDA
 Gradients option       PostSCFGGA      .... off
 Hybrid DFT is turned on
   Fraction HF Exchange ScalHFX         ....  0.250000
   Scaling of DF-GGA-X  ScalDFX         ....  0.750000
   Scaling of DF-GGA-C  ScalDFC         ....  1.000000
   Scaling of DF-LDA-C  ScalLDAC        ....  1.000000
   Perturbative correction              ....  0.000000
   Density functional embedding theory  .... OFF
   NL short-range parameter             ....  6.900000
 RI-approximation to the Coulomb term is turned on
   Number of AuxJ basis functions       .... 191
   RIJ-COSX (HFX calculated with COS-X)).... on


General Settings:
 Integral files         IntName         .... ox_gs_G_orca0003
 Hartree-Fock type      HFTyp           .... RHF
 Total Charge           Charge          ....    0
 Multiplicity           Mult            ....    1
 Number of Electrons    NEL             ....   24
 Basis Dimension        Dim             ....  117
 Nuclear Repulsion      ENuc            ....     67.3060954134 Eh

Convergence Acceleration:
 DIIS                   CNVDIIS         .... on
   Start iteration      DIISMaxIt       ....    12
   Startup error        DIISStart       ....  0.200000
   # of expansion vecs  DIISMaxEq       ....     5
   Bias factor          DIISBfac        ....   1.050
   Max. coefficient     DIISMaxC        ....  10.000
 Trust-Rad. Augm. Hess. CNVTRAH         .... auto
   Auto Start mean grad. ratio tolernc. ....  1.125000
   Auto Start start iteration           ....    20
   Auto Start num. interpolation iter.  ....    10
   Max. Number of Micro iterations      ....    16
   Max. Number of Macro iterations      .... Maxiter - #DIIS iter
   Number of Davidson start vectors     ....     2
   Converg. threshold I  (grad. norm)   ....   1.000e-05
   Converg. threshold II (energy diff.) ....   1.000e-08
   Grad. Scal. Fac. for Micro threshold ....   0.100
   Minimum threshold for Micro iter.    ....   0.010
   NR start threshold (gradient norm)   ....   0.001
   Initial trust radius                 ....   0.400
   Minimum AH scaling param. (alpha)    ....   1.000
   Maximum AH scaling param. (alpha)    .... 1000.000
   Orbital update algorithm             .... Taylor
   White noise on init. David. guess    .... on
   Maximum white noise                  ....   0.010
   Quad. conv. algorithm                .... NR
 SOSCF                  CNVSOSCF        .... on
   Start iteration      SOSCFMaxIt      ....   150
   Startup grad/error   SOSCFStart      ....  0.003300
 Level Shifting         CNVShift        .... on
   Level shift para.    LevelShift      ....    0.2500
   Turn off err/grad.   ShiftErr        ....    0.0010
 Zerner damping         CNVZerner       .... off
 Static damping         CNVDamp         .... on
   Fraction old density DampFac         ....    0.7000
   Max. Damping (<1)    DampMax         ....    0.9800
   Min. Damping (>=0)   DampMin         ....    0.0000
   Turn off err/grad.   DampErr         ....    0.1000
 Fernandez-Rico         CNVRico         .... off

SCF Procedure:
 Maximum # iterations   MaxIter         ....   125
 SCF integral mode      SCFMode         .... Direct
   Integral package                     .... SHARK and LIBINT hybrid scheme
 Reset frequency        DirectResetFreq ....    20
 Integral Threshold     Thresh          ....  2.500e-11 Eh
 Primitive CutOff       TCut            ....  2.500e-12 Eh

Convergence Tolerance:
 Convergence Check Mode ConvCheckMode   .... Total+1el-Energy
 Convergence forced     ConvForced      .... 0
 Energy Change          TolE            ....  1.000e-08 Eh
 1-El. energy change                    ....  1.000e-05 Eh
 Orbital Gradient       TolG            ....  1.000e-05
 Orbital Rotation angle TolX            ....  1.000e-05
 DIIS Error             TolErr          ....  5.000e-07


Diagonalization of the overlap matrix:
Smallest eigenvalue                        ... 6.782e-04
Time for diagonalization                   ...    0.001 sec
Threshold for overlap eigenvalues          ... 1.000e-08
Number of eigenvalues below threshold      ... 0
Time for construction of square roots      ...    0.001 sec
Total time needed                          ...    0.003 sec

Time for model grid setup =    0.022 sec

------------------------------
INITIAL GUESS: MODEL POTENTIAL
------------------------------
Loading Hartree-Fock densities                     ... done
Calculating cut-offs                               ... done
Initializing the effective Hamiltonian             ... done
Setting up the integral package (SHARK)            ... done
Starting the Coulomb interaction                   ... done (   0.0 sec)
Reading the grid                                   ... done
Mapping shells                                     ... done
Starting the XC term evaluation                    ... done (   0.0 sec)
  promolecular density results
     # of electrons  =     23.998055356
     EX              =    -19.459879726
     EC              =     -0.764831632
     EX+EC           =    -20.224711358
Transforming the Hamiltonian                       ... done (   0.0 sec)
Diagonalizing the Hamiltonian                      ... done (   0.0 sec)
Back transforming the eigenvectors                 ... done (   0.0 sec)
Now organizing SCF variables                       ... done
                      ------------------
                      INITIAL GUESS DONE (   0.0 sec)
                      ------------------
-------------------
DFT GRID GENERATION
-------------------

General Integration Accuracy     IntAcc      ... 4.388
Radial Grid Type                 RadialGrid  ... OptM3 with GC (2021)
Angular Grid (max. ang.)         AngularGrid ... 4 (Lebedev-302)
Angular grid pruning method      GridPruning ... 4 (adaptive)
Weight generation scheme         WeightScheme... Becke
Basis function cutoff            BFCut       ... 1.0000e-11
Integration weight cutoff        WCut        ... 1.0000e-14
Angular grids for H and He will be reduced by one unit
Partially contracted basis set               ... off
Rotationally invariant grid construction     ... off

Total number of grid points                  ...    31364
Total number of batches                      ...      495
Average number of points per batch           ...       63
Average number of grid points per atom       ...     4481
Time for grid setup =    0.109 sec

--------------------
COSX GRID GENERATION
--------------------

GRIDX 1
-------
General Integration Accuracy     IntAcc      ... 3.816
Radial Grid Type                 RadialGrid  ... OptM3 with GC (2021)
Angular Grid (max. ang.)         AngularGrid ... 1 (Lebedev-50)
Angular grid pruning method      GridPruning ... 4 (adaptive)
Weight generation scheme         WeightScheme... Becke
Basis function cutoff            BFCut       ... 1.0000e-11
Integration weight cutoff        WCut        ... 1.0000e-14
Angular grids for H and He will be reduced by one unit
Partially contracted basis set               ... on
Rotationally invariant grid construction     ... off

Total number of grid points                  ...     4045
Total number of batches                      ...       68
Average number of points per batch           ...       59
Average number of grid points per atom       ...      578
UseSFitting                                  ... on

GRIDX 2
-------
General Integration Accuracy     IntAcc      ... 4.020
Radial Grid Type                 RadialGrid  ... OptM3 with GC (2021)
Angular Grid (max. ang.)         AngularGrid ... 2 (Lebedev-110)
Angular grid pruning method      GridPruning ... 4 (adaptive)
Weight generation scheme         WeightScheme... Becke
Basis function cutoff            BFCut       ... 1.0000e-11
Integration weight cutoff        WCut        ... 1.0000e-14
Angular grids for H and He will be reduced by one unit
Partially contracted basis set               ... on
Rotationally invariant grid construction     ... off

Total number of grid points                  ...     8736
Total number of batches                      ...      140
Average number of points per batch           ...       62
Average number of grid points per atom       ...     1248
UseSFitting                                  ... on

GRIDX 3
-------
General Integration Accuracy     IntAcc      ... 4.338
Radial Grid Type                 RadialGrid  ... OptM3 with GC (2021)
Angular Grid (max. ang.)         AngularGrid ... 3 (Lebedev-194)
Angular grid pruning method      GridPruning ... 4 (adaptive)
Weight generation scheme         WeightScheme... Becke
Basis function cutoff            BFCut       ... 1.0000e-11
Integration weight cutoff        WCut        ... 1.0000e-14
Angular grids for H and He will be reduced by one unit
Partially contracted basis set               ... on
Rotationally invariant grid construction     ... off

Total number of grid points                  ...    19270
Total number of batches                      ...      304
Average number of points per batch           ...       63
Average number of grid points per atom       ...     2753
UseSFitting                                  ... on

Time for X-Grid setup             =    0.072 sec

--------------
SCF ITERATIONS
--------------
ITER       Energy         Delta-E        Max-DP      RMS-DP      [F,P]     Damp
               ***  Starting incremental Fock matrix formation  ***
  0   -153.2121207256   0.000000000000 0.23689129  0.00621184  0.3937984 0.7000
  1   -153.3637823323  -0.151661606635 0.10036463  0.00254878  0.0970060 0.7000
                               ***Turning on DIIS***
  2   -153.3229979924   0.040784339848 0.06151394  0.00198004  0.1381735 0.7000
  3   -153.3857315368  -0.062733544420 0.16252120  0.00483148  0.0448155 0.0000
  4   -153.4525186810  -0.066787144109 0.00656740  0.00028137  0.1493234 0.7000
  5   -153.4564451655  -0.003926484542 0.00761033  0.00034616  0.1405758 0.7000
  6   -153.4588229887  -0.002377823207 0.00713432  0.00034058  0.1340893 0.7000
  7   -153.4599776532  -0.001154664463 0.00649783  0.00030911  0.1296646 0.7000
  8   -153.4606434720  -0.000665818871 0.03081290  0.00125442  0.1260064 0.7000
  9   -153.4801147424  -0.019471270333 0.04860119  0.00185464  0.0249744 0.0000
 10   -153.4693895298   0.010725212599 0.00634466  0.00020962  0.1240886 0.7000
 11   -153.4738770487  -0.004487518960 0.00718103  0.00024379  0.1106831 0.7000
 12   -153.4784504562  -0.004573407507 0.02050939  0.00072609  0.0950122 0.0000
 13   -153.4888470136  -0.010396557321 0.00586058  0.00023261  0.0462273 0.0000
 14   -153.4909892396  -0.002142226051 0.00638625  0.00024261  0.0286556 0.0000
 15   -153.4920627277  -0.001073488118 0.00351950  0.00011953  0.0094325 0.0000
                      *** Initiating the SOSCF procedure ***
                           *** Shutting down DIIS ***
                      *** Re-Reading the Fockian *** 
                      *** Removing any level shift *** 
ITER      Energy       Delta-E        Grad      Rot      Max-DP    RMS-DP
 16   -153.49223467  -0.0001719401  0.002019  0.002019  0.002479  0.000078
               *** Restarting incremental Fock matrix formation ***
 17   -153.49229379  -0.0000591216  0.001018  0.005002  0.002821  0.000146
 18   -153.49233267  -0.0000388795  0.001826  0.040872  0.013635  0.000530
 19   -153.49202722   0.0003054521  0.006880  0.030451  0.008899  0.000376
 20   -153.49236004  -0.0003328209  0.000621  0.004312  0.001985  0.000082
 21   -153.49235947   0.0000005636  0.000741  0.002979  0.001145  0.000050
 22   -153.49236961  -0.0000101386  0.000138  0.002159  0.000473  0.000022
 23   -153.49237065  -0.0000010370  0.000090  0.004765  0.001109  0.000048
 24   -153.49237170  -0.0000010500  0.000026  0.000193  0.000055  0.000003
 25   -153.49237172  -0.0000000161  0.000010  0.000033  0.000016  0.000001
                  ***Gradient check signals convergence***
              ***Rediagonalizing the Fockian in SOSCF/NRSCF***

               *****************************************************
               *                     SUCCESS                       *
               *           SCF CONVERGED AFTER  26 CYCLES          *
               *****************************************************

Old exchange energy                            =     -4.949077832 Eh
New exchange energy                            =     -4.949073943 Eh
Exchange energy change after final integration =      0.000003889 Eh
Total energy after final integration           =   -153.492367830 Eh
Final COS-X integration done in                =     0.255 sec

----------------
TOTAL SCF ENERGY
----------------

Total Energy       :         -153.49236783 Eh           -4176.73967 eV

Components:
Nuclear Repulsion  :           67.30609541 Eh            1831.49197 eV
Electronic Energy  :         -220.79846324 Eh           -6008.23164 eV
One Electron Energy:         -341.45754901 Eh           -9291.53228 eV
Two Electron Energy:          120.65908577 Eh            3283.30064 eV
Max COSX asymmetry :            0.00000210 Eh               0.00006 eV

Virial components:
Potential Energy   :         -306.37511540 Eh           -8336.89073 eV
Kinetic Energy     :          152.88274756 Eh            4160.15106 eV
Virial Ratio       :            2.00398750


DFT components:
N(Alpha)           :       12.000000384324 electrons
N(Beta)            :       12.000000384324 electrons
N(Total)           :       24.000000768648 electrons
E(X)               :      -14.884847048920 Eh       
E(C)               :       -0.771453793443 Eh       
E(XC)              :      -15.656300842363 Eh       
DFET-embed. en.    :        0.000000000000 Eh       

---------------
SCF CONVERGENCE
---------------

  Last Energy change         ...   -3.3143e-09  Tolerance :   1.0000e-08
  Last MAX-Density change    ...    1.3323e-15  Tolerance :   1.0000e-07
  Last RMS-Density change    ...    2.3458e-17  Tolerance :   5.0000e-09
  Last Orbital Gradient      ...    1.9551e-06  Tolerance :   1.0000e-05
  Last Orbital Rotation      ...    1.2446e-05  Tolerance :   1.0000e-05

             **** THE GBW FILE WAS UPDATED (ox_gs_G_orca0003.gbw) ****
             **** DENSITY ox_gs_G_orca0003.scfp WAS UPDATED ****
             **** ENERGY FILE WAS UPDATED (ox_gs_G_orca0003.en.tmp) ****
             **** THE GBW FILE WAS UPDATED (ox_gs_G_orca0003.gbw) ****
             **** DENSITY ox_gs_G_orca0003.scfp WAS UPDATED ****
----------------
ORBITAL ENERGIES
----------------

  NO   OCC          E(Eh)            E(eV) 
   0   2.0000     -19.173444      -521.7359 
   1   2.0000     -10.304782      -280.4074 
   2   2.0000     -10.286067      -279.8981 
   3   2.0000      -1.002245       -27.2725 
   4   2.0000      -0.773405       -21.0454 
   5   2.0000      -0.619798       -16.8655 
   6   2.0000      -0.522836       -14.2271 
   7   2.0000      -0.476053       -12.9541 
   8   2.0000      -0.438513       -11.9325 
   9   2.0000      -0.403679       -10.9847 
  10   2.0000      -0.252228        -6.8635 
  11   2.0000      -0.225769        -6.1435 
  12   0.0000      -0.168406        -4.5826 
  13   0.0000       0.046157         1.2560 
  14   0.0000       0.071197         1.9374 
  15   0.0000       0.091591         2.4923 
  16   0.0000       0.143319         3.8999 
  17   0.0000       0.152718         4.1557 
  18   0.0000       0.175631         4.7792 
  19   0.0000       0.218967         5.9584 
  20   0.0000       0.235411         6.4059 
  21   0.0000       0.240350         6.5403 
  22   0.0000       0.243997         6.6395 
  23   0.0000       0.340655         9.2697 
  24   0.0000       0.370974        10.0947 
  25   0.0000       0.394347        10.7307 
  26   0.0000       0.406500        11.0614 
  27   0.0000       0.414794        11.2871 
  28   0.0000       0.437676        11.9098 
  29   0.0000       0.456172        12.4131 
  30   0.0000       0.517206        14.0739 
  31   0.0000       0.530989        14.4489 
  32   0.0000       0.541166        14.7259 
  33   0.0000       0.605684        16.4815 
  34   0.0000       0.627715        17.0810 
  35   0.0000       0.727408        19.7938 
  36   0.0000       0.795778        21.6542 
  37   0.0000       0.866845        23.5881 
  38   0.0000       0.897323        24.4174 
  39   0.0000       0.916879        24.9495 
  40   0.0000       0.921292        25.0696 
  41   0.0000       0.999720        27.2038 
  42   0.0000       1.045217        28.4418 
  43   0.0000       1.116174        30.3726 
  44   0.0000       1.208775        32.8924 
  45   0.0000       1.343667        36.5630 
  46   0.0000       1.428179        38.8627 
  47   0.0000       1.436715        39.0950 
  48   0.0000       1.501424        40.8558 
  49   0.0000       1.526212        41.5303 
  50   0.0000       1.565742        42.6060 
  51   0.0000       1.590549        43.2810 
  52   0.0000       1.614643        43.9367 
  53   0.0000       1.639117        44.6026 
  54   0.0000       1.732624        47.1471 
  55   0.0000       1.760931        47.9174 
  56   0.0000       1.799125        48.9567 
  57   0.0000       1.850630        50.3582 
  58   0.0000       1.886464        51.3333 
  59   0.0000       1.965905        53.4950 
  60   0.0000       2.005407        54.5699 
  61   0.0000       2.031700        55.2854 
  62   0.0000       2.070120        56.3308 
  63   0.0000       2.226273        60.5800 
  64   0.0000       2.303857        62.6911 
  65   0.0000       2.328493        63.3615 
  66   0.0000       2.415143        65.7194 
  67   0.0000       2.469449        67.1971 
  68   0.0000       2.502691        68.1017 
  69   0.0000       2.540008        69.1171 
  70   0.0000       2.561918        69.7133 
  71   0.0000       2.599367        70.7324 
  72   0.0000       2.626156        71.4613 
  73   0.0000       2.665853        72.5416 
  74   0.0000       2.717961        73.9595 
  75   0.0000       2.824875        76.8687 
  76   0.0000       2.859215        77.8032 
  77   0.0000       2.993395        81.4544 
  78   0.0000       3.006063        81.7991 
  79   0.0000       3.021268        82.2129 
  80   0.0000       3.054330        83.1125 
  81   0.0000       3.073268        83.6279 
  82   0.0000       3.094883        84.2161 
  83   0.0000       3.149255        85.6956 
  84   0.0000       3.181159        86.5637 
  85   0.0000       3.265801        88.8670 
  86   0.0000       3.288160        89.4754 
  87   0.0000       3.386151        92.1419 
  88   0.0000       3.409895        92.7880 
  89   0.0000       3.453767        93.9818 
  90   0.0000       3.492036        95.0231 
  91   0.0000       3.663490        99.6886 
  92   0.0000       3.714142       101.0669 
  93   0.0000       3.814372       103.7943 
  94   0.0000       3.980880       108.3253 
  95   0.0000       4.018065       109.3371 
  96   0.0000       4.067308       110.6771 
  97   0.0000       4.256468       115.8244 
  98   0.0000       4.336451       118.0008 
  99   0.0000       4.509172       122.7008 
 100   0.0000       4.565738       124.2400 
 101   0.0000       4.716958       128.3550 
 102   0.0000       5.208071       141.7188 
 103   0.0000       5.220746       142.0637 
 104   0.0000       5.437055       147.9498 
 105   0.0000       5.481779       149.1668 
 106   0.0000       5.892790       160.3510 
 107   0.0000       5.972898       162.5308 
 108   0.0000       6.043826       164.4609 
 109   0.0000       6.404200       174.2672 
 110   0.0000       6.416842       174.6111 
 111   0.0000       6.865882       186.8302 
 112   0.0000       6.875748       187.0986 
 113   0.0000       6.974533       189.7867 
 114   0.0000      22.047043       599.9305 
 115   0.0000      22.536809       613.2578 
 116   0.0000      43.823052      1192.4859 

                    ********************************
                    * MULLIKEN POPULATION ANALYSIS *
                    ********************************

-----------------------
MULLIKEN ATOMIC CHARGES
-----------------------
   0 O :   -0.399924
   1 C :   -0.103658
   2 C :   -0.133999
   3 H :    0.107797
   4 H :    0.200812
   5 H :    0.171169
   6 H :    0.157805
Sum of atomic charges:   -0.0000000

--------------------------------
MULLIKEN REDUCED ORBITAL CHARGES
--------------------------------
  0 O s       :     3.884087  s :     3.884087
      pz      :     1.396685  p :     4.487637
      px      :     1.690799
      py      :     1.400153
      dz2     :     0.003260  d :     0.026763
      dxz     :     0.001218
      dyz     :     0.006419
      dx2y2   :     0.006724
      dxy     :     0.009141
      f0      :     0.000122  f :     0.001436
      f+1     :     0.000065
      f-1     :     0.000141
      f+2     :     0.000117
      f-2     :     0.000161
      f+3     :     0.000481
      f-3     :     0.000349
  1 C s       :     3.215712  s :     3.215712
      pz      :     1.008195  p :     2.714967
      px      :     0.879397
      py      :     0.827376
      dz2     :     0.013706  d :     0.161282
      dxz     :     0.024859
      dyz     :     0.038927
      dx2y2   :     0.044759
      dxy     :     0.039032
      f0      :     0.001260  f :     0.011697
      f+1     :     0.001260
      f-1     :     0.000572
      f+2     :     0.000985
      f-2     :     0.001215
      f+3     :     0.001962
      f-3     :     0.004443
  2 C s       :     3.309092  s :     3.309092
      pz      :     1.058044  p :     2.781079
      px      :     0.976378
      py      :     0.746658
      dz2     :     0.005890  d :     0.040295
      dxz     :     0.020255
      dyz     :     0.001988
      dx2y2   :     0.005128
      dxy     :     0.007034
      f0      :     0.000478  f :     0.003533
      f+1     :     0.001011
      f-1     :     0.000152
      f+2     :     0.000519
      f-2     :     0.000052
      f+3     :     0.000596
      f-3     :     0.000725
  3 H s       :     0.868322  s :     0.868322
      pz      :     0.010454  p :     0.023881
      px      :     0.006860
      py      :     0.006568
  4 H s       :     0.777607  s :     0.777607
      pz      :     0.009274  p :     0.021582
      px      :     0.006352
      py      :     0.005956
  5 H s       :     0.804385  s :     0.804385
      pz      :     0.011862  p :     0.024447
      px      :     0.007050
      py      :     0.005534
  6 H s       :     0.821084  s :     0.821084
      pz      :     0.011513  p :     0.021111
      px      :     0.005594
      py      :     0.004004


                     *******************************
                     * LOEWDIN POPULATION ANALYSIS *
                     *******************************

----------------------
LOEWDIN ATOMIC CHARGES
----------------------
   0 O :   -0.073459
   1 C :   -0.484192
   2 C :   -0.015377
   3 H :    0.109886
   4 H :    0.220032
   5 H :    0.104882
   6 H :    0.138228

-------------------------------
LOEWDIN REDUCED ORBITAL CHARGES
-------------------------------
  0 O s       :     3.524888  s :     3.524888
      pz      :     1.346372  p :     4.480070
      px      :     1.646163
      py      :     1.487534
      dz2     :     0.007112  d :     0.063992
      dxz     :     0.003092
      dyz     :     0.016481
      dx2y2   :     0.018425
      dxy     :     0.018883
      f0      :     0.000578  f :     0.004509
      f+1     :     0.000205
      f-1     :     0.000465
      f+2     :     0.000372
      f-2     :     0.000579
      f+3     :     0.001164
      f-3     :     0.001146
  1 C s       :     2.822826  s :     2.822826
      pz      :     1.009391  p :     2.960294
      px      :     1.015822
      py      :     0.935081
      dz2     :     0.076711  d :     0.621072
      dxz     :     0.089642
      dyz     :     0.108777
      dx2y2   :     0.189516
      dxy     :     0.156426
      f0      :     0.008687  f :     0.080000
      f+1     :     0.007783
      f-1     :     0.006219
      f+2     :     0.005846
      f-2     :     0.010343
      f+3     :     0.015971
      f-3     :     0.025152
  2 C s       :     2.950740  s :     2.950740
      pz      :     1.079421  p :     2.858399
      px      :     1.085725
      py      :     0.693252
      dz2     :     0.030138  d :     0.187510
      dxz     :     0.091824
      dyz     :     0.005167
      dx2y2   :     0.033176
      dxy     :     0.027204
      f0      :     0.003335  f :     0.018729
      f+1     :     0.003334
      f-1     :     0.000703
      f+2     :     0.003242
      f-2     :     0.000741
      f+3     :     0.003749
      f-3     :     0.003624
  3 H s       :     0.821163  s :     0.821163
      pz      :     0.031558  p :     0.068952
      px      :     0.018577
      py      :     0.018817
  4 H s       :     0.726978  s :     0.726978
      pz      :     0.024922  p :     0.052989
      px      :     0.014299
      py      :     0.013769
  5 H s       :     0.816371  s :     0.816371
      pz      :     0.038755  p :     0.078748
      px      :     0.022313
      py      :     0.017679
  6 H s       :     0.801803  s :     0.801803
      pz      :     0.033370  p :     0.059968
      px      :     0.015725
      py      :     0.010874


                      *****************************
                      * MAYER POPULATION ANALYSIS *
                      *****************************

  NA   - Mulliken gross atomic population
  ZA   - Total nuclear charge
  QA   - Mulliken gross atomic charge
  VA   - Mayer's total valence
  BVA  - Mayer's bonded valence
  FA   - Mayer's free valence

  ATOM       NA         ZA         QA         VA         BVA        FA
  0 O      8.3999     8.0000    -0.3999     1.8556     1.8556    -0.0000
  1 C      6.1037     6.0000    -0.1037     4.2083     4.2083    -0.0000
  2 C      6.1340     6.0000    -0.1340     3.6570     3.6570    -0.0000
  3 H      0.8922     1.0000     0.1078     0.9535     0.9535    -0.0000
  4 H      0.7992     1.0000     0.2008     0.9433     0.9433    -0.0000
  5 H      0.8288     1.0000     0.1712     0.9595     0.9595    -0.0000
  6 H      0.8422     1.0000     0.1578     0.9641     0.9641    -0.0000

  Mayer bond orders larger than 0.100000
B(  0-O ,  1-C ) :   1.2899 B(  0-O ,  2-C ) :   0.5620 B(  1-C ,  2-C ) :   1.1012 
B(  1-C ,  3-H ) :   0.9824 B(  1-C ,  4-H ) :   0.8254 B(  2-C ,  4-H ) :   0.1105 
B(  2-C ,  5-H ) :   0.9399 B(  2-C ,  6-H ) :   0.9454 

-------
TIMINGS
-------

Total SCF time: 0 days 0 hours 0 min 4 sec 

Total time                  ....       4.677 sec
Sum of individual times     ....       4.349 sec  ( 93.0%)

Fock matrix formation       ....       4.026 sec  ( 86.1%)
  Split-RI-J                ....       0.404 sec  ( 10.0% of F)
  Chain of spheres X        ....       2.704 sec  ( 67.2% of F)
  XC integration            ....       0.865 sec  ( 21.5% of F)
    Basis function eval.    ....       0.235 sec  ( 27.2% of XC)
    Density eval.           ....       0.178 sec  ( 20.6% of XC)
    XC-Functional eval.     ....       0.051 sec  (  5.8% of XC)
    XC-Potential eval.      ....       0.309 sec  ( 35.7% of XC)
Diagonalization             ....       0.039 sec  (  0.8%)
Density matrix formation    ....       0.003 sec  (  0.1%)
Population analysis         ....       0.003 sec  (  0.1%)
Initial guess               ....       0.016 sec  (  0.3%)
Orbital Transformation      ....       0.000 sec  (  0.0%)
Orbital Orthonormalization  ....       0.000 sec  (  0.0%)
DIIS solution               ....       0.037 sec  (  0.8%)
SOSCF solution              ....       0.022 sec  (  0.5%)
Grid generation             ....       0.203 sec  (  4.3%)

Maximum memory used throughout the entire SCF-calculation: 61.0 MB


-------------------------------------------------------------------------------
                          DFT DISPERSION CORRECTION                            
                                                                               
                              DFTD3 V3.1  Rev 1                                
                          USING Becke-Johnson damping                          
-------------------------------------------------------------------------------
The PBE0 functional is recognized
Active option DFTDOPT                   ...         4   

molecular C6(AA) [au] = 395.300718 


            DFT-D V3
 parameters
 s6 scaling factor         :     1.0000 
 a1 scaling factor         :     0.4145 
 s8 scaling factor         :     1.2177 
 a2 scaling factor         :     4.8593 
 ad hoc parameters k1-k3   :    16.0000     1.3333    -4.0000 

 Edisp/kcal,au: -1.623517463294  -0.002587239488 
 E6   /kcal   :  -1.058946793 
 E8   /kcal   :  -0.564570671 
 % E8         :  34.774536366 

-------------------------   ----------------
Dispersion correction           -0.002587239
-------------------------   ----------------


-------------------------   --------------------
FINAL SINGLE POINT ENERGY      -153.494955069677
-------------------------   --------------------



           ************************************************************
           *        Program running with 8 parallel MPI-processes     *
           *              working on a common directory               *
           ************************************************************
------------------------------------------------------------------------------
                         ORCA SCF GRADIENT CALCULATION
------------------------------------------------------------------------------

 ... reading COSX grid (gridx3)
Gradient of the Kohn-Sham DFT energy:
Kohn-Sham wavefunction type      ... RKS
Hartree-Fock exchange scaling    ...    0.250
Number of operators              ...    1
Number of atoms                  ...    7
Basis set dimensions             ...  117
Integral neglect threshold       ... 2.5e-11
Integral primitive cutoff        ... 2.5e-12
SHARK Integral package           ... ON

Nuc. rep. gradient       (SHARK) ... done (  0.0 sec)
HCore & Overlap gradient (SHARK) ... done (  0.0 sec)
RI-J gradient            (SHARK) ... done (  0.1 sec)
COSX-gradient                    ... done (  0.3 sec)
Exchange-correlation gradient    ... done
Dispersion correction            ... done

------------------
CARTESIAN GRADIENT
------------------

   1   O   :   -0.011049305   -0.037247873    0.034866594
   2   C   :    0.002559165   -0.021855480   -0.000631534
   3   C   :    0.051334657    0.005287207   -0.055585353
   4   H   :   -0.002129491    0.046993675   -0.026924381
   5   H   :   -0.024160115    0.010273341   -0.018512703
   6   H   :   -0.024829921   -0.008270358    0.037414752
   7   H   :    0.008243986    0.004669051    0.029302912

Difference to translation invariance:
           :   -0.0000310245   -0.0001504367   -0.0000697133

Difference to rotation invariance:
           :   -0.0001114994   -0.0001488789    0.0007855713

Norm of the cartesian gradient     ...    0.1263556912
RMS gradient                       ...    0.0275730723
MAX gradient                       ...    0.0555853533

-------
TIMINGS
-------

Total SCF gradient time            ...        0.674 sec

One electron gradient       ....       0.010 sec  (  1.4%)
RI-J Coulomb gradient       ....       0.074 sec  ( 11.0%)
COSX gradient               ....       0.306 sec  ( 45.4%)
XC gradient                 ....       0.145 sec  ( 21.6%)

Maximum memory used throughout the entire SCFGRAD-calculation: 35.9 MB

                            ***************************************
                            *     ORCA property calculations      *
                            ***************************************

                                    ---------------------
                                    Active property flags
                                    ---------------------
   (+) Dipole Moment


------------------------------------------------------------------------------
                       ORCA ELECTRIC PROPERTIES CALCULATION
------------------------------------------------------------------------------

Dipole Moment Calculation                       ... on
Quadrupole Moment Calculation                   ... off
Polarizability Calculation                      ... off
GBWName                                         ... ox_gs_G_orca0003.gbw
Electron density                                ... ox_gs_G_orca0003.scfp
The origin for moment calculation is the CENTER OF MASS  = (-0.956521,  0.071306  0.066769)

-------------
DIPOLE MOMENT
-------------
                                X             Y             Z
Electronic contribution:     -0.88326       1.49593      -0.04418
Nuclear contribution   :      1.90735      -2.60809       0.01625
                        -----------------------------------------
Total Dipole Moment    :      1.02409      -1.11216      -0.02793
                        -----------------------------------------
Magnitude (a.u.)       :      1.51210
Magnitude (Debye)      :      3.84345



--------------------
Rotational spectrum 
--------------------
 
Rotational constants in cm-1:     1.745211     0.307059     0.292925 
Rotational constants in MHz : 52320.122014  9205.397488  8781.664688 

 Dipole components along the rotational axes: 
x,y,z [a.u.] :     1.437635    -0.467479     0.033269 
x,y,z [Debye]:     3.654179    -1.188238     0.084562 

 

Timings for individual modules:

Sum of individual times         ...        5.987 sec (=   0.100 min)
GTO integral calculation        ...        0.287 sec (=   0.005 min)   4.8 %
SCF iterations                  ...        4.835 sec (=   0.081 min)  80.8 %
SCF Gradient evaluation         ...        0.866 sec (=   0.014 min)  14.5 %
                             ****ORCA TERMINATED NORMALLY****
TOTAL RUN TIME: 0 days 0 hours 0 minutes 6 seconds 234 msec
