
                                 *****************
                                 * O   R   C   A *
                                 *****************

                                            #,                                       
                                            ###                                      
                                            ####                                     
                                            #####                                    
                                            ######                                   
                                           ########,                                 
                                     ,,################,,,,,                         
                               ,,#################################,,                 
                          ,,##########################################,,             
                       ,#########################################, ''#####,          
                    ,#############################################,,   '####,        
                  ,##################################################,,,,####,       
                ,###########''''           ''''###############################       
              ,#####''   ,,,,##########,,,,          '''####'''          '####       
            ,##' ,,,,###########################,,,                        '##       
           ' ,,###''''                  '''############,,,                           
         ,,##''                                '''############,,,,        ,,,,,,###''
      ,#''                                            '''#######################'''  
     '                                                          ''''####''''         
             ,#######,   #######,   ,#######,      ##                                
            ,#'     '#,  ##    ##  ,#'     '#,    #''#        ######   ,####,        
            ##       ##  ##   ,#'  ##            #'  '#       #        #'  '#        
            ##       ##  #######   ##           ,######,      #####,   #    #        
            '#,     ,#'  ##    ##  '#,     ,#' ,#      #,         ##   #,  ,#        
             '#######'   ##     ##  '#######'  #'      '#     #####' # '####'        



                  #######################################################
                  #                        -***-                        #
                  #          Department of theory and spectroscopy      #
                  #    Directorship and core code : Frank Neese         #
                  #        Max Planck Institute fuer Kohlenforschung    #
                  #                Kaiser Wilhelm Platz 1               #
                  #                 D-45470 Muelheim/Ruhr               #
                  #                      Germany                        #
                  #                                                     #
                  #                  All rights reserved                #
                  #                        -***-                        #
                  #######################################################


                         Program Version 5.0.2 -  RELEASE  -


 With contributions from (in alphabetic order):
   Daniel Aravena         : Magnetic Suceptibility
   Michael Atanasov       : Ab Initio Ligand Field Theory (pilot matlab implementation)
   Alexander A. Auer      : GIAO ZORA, VPT2 properties, NMR spectrum
   Ute Becker             : Parallelization
   Giovanni Bistoni       : ED, misc. LED, open-shell LED, HFLD
   Martin Brehm           : Molecular dynamics
   Dmytro Bykov           : SCF Hessian
   Vijay G. Chilkuri      : MRCI spin determinant printing, contributions to CSF-ICE
   Dipayan Datta          : RHF DLPNO-CCSD density
   Achintya Kumar Dutta   : EOM-CC, STEOM-CC
   Dmitry Ganyushin       : Spin-Orbit,Spin-Spin,Magnetic field MRCI
   Miquel Garcia          : C-PCM and meta-GGA Hessian, CC/C-PCM, Gaussian charge scheme
   Yang Guo               : DLPNO-NEVPT2, F12-NEVPT2, CIM, IAO-localization
   Andreas Hansen         : Spin unrestricted coupled pair/coupled cluster methods
   Benjamin Helmich-Paris : MC-RPA, TRAH-SCF, COSX integrals
   Lee Huntington         : MR-EOM, pCC
   Robert Izsak           : Overlap fitted RIJCOSX, COSX-SCS-MP3, EOM
   Marcus Kettner         : VPT2
   Christian Kollmar      : KDIIS, OOCD, Brueckner-CCSD(T), CCSD density, CASPT2, CASPT2-K
   Simone Kossmann        : Meta GGA functionals, TD-DFT gradient, OOMP2, MP2 Hessian
   Martin Krupicka        : Initial AUTO-CI
   Lucas Lang             : DCDCAS
   Marvin Lechner         : AUTO-CI (C++ implementation), FIC-MRCC
   Dagmar Lenk            : GEPOL surface, SMD
   Dimitrios Liakos       : Extrapolation schemes; Compound Job, initial MDCI parallelization
   Dimitrios Manganas     : Further ROCIS development; embedding schemes
   Dimitrios Pantazis     : SARC Basis sets
   Anastasios Papadopoulos: AUTO-CI, single reference methods and gradients
   Taras Petrenko         : DFT Hessian,TD-DFT gradient, ASA, ECA, R-Raman, ABS, FL, XAS/XES, NRVS
   Peter Pinski           : DLPNO-MP2, DLPNO-MP2 Gradient
   Christoph Reimann      : Effective Core Potentials
   Marius Retegan         : Local ZFS, SOC
   Christoph Riplinger    : Optimizer, TS searches, QM/MM, DLPNO-CCSD(T), (RO)-DLPNO pert. Triples
   Tobias Risthaus        : Range-separated hybrids, TD-DFT gradient, RPA, STAB
   Michael Roemelt        : Original ROCIS implementation
   Masaaki Saitow         : Open-shell DLPNO-CCSD energy and density
   Barbara Sandhoefer     : DKH picture change effects
   Avijit Sen             : IP-ROCIS
   Kantharuban Sivalingam : CASSCF convergence, NEVPT2, FIC-MRCI
   Bernardo de Souza      : ESD, SOC TD-DFT
   Georgi Stoychev        : AutoAux, RI-MP2 NMR, DLPNO-MP2 response
   Willem Van den Heuvel  : Paramagnetic NMR
   Boris Wezisla          : Elementary symmetry handling
   Frank Wennmohs         : Technical directorship


 We gratefully acknowledge several colleagues who have allowed us to
 interface, adapt or use parts of their codes:
   Stefan Grimme, W. Hujo, H. Kruse, P. Pracht,  : VdW corrections, initial TS optimization,
                  C. Bannwarth, S. Ehlert          DFT functionals, gCP, sTDA/sTD-DF
   Ed Valeev, F. Pavosevic, A. Kumar             : LibInt (2-el integral package), F12 methods
   Garnet Chan, S. Sharma, J. Yang, R. Olivares  : DMRG
   Ulf Ekstrom                                   : XCFun DFT Library
   Mihaly Kallay                                 : mrcc  (arbitrary order and MRCC methods)
   Jiri Pittner, Ondrej Demel                    : Mk-CCSD
   Frank Weinhold                                : gennbo (NPA and NBO analysis)
   Christopher J. Cramer and Donald G. Truhlar   : smd solvation model
   Lars Goerigk                                  : TD-DFT with DH, B97 family of functionals
   V. Asgeirsson, H. Jonsson                     : NEB implementation
   FAccTs GmbH                                   : IRC, NEB, NEB-TS, DLPNO-Multilevel, CI-OPT
                                                   MM, QMMM, 2- and 3-layer-ONIOM, Crystal-QMMM,
                                                   LR-CPCM, SF, NACMEs, symmetry and pop. for TD-DFT,
                                                   nearIR, NL-DFT gradient (VV10), updates on ESD,
                                                   ML-optimized integration grids
   S Lehtola, MJT Oliveira, MAL Marques          : LibXC Library
   Liviu Ungur et al                             : ANISO software


 Your calculation uses the libint2 library for the computation of 2-el integrals
 For citations please refer to: http://libint.valeyev.net

 Your ORCA version has been built with support for libXC version: 5.1.0
 For citations please refer to: https://tddft.org/programs/libxc/

 This ORCA versions uses:
   CBLAS   interface :  Fast vector & matrix operations
   LAPACKE interface :  Fast linear algebra routines
   SCALAPACK package :  Parallel linear algebra routines
   Shared memory     :  Shared parallel matrices
   BLAS/LAPACK       :  OpenBLAS 0.3.15  USE64BITINT DYNAMIC_ARCH NO_AFFINITY SkylakeX SINGLE_THREADED
        Core in use  :  SkylakeX
   Copyright (c) 2011-2014, The OpenBLAS Project


Your calculation utilizes the atom-pairwise dispersion correction
with the Becke-Johnson damping scheme (D3BJ)
Cite in your paper:
S.Grimme, S.Ehrlich, L.Goerigk, J Comput Chem, (2011), 32, 1456–1465 
S.Grimme, J.Antony, S.Ehrlich and H.Krieg, J.Chem.Phys., 132, (2010), 154104 
   

================================================================================

----- Orbital basis set information -----
Your calculation utilizes the basis: def2-TZVP
   F. Weigend and R. Ahlrichs, Phys. Chem. Chem. Phys. 7, 3297 (2005).

----- AuxJ basis set information -----
Your calculation utilizes the auxiliary basis: def2/J
   F. Weigend, Phys. Chem. Chem. Phys. 8, 1057 (2006).

================================================================================
                                        WARNINGS
                       Please study these warnings very carefully!
================================================================================


INFO   : the flag for use of the SHARK integral package has been found!

================================================================================
                                       INPUT FILE
================================================================================
NAME = ox_gs_B_orca0004.inp
|  1> ! engrad PBE0 D3BJ def2-TZVP  
|  2> %pal nprocs 8 end
|  3> %maxcore 3000
|  4>  
|  5> *xyz 0 1 
|  6> O   -0.23637634762484458 0.8620416774622928 0.0383685573551824
|  7> C   -0.6796435979045051 -0.4334786975586598 0.06959930967232036
|  8> C   0.7328816556504314 -0.4670187190348261 -0.051392527934095295
|  9> H   -1.2930588405630392 -0.6274411136726079 0.9158788674086668
| 10> H   -1.2810610707127321 -0.6418565027351304 -0.9734256591740066
| 11> H   1.2382287545436592 -0.6537105920128469 -0.8916495351823214
| 12> H   1.2890024579555601 -0.6540060257609072 0.9441905756374875
| 13> *
| 14> 
| 15>                          ****END OF INPUT****
================================================================================

                     *******************************
                     * Energy+Gradient Calculation *
                     *******************************

---------------------------------
CARTESIAN COORDINATES (ANGSTROEM)
---------------------------------
  O     -0.236376    0.862042    0.038369
  C     -0.679644   -0.433479    0.069599
  C      0.732882   -0.467019   -0.051393
  H     -1.293059   -0.627441    0.915879
  H     -1.281061   -0.641857   -0.973426
  H      1.238229   -0.653711   -0.891650
  H      1.289002   -0.654006    0.944191

----------------------------
CARTESIAN COORDINATES (A.U.)
----------------------------
  NO LB      ZA    FRAG     MASS         X           Y           Z
   0 O     8.0000    0    15.999   -0.446687    1.629023    0.072506
   1 C     6.0000    0    12.011   -1.284340   -0.819156    0.131524
   2 C     6.0000    0    12.011    1.384946   -0.882537   -0.097118
   3 H     1.0000    0     1.008   -2.443527   -1.185692    1.730760
   4 H     1.0000    0     1.008   -2.420855   -1.212933   -1.839508
   5 H     1.0000    0     1.008    2.339913   -1.235334   -1.684973
   6 H     1.0000    0     1.008    2.435862   -1.235892    1.784262

--------------------------------
INTERNAL COORDINATES (ANGSTROEM)
--------------------------------
 O      0   0   0     0.000000000000     0.00000000     0.00000000
 C      1   0   0     1.369610987527     0.00000000     0.00000000
 C      2   1   0     1.418094337390    72.42540997     0.00000000
 H      2   1   3     1.063056333706   112.17844729   126.44215387
 H      2   1   3     1.221894173784   107.52638104   249.22309637
 H      3   2   1     0.998128941583   125.48959173   257.41220822
 H      3   2   1     1.155603874929   114.18410326    99.30733825

---------------------------
INTERNAL COORDINATES (A.U.)
---------------------------
 O      0   0   0     0.000000000000     0.00000000     0.00000000
 C      1   0   0     2.588189676436     0.00000000     0.00000000
 C      2   1   0     2.679809929732    72.42540997     0.00000000
 H      2   1   3     2.008885335635   112.17844729   126.44215387
 H      2   1   3     2.309045353085   107.52638104   249.22309637
 H      3   2   1     1.886190345933   125.48959173   257.41220822
 H      3   2   1     2.183774842914   114.18410326    99.30733825

---------------------
BASIS SET INFORMATION
---------------------
There are 3 groups of distinct atoms

 Group   1 Type O   : 11s6p2d1f contracted to 5s3p2d1f pattern {62111/411/11/1}
 Group   2 Type C   : 11s6p2d1f contracted to 5s3p2d1f pattern {62111/411/11/1}
 Group   3 Type H   : 5s1p contracted to 3s1p pattern {311/1}

Atom   0O    basis set group =>   1
Atom   1C    basis set group =>   2
Atom   2C    basis set group =>   2
Atom   3H    basis set group =>   3
Atom   4H    basis set group =>   3
Atom   5H    basis set group =>   3
Atom   6H    basis set group =>   3
---------------------------------
AUXILIARY/J BASIS SET INFORMATION
---------------------------------
There are 3 groups of distinct atoms

 Group   1 Type O   : 12s5p4d2f1g contracted to 6s4p3d1f1g pattern {711111/2111/211/2/1}
 Group   2 Type C   : 12s5p4d2f1g contracted to 6s4p3d1f1g pattern {711111/2111/211/2/1}
 Group   3 Type H   : 5s2p1d contracted to 3s1p1d pattern {311/2/1}

Atom   0O    basis set group =>   1
Atom   1C    basis set group =>   2
Atom   2C    basis set group =>   2
Atom   3H    basis set group =>   3
Atom   4H    basis set group =>   3
Atom   5H    basis set group =>   3
Atom   6H    basis set group =>   3


           ************************************************************
           *        Program running with 8 parallel MPI-processes     *
           *              working on a common directory               *
           ************************************************************
------------------------------------------------------------------------------
                           ORCA GTO INTEGRAL CALCULATION
                           -- RI-GTO INTEGRALS CHOSEN --
------------------------------------------------------------------------------
------------------------------------------------------------------------------
                   ___                                                        
                  /   \      - P O W E R E D   B Y -                         
                 /     \                                                     
                 |  |  |   _    _      __       _____    __    __             
                 |  |  |  | |  | |    /  \     |  _  \  |  |  /  |          
                  \  \/   | |  | |   /    \    | | | |  |  | /  /          
                 / \  \   | |__| |  /  /\  \   | |_| |  |  |/  /          
                |  |  |   |  __  | /  /__\  \  |    /   |      \           
                |  |  |   | |  | | |   __   |  |    \   |  |\   \          
                \     /   | |  | | |  |  |  |  | |\  \  |  | \   \       
                 \___/    |_|  |_| |__|  |__|  |_| \__\ |__|  \__/        
                                                                              
                      - O R C A' S   B I G   F R I E N D -                    
                                      &                                       
                       - I N T E G R A L  F E E D E R -                       
                                                                              
 v1 FN, 2020, v2 2021                                                         
------------------------------------------------------------------------------


Reading SHARK input file ox_gs_B_orca0004.SHARKINP.tmp ... ok
----------------------
SHARK INTEGRAL PACKAGE
----------------------

Number of atoms                             ...      7
Number of basis functions                   ...    117
Number of shells                            ...     49
Maximum angular momentum                    ...      3
Integral batch strategy                     ... SHARK/LIBINT Hybrid
RI-J (if used) integral strategy            ... SPLIT-RIJ (Revised 2003 algorithm where possible)
Printlevel                                  ...      1
Contraction scheme used                     ... SEGMENTED contraction
Coulomb Range Separation                    ... NOT USED
Exchange Range Separation                   ... NOT USED
Finite Nucleus Model                        ... NOT USED
Auxiliary Coulomb fitting basis             ... AVAILABLE
   # of basis functions in Aux-J            ...    191
   # of shells in Aux-J                     ...     65
   Maximum angular momentum in Aux-J        ...      4
Auxiliary J/K fitting basis                 ... NOT available
Auxiliary Correlation fitting basis         ... NOT available
Auxiliary 'external' fitting basis          ... NOT available
Integral threshold                          ...     2.500000e-11
Primitive cut-off                           ...     2.500000e-12
Primitive pair pre-selection threshold      ...     2.500000e-12

Calculating pre-screening integrals         ... done (  0.0 sec) Dimension = 49
Organizing shell pair data                  ... done (  0.0 sec)
Shell pair information
Total number of shell pairs                 ...      1225
Shell pairs after pre-screening             ...      1221
Total number of primitive shell pairs       ...      3648
Primitive shell pairs kept                  ...      3148
          la=0 lb=0:    374 shell pairs
          la=1 lb=0:    351 shell pairs
          la=1 lb=1:     91 shell pairs
          la=2 lb=0:    162 shell pairs
          la=2 lb=1:     78 shell pairs
          la=2 lb=2:     21 shell pairs
          la=3 lb=0:     81 shell pairs
          la=3 lb=1:     39 shell pairs
          la=3 lb=2:     18 shell pairs
          la=3 lb=3:      6 shell pairs

Calculating one electron integrals          ... done (  0.0 sec)
Calculating RI/J V-Matrix + Cholesky decomp.... done (  0.0 sec)
Calculating Nuclear repulsion               ... done (  0.0 sec) ENN=     73.767925257827 Eh

SHARK setup successfully completed in   0.1 seconds

Maximum memory used throughout the entire GTOINT-calculation: 14.9 MB


           ************************************************************
           *        Program running with 8 parallel MPI-processes     *
           *              working on a common directory               *
           ************************************************************
-------------------------------------------------------------------------------
                                 ORCA SCF
-------------------------------------------------------------------------------

------------
SCF SETTINGS
------------
Hamiltonian:
 Density Functional     Method          .... DFT(GTOs)
 Exchange Functional    Exchange        .... PBE
   PBE kappa parameter   XKappa         ....  0.804000
   PBE mue parameter    XMuePBE         ....  0.219520
 Correlation Functional Correlation     .... PBE
   PBE beta parameter  CBetaPBE         ....  0.066725
 LDA part of GGA corr.  LDAOpt          .... PW91-LDA
 Gradients option       PostSCFGGA      .... off
 Hybrid DFT is turned on
   Fraction HF Exchange ScalHFX         ....  0.250000
   Scaling of DF-GGA-X  ScalDFX         ....  0.750000
   Scaling of DF-GGA-C  ScalDFC         ....  1.000000
   Scaling of DF-LDA-C  ScalLDAC        ....  1.000000
   Perturbative correction              ....  0.000000
   Density functional embedding theory  .... OFF
   NL short-range parameter             ....  6.900000
 RI-approximation to the Coulomb term is turned on
   Number of AuxJ basis functions       .... 191
   RIJ-COSX (HFX calculated with COS-X)).... on


General Settings:
 Integral files         IntName         .... ox_gs_B_orca0004
 Hartree-Fock type      HFTyp           .... RHF
 Total Charge           Charge          ....    0
 Multiplicity           Mult            ....    1
 Number of Electrons    NEL             ....   24
 Basis Dimension        Dim             ....  117
 Nuclear Repulsion      ENuc            ....     73.7679252578 Eh

Convergence Acceleration:
 DIIS                   CNVDIIS         .... on
   Start iteration      DIISMaxIt       ....    12
   Startup error        DIISStart       ....  0.200000
   # of expansion vecs  DIISMaxEq       ....     5
   Bias factor          DIISBfac        ....   1.050
   Max. coefficient     DIISMaxC        ....  10.000
 Trust-Rad. Augm. Hess. CNVTRAH         .... auto
   Auto Start mean grad. ratio tolernc. ....  1.125000
   Auto Start start iteration           ....    20
   Auto Start num. interpolation iter.  ....    10
   Max. Number of Micro iterations      ....    16
   Max. Number of Macro iterations      .... Maxiter - #DIIS iter
   Number of Davidson start vectors     ....     2
   Converg. threshold I  (grad. norm)   ....   1.000e-05
   Converg. threshold II (energy diff.) ....   1.000e-08
   Grad. Scal. Fac. for Micro threshold ....   0.100
   Minimum threshold for Micro iter.    ....   0.010
   NR start threshold (gradient norm)   ....   0.001
   Initial trust radius                 ....   0.400
   Minimum AH scaling param. (alpha)    ....   1.000
   Maximum AH scaling param. (alpha)    .... 1000.000
   Orbital update algorithm             .... Taylor
   White noise on init. David. guess    .... on
   Maximum white noise                  ....   0.010
   Quad. conv. algorithm                .... NR
 SOSCF                  CNVSOSCF        .... on
   Start iteration      SOSCFMaxIt      ....   150
   Startup grad/error   SOSCFStart      ....  0.003300
 Level Shifting         CNVShift        .... on
   Level shift para.    LevelShift      ....    0.2500
   Turn off err/grad.   ShiftErr        ....    0.0010
 Zerner damping         CNVZerner       .... off
 Static damping         CNVDamp         .... on
   Fraction old density DampFac         ....    0.7000
   Max. Damping (<1)    DampMax         ....    0.9800
   Min. Damping (>=0)   DampMin         ....    0.0000
   Turn off err/grad.   DampErr         ....    0.1000
 Fernandez-Rico         CNVRico         .... off

SCF Procedure:
 Maximum # iterations   MaxIter         ....   125
 SCF integral mode      SCFMode         .... Direct
   Integral package                     .... SHARK and LIBINT hybrid scheme
 Reset frequency        DirectResetFreq ....    20
 Integral Threshold     Thresh          ....  2.500e-11 Eh
 Primitive CutOff       TCut            ....  2.500e-12 Eh

Convergence Tolerance:
 Convergence Check Mode ConvCheckMode   .... Total+1el-Energy
 Convergence forced     ConvForced      .... 0
 Energy Change          TolE            ....  1.000e-08 Eh
 1-El. energy change                    ....  1.000e-05 Eh
 Orbital Gradient       TolG            ....  1.000e-05
 Orbital Rotation angle TolX            ....  1.000e-05
 DIIS Error             TolErr          ....  5.000e-07


Diagonalization of the overlap matrix:
Smallest eigenvalue                        ... 2.993e-04
Time for diagonalization                   ...    0.001 sec
Threshold for overlap eigenvalues          ... 1.000e-08
Number of eigenvalues below threshold      ... 0
Time for construction of square roots      ...    0.001 sec
Total time needed                          ...    0.003 sec

Time for model grid setup =    0.021 sec

------------------------------
INITIAL GUESS: MODEL POTENTIAL
------------------------------
Loading Hartree-Fock densities                     ... done
Calculating cut-offs                               ... done
Initializing the effective Hamiltonian             ... done
Setting up the integral package (SHARK)            ... done
Starting the Coulomb interaction                   ... done (   0.0 sec)
Reading the grid                                   ... done
Mapping shells                                     ... done
Starting the XC term evaluation                    ... done (   0.0 sec)
  promolecular density results
     # of electrons  =     23.996845137
     EX              =    -19.514994633
     EC              =     -0.777402881
     EX+EC           =    -20.292397514
Transforming the Hamiltonian                       ... done (   0.0 sec)
Diagonalizing the Hamiltonian                      ... done (   0.0 sec)
Back transforming the eigenvectors                 ... done (   0.0 sec)
Now organizing SCF variables                       ... done
                      ------------------
                      INITIAL GUESS DONE (   0.0 sec)
                      ------------------
-------------------
DFT GRID GENERATION
-------------------

General Integration Accuracy     IntAcc      ... 4.388
Radial Grid Type                 RadialGrid  ... OptM3 with GC (2021)
Angular Grid (max. ang.)         AngularGrid ... 4 (Lebedev-302)
Angular grid pruning method      GridPruning ... 4 (adaptive)
Weight generation scheme         WeightScheme... Becke
Basis function cutoff            BFCut       ... 1.0000e-11
Integration weight cutoff        WCut        ... 1.0000e-14
Angular grids for H and He will be reduced by one unit
Partially contracted basis set               ... off
Rotationally invariant grid construction     ... off

Total number of grid points                  ...    31313
Total number of batches                      ...      492
Average number of points per batch           ...       63
Average number of grid points per atom       ...     4473
Time for grid setup =    0.112 sec

--------------------
COSX GRID GENERATION
--------------------

GRIDX 1
-------
General Integration Accuracy     IntAcc      ... 3.816
Radial Grid Type                 RadialGrid  ... OptM3 with GC (2021)
Angular Grid (max. ang.)         AngularGrid ... 1 (Lebedev-50)
Angular grid pruning method      GridPruning ... 4 (adaptive)
Weight generation scheme         WeightScheme... Becke
Basis function cutoff            BFCut       ... 1.0000e-11
Integration weight cutoff        WCut        ... 1.0000e-14
Angular grids for H and He will be reduced by one unit
Partially contracted basis set               ... on
Rotationally invariant grid construction     ... off

Total number of grid points                  ...     4040
Total number of batches                      ...       68
Average number of points per batch           ...       59
Average number of grid points per atom       ...      577
UseSFitting                                  ... on

GRIDX 2
-------
General Integration Accuracy     IntAcc      ... 4.020
Radial Grid Type                 RadialGrid  ... OptM3 with GC (2021)
Angular Grid (max. ang.)         AngularGrid ... 2 (Lebedev-110)
Angular grid pruning method      GridPruning ... 4 (adaptive)
Weight generation scheme         WeightScheme... Becke
Basis function cutoff            BFCut       ... 1.0000e-11
Integration weight cutoff        WCut        ... 1.0000e-14
Angular grids for H and He will be reduced by one unit
Partially contracted basis set               ... on
Rotationally invariant grid construction     ... off

Total number of grid points                  ...     8733
Total number of batches                      ...      141
Average number of points per batch           ...       61
Average number of grid points per atom       ...     1248
UseSFitting                                  ... on

GRIDX 3
-------
General Integration Accuracy     IntAcc      ... 4.338
Radial Grid Type                 RadialGrid  ... OptM3 with GC (2021)
Angular Grid (max. ang.)         AngularGrid ... 3 (Lebedev-194)
Angular grid pruning method      GridPruning ... 4 (adaptive)
Weight generation scheme         WeightScheme... Becke
Basis function cutoff            BFCut       ... 1.0000e-11
Integration weight cutoff        WCut        ... 1.0000e-14
Angular grids for H and He will be reduced by one unit
Partially contracted basis set               ... on
Rotationally invariant grid construction     ... off

Total number of grid points                  ...    19250
Total number of batches                      ...      306
Average number of points per batch           ...       62
Average number of grid points per atom       ...     2750
UseSFitting                                  ... on

Time for X-Grid setup             =    0.073 sec

--------------
SCF ITERATIONS
--------------
ITER       Energy         Delta-E        Max-DP      RMS-DP      [F,P]     Damp
               ***  Starting incremental Fock matrix formation  ***
  0   -153.5617344977   0.000000000000 0.03497630  0.00122350  0.1875750 0.7000
  1   -153.5936019563  -0.031867458629 0.01856612  0.00087464  0.0719669 0.7000
                               ***Turning on DIIS***
  2   -153.6056618081  -0.012059851728 0.03054379  0.00141622  0.0345336 0.0000
  3   -153.6259978384  -0.020336030364 0.01519561  0.00067840  0.0406524 0.0000
  4   -153.6298031412  -0.003805302794 0.00493102  0.00019673  0.0126692 0.0000
  5   -153.6301200626  -0.000316921415 0.00140906  0.00006259  0.0038668 0.0000
                      *** Initiating the SOSCF procedure ***
                           *** Shutting down DIIS ***
                      *** Re-Reading the Fockian *** 
                      *** Removing any level shift *** 
ITER      Energy       Delta-E        Grad      Rot      Max-DP    RMS-DP
  6   -153.63014655  -0.0000264832  0.000123  0.000123  0.000947  0.000030
               *** Restarting incremental Fock matrix formation ***
  7   -153.63015089  -0.0000043485  0.000122  0.000357  0.000235  0.000009
  8   -153.63015066   0.0000002319  0.000226  0.000247  0.000145  0.000006
  9   -153.63015106  -0.0000004008  0.000035  0.000048  0.000070  0.000002
 10   -153.63015104   0.0000000199  0.000053  0.000030  0.000043  0.000002
                  ***Gradient check signals convergence***
              ***Rediagonalizing the Fockian in SOSCF/NRSCF***

               *****************************************************
               *                     SUCCESS                       *
               *           SCF CONVERGED AFTER  11 CYCLES          *
               *****************************************************

Old exchange energy                            =     -4.982929228 Eh
New exchange energy                            =     -4.982943743 Eh
Exchange energy change after final integration =     -0.000014516 Eh
Total energy after final integration           =   -153.630165596 Eh
Final COS-X integration done in                =     0.258 sec

----------------
TOTAL SCF ENERGY
----------------

Total Energy       :         -153.63016560 Eh           -4180.48934 eV

Components:
Nuclear Repulsion  :           73.76792526 Eh            2007.32730 eV
Electronic Energy  :         -227.39809085 Eh           -6187.81663 eV
One Electron Energy:         -354.22346869 Eh           -9638.91062 eV
Two Electron Energy:          126.82537783 Eh            3451.09398 eV
Max COSX asymmetry :            0.00000195 Eh               0.00005 eV

Virial components:
Potential Energy   :         -306.52720251 Eh           -8341.02923 eV
Kinetic Energy     :          152.89703691 Eh            4160.53989 eV
Virial Ratio       :            2.00479492


DFT components:
N(Alpha)           :       11.999998024806 electrons
N(Beta)            :       11.999998024806 electrons
N(Total)           :       23.999996049613 electrons
E(X)               :      -14.930434509576 Eh       
E(C)               :       -0.785377246720 Eh       
E(XC)              :      -15.715811756296 Eh       
DFET-embed. en.    :        0.000000000000 Eh       

---------------
SCF CONVERGENCE
---------------

  Last Energy change         ...   -3.7167e-08  Tolerance :   1.0000e-08
  Last MAX-Density change    ...    9.9920e-16  Tolerance :   1.0000e-07
  Last RMS-Density change    ...    2.4959e-17  Tolerance :   5.0000e-09
  Last Orbital Gradient      ...    4.2589e-07  Tolerance :   1.0000e-05
  Last Orbital Rotation      ...    5.2242e-07  Tolerance :   1.0000e-05

             **** THE GBW FILE WAS UPDATED (ox_gs_B_orca0004.gbw) ****
             **** DENSITY ox_gs_B_orca0004.scfp WAS UPDATED ****
             **** ENERGY FILE WAS UPDATED (ox_gs_B_orca0004.en.tmp) ****
             **** THE GBW FILE WAS UPDATED (ox_gs_B_orca0004.gbw) ****
             **** DENSITY ox_gs_B_orca0004.scfp WAS UPDATED ****
----------------
ORBITAL ENERGIES
----------------

  NO   OCC          E(Eh)            E(eV) 
   0   2.0000     -19.219962      -523.0017 
   1   2.0000     -10.288374      -279.9609 
   2   2.0000     -10.279513      -279.7198 
   3   2.0000      -1.077169       -29.3113 
   4   2.0000      -0.732471       -19.9315 
   5   2.0000      -0.638336       -17.3700 
   6   2.0000      -0.522300       -14.2125 
   7   2.0000      -0.508998       -13.8505 
   8   2.0000      -0.405578       -11.0363 
   9   2.0000      -0.390515       -10.6265 
  10   2.0000      -0.334815        -9.1108 
  11   2.0000      -0.277723        -7.5572 
  12   0.0000       0.005302         0.1443 
  13   0.0000       0.059772         1.6265 
  14   0.0000       0.076093         2.0706 
  15   0.0000       0.091219         2.4822 
  16   0.0000       0.118395         3.2217 
  17   0.0000       0.148307         4.0356 
  18   0.0000       0.188071         5.1177 
  19   0.0000       0.208203         5.6655 
  20   0.0000       0.253810         6.9065 
  21   0.0000       0.267965         7.2917 
  22   0.0000       0.279016         7.5924 
  23   0.0000       0.329016         8.9530 
  24   0.0000       0.385916        10.5013 
  25   0.0000       0.405090        11.0231 
  26   0.0000       0.412229        11.2173 
  27   0.0000       0.424665        11.5557 
  28   0.0000       0.435784        11.8583 
  29   0.0000       0.488327        13.2881 
  30   0.0000       0.502897        13.6845 
  31   0.0000       0.521562        14.1924 
  32   0.0000       0.543198        14.7812 
  33   0.0000       0.676804        18.4168 
  34   0.0000       0.682802        18.5800 
  35   0.0000       0.760301        20.6888 
  36   0.0000       0.822115        22.3709 
  37   0.0000       0.846015        23.0212 
  38   0.0000       0.867571        23.6078 
  39   0.0000       0.935612        25.4593 
  40   0.0000       0.991252        26.9733 
  41   0.0000       1.052781        28.6476 
  42   0.0000       1.078791        29.3554 
  43   0.0000       1.092163        29.7193 
  44   0.0000       1.186428        32.2844 
  45   0.0000       1.360685        37.0261 
  46   0.0000       1.443820        39.2883 
  47   0.0000       1.473773        40.1034 
  48   0.0000       1.492142        40.6033 
  49   0.0000       1.548543        42.1380 
  50   0.0000       1.585220        43.1360 
  51   0.0000       1.614870        43.9428 
  52   0.0000       1.646013        44.7903 
  53   0.0000       1.658366        45.1264 
  54   0.0000       1.740047        47.3491 
  55   0.0000       1.799710        48.9726 
  56   0.0000       1.839512        50.0557 
  57   0.0000       1.847962        50.2856 
  58   0.0000       1.941015        52.8177 
  59   0.0000       1.990838        54.1735 
  60   0.0000       2.098050        57.0908 
  61   0.0000       2.111497        57.4567 
  62   0.0000       2.145962        58.3946 
  63   0.0000       2.248922        61.1963 
  64   0.0000       2.292375        62.3787 
  65   0.0000       2.353594        64.0445 
  66   0.0000       2.406762        65.4913 
  67   0.0000       2.461584        66.9831 
  68   0.0000       2.492158        67.8151 
  69   0.0000       2.530947        68.8706 
  70   0.0000       2.593129        70.5626 
  71   0.0000       2.683794        73.0298 
  72   0.0000       2.711046        73.7713 
  73   0.0000       2.744181        74.6730 
  74   0.0000       2.760680        75.1219 
  75   0.0000       2.804237        76.3072 
  76   0.0000       2.864728        77.9532 
  77   0.0000       2.954401        80.3933 
  78   0.0000       2.973763        80.9202 
  79   0.0000       3.047676        82.9315 
  80   0.0000       3.072211        83.5991 
  81   0.0000       3.080596        83.8273 
  82   0.0000       3.102077        84.4118 
  83   0.0000       3.200683        87.0950 
  84   0.0000       3.269818        88.9763 
  85   0.0000       3.314915        90.2034 
  86   0.0000       3.373020        91.7845 
  87   0.0000       3.383730        92.0760 
  88   0.0000       3.507574        95.4459 
  89   0.0000       3.575507        97.2945 
  90   0.0000       3.664183        99.7075 
  91   0.0000       3.708750       100.9202 
  92   0.0000       3.899799       106.1189 
  93   0.0000       3.994325       108.6911 
  94   0.0000       4.039490       109.9201 
  95   0.0000       4.143409       112.7479 
  96   0.0000       4.186189       113.9120 
  97   0.0000       4.301708       117.0554 
  98   0.0000       4.410723       120.0219 
  99   0.0000       4.550307       123.8201 
 100   0.0000       4.655830       126.6916 
 101   0.0000       4.906549       133.5140 
 102   0.0000       5.294690       144.0758 
 103   0.0000       5.308357       144.4477 
 104   0.0000       5.477459       149.0492 
 105   0.0000       5.638838       153.4406 
 106   0.0000       5.812147       158.1566 
 107   0.0000       5.854336       159.3046 
 108   0.0000       6.031802       164.1337 
 109   0.0000       6.515264       177.2893 
 110   0.0000       6.559577       178.4952 
 111   0.0000       6.806792       185.2222 
 112   0.0000       6.954263       189.2351 
 113   0.0000       7.118595       193.7068 
 114   0.0000      22.258654       605.6888 
 115   0.0000      22.484755       611.8413 
 116   0.0000      43.791605      1191.6302 

                    ********************************
                    * MULLIKEN POPULATION ANALYSIS *
                    ********************************

-----------------------
MULLIKEN ATOMIC CHARGES
-----------------------
   0 O :   -0.326241
   1 C :   -0.015305
   2 C :   -0.136597
   3 H :    0.120827
   4 H :    0.078688
   5 H :    0.147300
   6 H :    0.131329
Sum of atomic charges:   -0.0000000

--------------------------------
MULLIKEN REDUCED ORBITAL CHARGES
--------------------------------
  0 O s       :     3.880850  s :     3.880850
      pz      :     1.854353  p :     4.407616
      px      :     1.334404
      py      :     1.218858
      dz2     :     0.004907  d :     0.035906
      dxz     :     0.001680
      dyz     :     0.006317
      dx2y2   :     0.010225
      dxy     :     0.012776
      f0      :     0.000218  f :     0.001870
      f+1     :     0.000136
      f-1     :     0.000424
      f+2     :     0.000129
      f-2     :     0.000126
      f+3     :     0.000441
      f-3     :     0.000395
  1 C s       :     3.191358  s :     3.191358
      pz      :     1.040048  p :     2.669377
      px      :     0.905615
      py      :     0.723714
      dz2     :     0.006430  d :     0.141831
      dxz     :     0.027549
      dyz     :     0.042481
      dx2y2   :     0.033950
      dxy     :     0.031421
      f0      :     0.001858  f :     0.012740
      f+1     :     0.001319
      f-1     :     0.000784
      f+2     :     0.002620
      f-2     :     0.001055
      f+3     :     0.001602
      f-3     :     0.003501
  2 C s       :     3.259671  s :     3.259671
      pz      :     1.043985  p :     2.781484
      px      :     0.949175
      py      :     0.788324
      dz2     :     0.008450  d :     0.086698
      dxz     :     0.024070
      dyz     :     0.016766
      dx2y2   :     0.018443
      dxy     :     0.018969
      f0      :     0.000998  f :     0.008744
      f+1     :     0.001310
      f-1     :     0.000336
      f+2     :     0.001048
      f-2     :     0.001044
      f+3     :     0.001863
      f-3     :     0.002146
  3 H s       :     0.857409  s :     0.857409
      pz      :     0.010157  p :     0.021764
      px      :     0.007715
      py      :     0.003892
  4 H s       :     0.905238  s :     0.905238
      pz      :     0.008873  p :     0.016074
      px      :     0.004726
      py      :     0.002476
  5 H s       :     0.828471  s :     0.828471
      pz      :     0.011432  p :     0.024229
      px      :     0.007720
      py      :     0.005077
  6 H s       :     0.849251  s :     0.849251
      pz      :     0.010585  p :     0.019420
      px      :     0.005513
      py      :     0.003322


                     *******************************
                     * LOEWDIN POPULATION ANALYSIS *
                     *******************************

----------------------
LOEWDIN ATOMIC CHARGES
----------------------
   0 O :    0.072268
   1 C :   -0.406425
   2 C :   -0.145823
   3 H :    0.108594
   4 H :    0.127542
   5 H :    0.098012
   6 H :    0.145832

-------------------------------
LOEWDIN REDUCED ORBITAL CHARGES
-------------------------------
  0 O s       :     3.448264  s :     3.448264
      pz      :     1.754005  p :     4.396674
      px      :     1.304545
      py      :     1.338124
      dz2     :     0.010345  d :     0.077333
      dxz     :     0.004522
      dyz     :     0.014906
      dx2y2   :     0.024887
      dxy     :     0.022673
      f0      :     0.000524  f :     0.005460
      f+1     :     0.000194
      f-1     :     0.000845
      f+2     :     0.000450
      f-2     :     0.000531
      f+3     :     0.001281
      f-3     :     0.001634
  1 C s       :     2.821064  s :     2.821064
      pz      :     1.027542  p :     2.898299
      px      :     1.042597
      py      :     0.828161
      dz2     :     0.057806  d :     0.597202
      dxz     :     0.143439
      dyz     :     0.117775
      dx2y2   :     0.143095
      dxy     :     0.135087
      f0      :     0.011956  f :     0.089860
      f+1     :     0.006051
      f-1     :     0.007496
      f+2     :     0.016926
      f-2     :     0.004685
      f+3     :     0.014819
      f-3     :     0.027928
  2 C s       :     2.843383  s :     2.843383
      pz      :     1.058551  p :     2.898928
      px      :     1.075520
      py      :     0.764858
      dz2     :     0.044711  d :     0.356647
      dxz     :     0.124874
      dyz     :     0.040852
      dx2y2   :     0.071561
      dxy     :     0.074649
      f0      :     0.005864  f :     0.046865
      f+1     :     0.005321
      f-1     :     0.003318
      f+2     :     0.005936
      f-2     :     0.003338
      f+3     :     0.010123
      f-3     :     0.012966
  3 H s       :     0.826796  s :     0.826796
      pz      :     0.031922  p :     0.064610
      px      :     0.020942
      py      :     0.011746
  4 H s       :     0.831234  s :     0.831234
      pz      :     0.024078  p :     0.041224
      px      :     0.010984
      py      :     0.006162
  5 H s       :     0.823227  s :     0.823227
      pz      :     0.038649  p :     0.078761
      px      :     0.023559
      py      :     0.016553
  6 H s       :     0.801812  s :     0.801812
      pz      :     0.029266  p :     0.052355
      px      :     0.014004
      py      :     0.009085


                      *****************************
                      * MAYER POPULATION ANALYSIS *
                      *****************************

  NA   - Mulliken gross atomic population
  ZA   - Total nuclear charge
  QA   - Mulliken gross atomic charge
  VA   - Mayer's total valence
  BVA  - Mayer's bonded valence
  FA   - Mayer's free valence

  ATOM       NA         ZA         QA         VA         BVA        FA
  0 O      8.3262     8.0000    -0.3262     1.9709     1.9709    -0.0000
  1 C      6.0153     6.0000    -0.0153     4.0007     4.0007     0.0000
  2 C      6.1366     6.0000    -0.1366     3.9515     3.9515    -0.0000
  3 H      0.8792     1.0000     0.1208     0.9543     0.9543     0.0000
  4 H      0.9213     1.0000     0.0787     0.9635     0.9635    -0.0000
  5 H      0.8527     1.0000     0.1473     0.9556     0.9556    -0.0000
  6 H      0.8687     1.0000     0.1313     0.9634     0.9634    -0.0000

  Mayer bond orders larger than 0.100000
B(  0-O ,  1-C ) :   1.0090 B(  0-O ,  2-C ) :   0.9425 B(  1-C ,  2-C ) :   1.0886 
B(  1-C ,  3-H ) :   0.9509 B(  1-C ,  4-H ) :   0.9404 B(  2-C ,  5-H ) :   0.9491 
B(  2-C ,  6-H ) :   0.9490 

-------
TIMINGS
-------

Total SCF time: 0 days 0 hours 0 min 2 sec 

Total time                  ....       2.743 sec
Sum of individual times     ....       2.300 sec  ( 83.9%)

Fock matrix formation       ....       2.034 sec  ( 74.2%)
  Split-RI-J                ....       0.226 sec  ( 11.1% of F)
  Chain of spheres X        ....       1.394 sec  ( 68.5% of F)
  XC integration            ....       0.392 sec  ( 19.3% of F)
    Basis function eval.    ....       0.104 sec  ( 26.5% of XC)
    Density eval.           ....       0.078 sec  ( 19.8% of XC)
    XC-Functional eval.     ....       0.022 sec  (  5.7% of XC)
    XC-Potential eval.      ....       0.143 sec  ( 36.5% of XC)
Diagonalization             ....       0.016 sec  (  0.6%)
Density matrix formation    ....       0.001 sec  (  0.0%)
Population analysis         ....       0.003 sec  (  0.1%)
Initial guess               ....       0.017 sec  (  0.6%)
Orbital Transformation      ....       0.000 sec  (  0.0%)
Orbital Orthonormalization  ....       0.000 sec  (  0.0%)
DIIS solution               ....       0.013 sec  (  0.5%)
SOSCF solution              ....       0.011 sec  (  0.4%)
Grid generation             ....       0.206 sec  (  7.5%)

Maximum memory used throughout the entire SCF-calculation: 61.1 MB


-------------------------------------------------------------------------------
                          DFT DISPERSION CORRECTION                            
                                                                               
                              DFTD3 V3.1  Rev 1                                
                          USING Becke-Johnson damping                          
-------------------------------------------------------------------------------
The PBE0 functional is recognized
Active option DFTDOPT                   ...         4   

molecular C6(AA) [au] = 352.915219 


            DFT-D V3
 parameters
 s6 scaling factor         :     1.0000 
 a1 scaling factor         :     0.4145 
 s8 scaling factor         :     1.2177 
 a2 scaling factor         :     4.8593 
 ad hoc parameters k1-k3   :    16.0000     1.3333    -4.0000 

 Edisp/kcal,au: -1.513856152132  -0.002412483083 
 E6   /kcal   :  -0.992071162 
 E8   /kcal   :  -0.521784990 
 % E8         :  34.467276797 

-------------------------   ----------------
Dispersion correction           -0.002412483
-------------------------   ----------------


-------------------------   --------------------
FINAL SINGLE POINT ENERGY      -153.632578079549
-------------------------   --------------------



           ************************************************************
           *        Program running with 8 parallel MPI-processes     *
           *              working on a common directory               *
           ************************************************************
------------------------------------------------------------------------------
                         ORCA SCF GRADIENT CALCULATION
------------------------------------------------------------------------------

 ... reading COSX grid (gridx3)
Gradient of the Kohn-Sham DFT energy:
Kohn-Sham wavefunction type      ... RKS
Hartree-Fock exchange scaling    ...    0.250
Number of operators              ...    1
Number of atoms                  ...    7
Basis set dimensions             ...  117
Integral neglect threshold       ... 2.5e-11
Integral primitive cutoff        ... 2.5e-12
SHARK Integral package           ... ON

Nuc. rep. gradient       (SHARK) ... done (  0.0 sec)
HCore & Overlap gradient (SHARK) ... done (  0.0 sec)
RI-J gradient            (SHARK) ... done (  0.1 sec)
COSX-gradient                    ... done (  0.3 sec)
Exchange-correlation gradient    ... done
Dispersion correction            ... done

------------------
CARTESIAN GRADIENT
------------------

   1   O   :   -0.064744151    0.023696964    0.003974162
   2   C   :    0.073398357    0.005364873    0.083030933
   3   C   :    0.028352658   -0.041103006   -0.122522597
   4   H   :    0.002000622    0.018098065   -0.017790873
   5   H   :   -0.022460015    0.002525662   -0.048522192
   6   H   :   -0.030912357    0.005164533    0.066240492
   7   H   :    0.014399833   -0.013440533    0.035674390

Difference to translation invariance:
           :    0.0000349468    0.0003065577    0.0000843145

Difference to rotation invariance:
           :    0.0002097991    0.0000330425   -0.0000370936

Norm of the cartesian gradient     ...    0.2124347076
RMS gradient                       ...    0.0463570537
MAX gradient                       ...    0.1225225975

-------
TIMINGS
-------

Total SCF gradient time            ...        0.683 sec

One electron gradient       ....       0.009 sec  (  1.4%)
RI-J Coulomb gradient       ....       0.072 sec  ( 10.6%)
COSX gradient               ....       0.307 sec  ( 45.0%)
XC gradient                 ....       0.154 sec  ( 22.6%)

Maximum memory used throughout the entire SCFGRAD-calculation: 35.9 MB

                            ***************************************
                            *     ORCA property calculations      *
                            ***************************************

                                    ---------------------
                                    Active property flags
                                    ---------------------
   (+) Dipole Moment


------------------------------------------------------------------------------
                       ORCA ELECTRIC PROPERTIES CALCULATION
------------------------------------------------------------------------------

Dipole Moment Calculation                       ... on
Quadrupole Moment Calculation                   ... off
Polarizability Calculation                      ... off
GBWName                                         ... ox_gs_B_orca0004.gbw
Electron density                                ... ox_gs_B_orca0004.scfp
The origin for moment calculation is the CENTER OF MASS  = (-0.136823,  0.016228  0.035497)

-------------
DIPOLE MOMENT
-------------
                                X             Y             Z
Electronic contribution:     -0.00042       1.57571       0.10235
Nuclear contribution   :      0.22530      -2.43730      -0.07490
                        -----------------------------------------
Total Dipole Moment    :      0.22487      -0.86159       0.02745
                        -----------------------------------------
Magnitude (a.u.)       :      0.89088
Magnitude (Debye)      :      2.26443



--------------------
Rotational spectrum 
--------------------
 
Rotational constants in cm-1:     0.909679     0.641816     0.446942 
Rotational constants in MHz : 27271.485686 19241.162806 13398.987225 

 Dipole components along the rotational axes: 
x,y,z [a.u.] :    -0.740835    -0.491802     0.054377 
x,y,z [Debye]:    -1.883052    -1.250061     0.138215 

 

Timings for individual modules:

Sum of individual times         ...        4.079 sec (=   0.068 min)
GTO integral calculation        ...        0.289 sec (=   0.005 min)   7.1 %
SCF iterations                  ...        2.913 sec (=   0.049 min)  71.4 %
SCF Gradient evaluation         ...        0.877 sec (=   0.015 min)  21.5 %
                             ****ORCA TERMINATED NORMALLY****
TOTAL RUN TIME: 0 days 0 hours 0 minutes 4 seconds 517 msec
