
                                 *****************
                                 * O   R   C   A *
                                 *****************

                                            #,                                       
                                            ###                                      
                                            ####                                     
                                            #####                                    
                                            ######                                   
                                           ########,                                 
                                     ,,################,,,,,                         
                               ,,#################################,,                 
                          ,,##########################################,,             
                       ,#########################################, ''#####,          
                    ,#############################################,,   '####,        
                  ,##################################################,,,,####,       
                ,###########''''           ''''###############################       
              ,#####''   ,,,,##########,,,,          '''####'''          '####       
            ,##' ,,,,###########################,,,                        '##       
           ' ,,###''''                  '''############,,,                           
         ,,##''                                '''############,,,,        ,,,,,,###''
      ,#''                                            '''#######################'''  
     '                                                          ''''####''''         
             ,#######,   #######,   ,#######,      ##                                
            ,#'     '#,  ##    ##  ,#'     '#,    #''#        ######   ,####,        
            ##       ##  ##   ,#'  ##            #'  '#       #        #'  '#        
            ##       ##  #######   ##           ,######,      #####,   #    #        
            '#,     ,#'  ##    ##  '#,     ,#' ,#      #,         ##   #,  ,#        
             '#######'   ##     ##  '#######'  #'      '#     #####' # '####'        



                  #######################################################
                  #                        -***-                        #
                  #          Department of theory and spectroscopy      #
                  #    Directorship and core code : Frank Neese         #
                  #        Max Planck Institute fuer Kohlenforschung    #
                  #                Kaiser Wilhelm Platz 1               #
                  #                 D-45470 Muelheim/Ruhr               #
                  #                      Germany                        #
                  #                                                     #
                  #                  All rights reserved                #
                  #                        -***-                        #
                  #######################################################


                         Program Version 5.0.2 -  RELEASE  -


 With contributions from (in alphabetic order):
   Daniel Aravena         : Magnetic Suceptibility
   Michael Atanasov       : Ab Initio Ligand Field Theory (pilot matlab implementation)
   Alexander A. Auer      : GIAO ZORA, VPT2 properties, NMR spectrum
   Ute Becker             : Parallelization
   Giovanni Bistoni       : ED, misc. LED, open-shell LED, HFLD
   Martin Brehm           : Molecular dynamics
   Dmytro Bykov           : SCF Hessian
   Vijay G. Chilkuri      : MRCI spin determinant printing, contributions to CSF-ICE
   Dipayan Datta          : RHF DLPNO-CCSD density
   Achintya Kumar Dutta   : EOM-CC, STEOM-CC
   Dmitry Ganyushin       : Spin-Orbit,Spin-Spin,Magnetic field MRCI
   Miquel Garcia          : C-PCM and meta-GGA Hessian, CC/C-PCM, Gaussian charge scheme
   Yang Guo               : DLPNO-NEVPT2, F12-NEVPT2, CIM, IAO-localization
   Andreas Hansen         : Spin unrestricted coupled pair/coupled cluster methods
   Benjamin Helmich-Paris : MC-RPA, TRAH-SCF, COSX integrals
   Lee Huntington         : MR-EOM, pCC
   Robert Izsak           : Overlap fitted RIJCOSX, COSX-SCS-MP3, EOM
   Marcus Kettner         : VPT2
   Christian Kollmar      : KDIIS, OOCD, Brueckner-CCSD(T), CCSD density, CASPT2, CASPT2-K
   Simone Kossmann        : Meta GGA functionals, TD-DFT gradient, OOMP2, MP2 Hessian
   Martin Krupicka        : Initial AUTO-CI
   Lucas Lang             : DCDCAS
   Marvin Lechner         : AUTO-CI (C++ implementation), FIC-MRCC
   Dagmar Lenk            : GEPOL surface, SMD
   Dimitrios Liakos       : Extrapolation schemes; Compound Job, initial MDCI parallelization
   Dimitrios Manganas     : Further ROCIS development; embedding schemes
   Dimitrios Pantazis     : SARC Basis sets
   Anastasios Papadopoulos: AUTO-CI, single reference methods and gradients
   Taras Petrenko         : DFT Hessian,TD-DFT gradient, ASA, ECA, R-Raman, ABS, FL, XAS/XES, NRVS
   Peter Pinski           : DLPNO-MP2, DLPNO-MP2 Gradient
   Christoph Reimann      : Effective Core Potentials
   Marius Retegan         : Local ZFS, SOC
   Christoph Riplinger    : Optimizer, TS searches, QM/MM, DLPNO-CCSD(T), (RO)-DLPNO pert. Triples
   Tobias Risthaus        : Range-separated hybrids, TD-DFT gradient, RPA, STAB
   Michael Roemelt        : Original ROCIS implementation
   Masaaki Saitow         : Open-shell DLPNO-CCSD energy and density
   Barbara Sandhoefer     : DKH picture change effects
   Avijit Sen             : IP-ROCIS
   Kantharuban Sivalingam : CASSCF convergence, NEVPT2, FIC-MRCI
   Bernardo de Souza      : ESD, SOC TD-DFT
   Georgi Stoychev        : AutoAux, RI-MP2 NMR, DLPNO-MP2 response
   Willem Van den Heuvel  : Paramagnetic NMR
   Boris Wezisla          : Elementary symmetry handling
   Frank Wennmohs         : Technical directorship


 We gratefully acknowledge several colleagues who have allowed us to
 interface, adapt or use parts of their codes:
   Stefan Grimme, W. Hujo, H. Kruse, P. Pracht,  : VdW corrections, initial TS optimization,
                  C. Bannwarth, S. Ehlert          DFT functionals, gCP, sTDA/sTD-DF
   Ed Valeev, F. Pavosevic, A. Kumar             : LibInt (2-el integral package), F12 methods
   Garnet Chan, S. Sharma, J. Yang, R. Olivares  : DMRG
   Ulf Ekstrom                                   : XCFun DFT Library
   Mihaly Kallay                                 : mrcc  (arbitrary order and MRCC methods)
   Jiri Pittner, Ondrej Demel                    : Mk-CCSD
   Frank Weinhold                                : gennbo (NPA and NBO analysis)
   Christopher J. Cramer and Donald G. Truhlar   : smd solvation model
   Lars Goerigk                                  : TD-DFT with DH, B97 family of functionals
   V. Asgeirsson, H. Jonsson                     : NEB implementation
   FAccTs GmbH                                   : IRC, NEB, NEB-TS, DLPNO-Multilevel, CI-OPT
                                                   MM, QMMM, 2- and 3-layer-ONIOM, Crystal-QMMM,
                                                   LR-CPCM, SF, NACMEs, symmetry and pop. for TD-DFT,
                                                   nearIR, NL-DFT gradient (VV10), updates on ESD,
                                                   ML-optimized integration grids
   S Lehtola, MJT Oliveira, MAL Marques          : LibXC Library
   Liviu Ungur et al                             : ANISO software


 Your calculation uses the libint2 library for the computation of 2-el integrals
 For citations please refer to: http://libint.valeyev.net

 Your ORCA version has been built with support for libXC version: 5.1.0
 For citations please refer to: https://tddft.org/programs/libxc/

 This ORCA versions uses:
   CBLAS   interface :  Fast vector & matrix operations
   LAPACKE interface :  Fast linear algebra routines
   SCALAPACK package :  Parallel linear algebra routines
   Shared memory     :  Shared parallel matrices
   BLAS/LAPACK       :  OpenBLAS 0.3.15  USE64BITINT DYNAMIC_ARCH NO_AFFINITY SkylakeX SINGLE_THREADED
        Core in use  :  SkylakeX
   Copyright (c) 2011-2014, The OpenBLAS Project


Your calculation utilizes the atom-pairwise dispersion correction
with the Becke-Johnson damping scheme (D3BJ)
Cite in your paper:
S.Grimme, S.Ehrlich, L.Goerigk, J Comput Chem, (2011), 32, 1456–1465 
S.Grimme, J.Antony, S.Ehrlich and H.Krieg, J.Chem.Phys., 132, (2010), 154104 
   

================================================================================

----- Orbital basis set information -----
Your calculation utilizes the basis: def2-TZVP
   F. Weigend and R. Ahlrichs, Phys. Chem. Chem. Phys. 7, 3297 (2005).

----- AuxJ basis set information -----
Your calculation utilizes the auxiliary basis: def2/J
   F. Weigend, Phys. Chem. Chem. Phys. 8, 1057 (2006).

================================================================================
                                        WARNINGS
                       Please study these warnings very carefully!
================================================================================


INFO   : the flag for use of the SHARK integral package has been found!

================================================================================
                                       INPUT FILE
================================================================================
NAME = ox_gs_A_orca0041.inp
|  1> ! engrad PBE0 D3BJ def2-TZVP  
|  2> %pal nprocs 8 end
|  3> %maxcore 3000
|  4>  
|  5> *xyz 0 1 
|  6> O   -0.0757871557498616 0.8442995700665031 0.08979399365477608
|  7> C   -0.7595290245242193 -0.4664055679967992 0.014293269536245249
|  8> C   0.7456123794993512 -0.41409327636635845 0.10051022693831749
|  9> H   -1.2726702913747023 -0.7081856722269226 0.8510102585992736
| 10> H   -1.3003692719970958 -0.66992725864369 -0.8302483268241106
| 11> H   1.2379422550481913 -0.6570814624180551 -0.9207973648036376
| 12> H   1.3232425336724043 -0.5419241887063189 0.8934327313539839
| 13> *
| 14> 
| 15>                          ****END OF INPUT****
================================================================================

                     *******************************
                     * Energy+Gradient Calculation *
                     *******************************

---------------------------------
CARTESIAN COORDINATES (ANGSTROEM)
---------------------------------
  O     -0.075787    0.844300    0.089794
  C     -0.759529   -0.466406    0.014293
  C      0.745612   -0.414093    0.100510
  H     -1.272670   -0.708186    0.851010
  H     -1.300369   -0.669927   -0.830248
  H      1.237942   -0.657081   -0.920797
  H      1.323243   -0.541924    0.893433

----------------------------
CARTESIAN COORDINATES (A.U.)
----------------------------
  NO LB      ZA    FRAG     MASS         X           Y           Z
   0 O     8.0000    0    15.999   -0.143217    1.595495    0.169686
   1 C     6.0000    0    12.011   -1.435302   -0.881379    0.027010
   2 C     6.0000    0    12.011    1.409003   -0.782523    0.189937
   3 H     1.0000    0     1.008   -2.404998   -1.338277    1.608176
   4 H     1.0000    0     1.008   -2.457342   -1.265979   -1.568942
   5 H     1.0000    0     1.008    2.339372   -1.241704   -1.740055
   6 H     1.0000    0     1.008    2.500566   -1.024088    1.688343

--------------------------------
INTERNAL COORDINATES (ANGSTROEM)
--------------------------------
 O      0   0   0     0.000000000000     0.00000000     0.00000000
 C      1   0   0     1.480253782769     0.00000000     0.00000000
 C      1   2   0     1.502785610164    60.74977312     0.00000000
 H      2   1   3     1.010874323709   113.83099858   109.67403683
 H      2   1   3     1.023318015005   117.53720946   242.75892764
 H      3   1   2     1.159526266140   113.65791229   101.67478933
 H      3   1   2     0.989304520948   115.66140101   238.76867992

---------------------------
INTERNAL COORDINATES (A.U.)
---------------------------
 O      0   0   0     0.000000000000     0.00000000     0.00000000
 C      1   0   0     2.797274258135     0.00000000     0.00000000
 C      1   2   0     2.839853241208    60.74977312     0.00000000
 H      2   1   3     1.910275627622   113.83099858   109.67403683
 H      2   1   3     1.933790796267   117.53720946   242.75892764
 H      3   1   2     2.191187088093   113.65791229   101.67478933
 H      3   1   2     1.869514607642   115.66140101   238.76867992

---------------------
BASIS SET INFORMATION
---------------------
There are 3 groups of distinct atoms

 Group   1 Type O   : 11s6p2d1f contracted to 5s3p2d1f pattern {62111/411/11/1}
 Group   2 Type C   : 11s6p2d1f contracted to 5s3p2d1f pattern {62111/411/11/1}
 Group   3 Type H   : 5s1p contracted to 3s1p pattern {311/1}

Atom   0O    basis set group =>   1
Atom   1C    basis set group =>   2
Atom   2C    basis set group =>   2
Atom   3H    basis set group =>   3
Atom   4H    basis set group =>   3
Atom   5H    basis set group =>   3
Atom   6H    basis set group =>   3
---------------------------------
AUXILIARY/J BASIS SET INFORMATION
---------------------------------
There are 3 groups of distinct atoms

 Group   1 Type O   : 12s5p4d2f1g contracted to 6s4p3d1f1g pattern {711111/2111/211/2/1}
 Group   2 Type C   : 12s5p4d2f1g contracted to 6s4p3d1f1g pattern {711111/2111/211/2/1}
 Group   3 Type H   : 5s2p1d contracted to 3s1p1d pattern {311/2/1}

Atom   0O    basis set group =>   1
Atom   1C    basis set group =>   2
Atom   2C    basis set group =>   2
Atom   3H    basis set group =>   3
Atom   4H    basis set group =>   3
Atom   5H    basis set group =>   3
Atom   6H    basis set group =>   3


           ************************************************************
           *        Program running with 8 parallel MPI-processes     *
           *              working on a common directory               *
           ************************************************************
------------------------------------------------------------------------------
                           ORCA GTO INTEGRAL CALCULATION
                           -- RI-GTO INTEGRALS CHOSEN --
------------------------------------------------------------------------------
------------------------------------------------------------------------------
                   ___                                                        
                  /   \      - P O W E R E D   B Y -                         
                 /     \                                                     
                 |  |  |   _    _      __       _____    __    __             
                 |  |  |  | |  | |    /  \     |  _  \  |  |  /  |          
                  \  \/   | |  | |   /    \    | | | |  |  | /  /          
                 / \  \   | |__| |  /  /\  \   | |_| |  |  |/  /          
                |  |  |   |  __  | /  /__\  \  |    /   |      \           
                |  |  |   | |  | | |   __   |  |    \   |  |\   \          
                \     /   | |  | | |  |  |  |  | |\  \  |  | \   \       
                 \___/    |_|  |_| |__|  |__|  |_| \__\ |__|  \__/        
                                                                              
                      - O R C A' S   B I G   F R I E N D -                    
                                      &                                       
                       - I N T E G R A L  F E E D E R -                       
                                                                              
 v1 FN, 2020, v2 2021                                                         
------------------------------------------------------------------------------


Reading SHARK input file ox_gs_A_orca0041.SHARKINP.tmp ... ok
----------------------
SHARK INTEGRAL PACKAGE
----------------------

Number of atoms                             ...      7
Number of basis functions                   ...    117
Number of shells                            ...     49
Maximum angular momentum                    ...      3
Integral batch strategy                     ... SHARK/LIBINT Hybrid
RI-J (if used) integral strategy            ... SPLIT-RIJ (Revised 2003 algorithm where possible)
Printlevel                                  ...      1
Contraction scheme used                     ... SEGMENTED contraction
Coulomb Range Separation                    ... NOT USED
Exchange Range Separation                   ... NOT USED
Finite Nucleus Model                        ... NOT USED
Auxiliary Coulomb fitting basis             ... AVAILABLE
   # of basis functions in Aux-J            ...    191
   # of shells in Aux-J                     ...     65
   Maximum angular momentum in Aux-J        ...      4
Auxiliary J/K fitting basis                 ... NOT available
Auxiliary Correlation fitting basis         ... NOT available
Auxiliary 'external' fitting basis          ... NOT available
Integral threshold                          ...     2.500000e-11
Primitive cut-off                           ...     2.500000e-12
Primitive pair pre-selection threshold      ...     2.500000e-12

Calculating pre-screening integrals         ... done (  0.0 sec) Dimension = 49
Organizing shell pair data                  ... done (  0.0 sec)
Shell pair information
Total number of shell pairs                 ...      1225
Shell pairs after pre-screening             ...      1220
Total number of primitive shell pairs       ...      3648
Primitive shell pairs kept                  ...      3145
          la=0 lb=0:    373 shell pairs
          la=1 lb=0:    351 shell pairs
          la=1 lb=1:     91 shell pairs
          la=2 lb=0:    162 shell pairs
          la=2 lb=1:     78 shell pairs
          la=2 lb=2:     21 shell pairs
          la=3 lb=0:     81 shell pairs
          la=3 lb=1:     39 shell pairs
          la=3 lb=2:     18 shell pairs
          la=3 lb=3:      6 shell pairs

Calculating one electron integrals          ... done (  0.0 sec)
Calculating RI/J V-Matrix + Cholesky decomp.... done (  0.0 sec)
Calculating Nuclear repulsion               ... done (  0.0 sec) ENN=     73.803630708057 Eh

SHARK setup successfully completed in   0.1 seconds

Maximum memory used throughout the entire GTOINT-calculation: 14.9 MB


           ************************************************************
           *        Program running with 8 parallel MPI-processes     *
           *              working on a common directory               *
           ************************************************************
-------------------------------------------------------------------------------
                                 ORCA SCF
-------------------------------------------------------------------------------

------------
SCF SETTINGS
------------
Hamiltonian:
 Density Functional     Method          .... DFT(GTOs)
 Exchange Functional    Exchange        .... PBE
   PBE kappa parameter   XKappa         ....  0.804000
   PBE mue parameter    XMuePBE         ....  0.219520
 Correlation Functional Correlation     .... PBE
   PBE beta parameter  CBetaPBE         ....  0.066725
 LDA part of GGA corr.  LDAOpt          .... PW91-LDA
 Gradients option       PostSCFGGA      .... off
 Hybrid DFT is turned on
   Fraction HF Exchange ScalHFX         ....  0.250000
   Scaling of DF-GGA-X  ScalDFX         ....  0.750000
   Scaling of DF-GGA-C  ScalDFC         ....  1.000000
   Scaling of DF-LDA-C  ScalLDAC        ....  1.000000
   Perturbative correction              ....  0.000000
   Density functional embedding theory  .... OFF
   NL short-range parameter             ....  6.900000
 RI-approximation to the Coulomb term is turned on
   Number of AuxJ basis functions       .... 191
   RIJ-COSX (HFX calculated with COS-X)).... on


General Settings:
 Integral files         IntName         .... ox_gs_A_orca0041
 Hartree-Fock type      HFTyp           .... RHF
 Total Charge           Charge          ....    0
 Multiplicity           Mult            ....    1
 Number of Electrons    NEL             ....   24
 Basis Dimension        Dim             ....  117
 Nuclear Repulsion      ENuc            ....     73.8036307081 Eh

Convergence Acceleration:
 DIIS                   CNVDIIS         .... on
   Start iteration      DIISMaxIt       ....    12
   Startup error        DIISStart       ....  0.200000
   # of expansion vecs  DIISMaxEq       ....     5
   Bias factor          DIISBfac        ....   1.050
   Max. coefficient     DIISMaxC        ....  10.000
 Trust-Rad. Augm. Hess. CNVTRAH         .... auto
   Auto Start mean grad. ratio tolernc. ....  1.125000
   Auto Start start iteration           ....    20
   Auto Start num. interpolation iter.  ....    10
   Max. Number of Micro iterations      ....    16
   Max. Number of Macro iterations      .... Maxiter - #DIIS iter
   Number of Davidson start vectors     ....     2
   Converg. threshold I  (grad. norm)   ....   1.000e-05
   Converg. threshold II (energy diff.) ....   1.000e-08
   Grad. Scal. Fac. for Micro threshold ....   0.100
   Minimum threshold for Micro iter.    ....   0.010
   NR start threshold (gradient norm)   ....   0.001
   Initial trust radius                 ....   0.400
   Minimum AH scaling param. (alpha)    ....   1.000
   Maximum AH scaling param. (alpha)    .... 1000.000
   Orbital update algorithm             .... Taylor
   White noise on init. David. guess    .... on
   Maximum white noise                  ....   0.010
   Quad. conv. algorithm                .... NR
 SOSCF                  CNVSOSCF        .... on
   Start iteration      SOSCFMaxIt      ....   150
   Startup grad/error   SOSCFStart      ....  0.003300
 Level Shifting         CNVShift        .... on
   Level shift para.    LevelShift      ....    0.2500
   Turn off err/grad.   ShiftErr        ....    0.0010
 Zerner damping         CNVZerner       .... off
 Static damping         CNVDamp         .... on
   Fraction old density DampFac         ....    0.7000
   Max. Damping (<1)    DampMax         ....    0.9800
   Min. Damping (>=0)   DampMin         ....    0.0000
   Turn off err/grad.   DampErr         ....    0.1000
 Fernandez-Rico         CNVRico         .... off

SCF Procedure:
 Maximum # iterations   MaxIter         ....   125
 SCF integral mode      SCFMode         .... Direct
   Integral package                     .... SHARK and LIBINT hybrid scheme
 Reset frequency        DirectResetFreq ....    20
 Integral Threshold     Thresh          ....  2.500e-11 Eh
 Primitive CutOff       TCut            ....  2.500e-12 Eh

Convergence Tolerance:
 Convergence Check Mode ConvCheckMode   .... Total+1el-Energy
 Convergence forced     ConvForced      .... 0
 Energy Change          TolE            ....  1.000e-08 Eh
 1-El. energy change                    ....  1.000e-05 Eh
 Orbital Gradient       TolG            ....  1.000e-05
 Orbital Rotation angle TolX            ....  1.000e-05
 DIIS Error             TolErr          ....  5.000e-07


Diagonalization of the overlap matrix:
Smallest eigenvalue                        ... 5.364e-04
Time for diagonalization                   ...    0.001 sec
Threshold for overlap eigenvalues          ... 1.000e-08
Number of eigenvalues below threshold      ... 0
Time for construction of square roots      ...    0.001 sec
Total time needed                          ...    0.003 sec

Time for model grid setup =    0.019 sec

------------------------------
INITIAL GUESS: MODEL POTENTIAL
------------------------------
Loading Hartree-Fock densities                     ... done
Calculating cut-offs                               ... done
Initializing the effective Hamiltonian             ... done
Setting up the integral package (SHARK)            ... done
Starting the Coulomb interaction                   ... done (   0.0 sec)
Reading the grid                                   ... done
Mapping shells                                     ... done
Starting the XC term evaluation                    ... done (   0.0 sec)
  promolecular density results
     # of electrons  =     23.996678125
     EX              =    -19.528011387
     EC              =     -0.778987229
     EX+EC           =    -20.306998616
Transforming the Hamiltonian                       ... done (   0.0 sec)
Diagonalizing the Hamiltonian                      ... done (   0.0 sec)
Back transforming the eigenvectors                 ... done (   0.0 sec)
Now organizing SCF variables                       ... done
                      ------------------
                      INITIAL GUESS DONE (   0.0 sec)
                      ------------------
-------------------
DFT GRID GENERATION
-------------------

General Integration Accuracy     IntAcc      ... 4.388
Radial Grid Type                 RadialGrid  ... OptM3 with GC (2021)
Angular Grid (max. ang.)         AngularGrid ... 4 (Lebedev-302)
Angular grid pruning method      GridPruning ... 4 (adaptive)
Weight generation scheme         WeightScheme... Becke
Basis function cutoff            BFCut       ... 1.0000e-11
Integration weight cutoff        WCut        ... 1.0000e-14
Angular grids for H and He will be reduced by one unit
Partially contracted basis set               ... off
Rotationally invariant grid construction     ... off

Total number of grid points                  ...    31301
Total number of batches                      ...      493
Average number of points per batch           ...       63
Average number of grid points per atom       ...     4472
Time for grid setup =    0.113 sec

--------------------
COSX GRID GENERATION
--------------------

GRIDX 1
-------
General Integration Accuracy     IntAcc      ... 3.816
Radial Grid Type                 RadialGrid  ... OptM3 with GC (2021)
Angular Grid (max. ang.)         AngularGrid ... 1 (Lebedev-50)
Angular grid pruning method      GridPruning ... 4 (adaptive)
Weight generation scheme         WeightScheme... Becke
Basis function cutoff            BFCut       ... 1.0000e-11
Integration weight cutoff        WCut        ... 1.0000e-14
Angular grids for H and He will be reduced by one unit
Partially contracted basis set               ... on
Rotationally invariant grid construction     ... off

Total number of grid points                  ...     4036
Total number of batches                      ...       68
Average number of points per batch           ...       59
Average number of grid points per atom       ...      577
UseSFitting                                  ... on

GRIDX 2
-------
General Integration Accuracy     IntAcc      ... 4.020
Radial Grid Type                 RadialGrid  ... OptM3 with GC (2021)
Angular Grid (max. ang.)         AngularGrid ... 2 (Lebedev-110)
Angular grid pruning method      GridPruning ... 4 (adaptive)
Weight generation scheme         WeightScheme... Becke
Basis function cutoff            BFCut       ... 1.0000e-11
Integration weight cutoff        WCut        ... 1.0000e-14
Angular grids for H and He will be reduced by one unit
Partially contracted basis set               ... on
Rotationally invariant grid construction     ... off

Total number of grid points                  ...     8718
Total number of batches                      ...      140
Average number of points per batch           ...       62
Average number of grid points per atom       ...     1245
UseSFitting                                  ... on

GRIDX 3
-------
General Integration Accuracy     IntAcc      ... 4.338
Radial Grid Type                 RadialGrid  ... OptM3 with GC (2021)
Angular Grid (max. ang.)         AngularGrid ... 3 (Lebedev-194)
Angular grid pruning method      GridPruning ... 4 (adaptive)
Weight generation scheme         WeightScheme... Becke
Basis function cutoff            BFCut       ... 1.0000e-11
Integration weight cutoff        WCut        ... 1.0000e-14
Angular grids for H and He will be reduced by one unit
Partially contracted basis set               ... on
Rotationally invariant grid construction     ... off

Total number of grid points                  ...    19249
Total number of batches                      ...      305
Average number of points per batch           ...       63
Average number of grid points per atom       ...     2750
UseSFitting                                  ... on

Time for X-Grid setup             =    0.072 sec

--------------
SCF ITERATIONS
--------------
ITER       Energy         Delta-E        Max-DP      RMS-DP      [F,P]     Damp
               ***  Starting incremental Fock matrix formation  ***
  0   -153.5868209285   0.000000000000 0.03045856  0.00109126  0.1679931 0.7000
  1   -153.6131860127  -0.026365084165 0.01645401  0.00081058  0.0708562 0.7000
                               ***Turning on DIIS***
  2   -153.6245001160  -0.011314103314 0.02637960  0.00142045  0.0336890 0.0000
  3   -153.6431148414  -0.018614725397 0.01351313  0.00060539  0.0368809 0.0000
  4   -153.6462924115  -0.003177570126 0.00415472  0.00015775  0.0092380 0.0000
  5   -153.6464760328  -0.000183621258 0.00136204  0.00005406  0.0040503 0.0000
                      *** Initiating the SOSCF procedure ***
                           *** Shutting down DIIS ***
                      *** Re-Reading the Fockian *** 
                      *** Removing any level shift *** 
ITER      Energy       Delta-E        Grad      Rot      Max-DP    RMS-DP
  6   -153.64650123  -0.0000252000  0.000090  0.000090  0.000731  0.000023
               *** Restarting incremental Fock matrix formation ***
  7   -153.64649301   0.0000082227  0.000043  0.000062  0.000092  0.000004
  8   -153.64649298   0.0000000335  0.000078  0.000054  0.000064  0.000002
  9   -153.64649304  -0.0000000674  0.000008  0.000016  0.000021  0.000001
 10   -153.64649304   0.0000000011  0.000010  0.000011  0.000012  0.000000
                  ***Gradient check signals convergence***
              ***Rediagonalizing the Fockian in SOSCF/NRSCF***

               *****************************************************
               *                     SUCCESS                       *
               *           SCF CONVERGED AFTER  11 CYCLES          *
               *****************************************************

Old exchange energy                            =     -4.995818822 Eh
New exchange energy                            =     -4.995815925 Eh
Exchange energy change after final integration =      0.000002897 Eh
Total energy after final integration           =   -153.646490150 Eh
Final COS-X integration done in                =     0.257 sec

----------------
TOTAL SCF ENERGY
----------------

Total Energy       :         -153.64649015 Eh           -4180.93355 eV

Components:
Nuclear Repulsion  :           73.80363071 Eh            2008.29889 eV
Electronic Energy  :         -227.45012086 Eh           -6189.23244 eV
One Electron Energy:         -354.31853455 Eh           -9641.49749 eV
Two Electron Energy:          126.86841369 Eh            3452.26505 eV
Max COSX asymmetry :            0.00000236 Eh               0.00006 eV

Virial components:
Potential Energy   :         -306.64281102 Eh           -8344.17510 eV
Kinetic Energy     :          152.99632087 Eh            4163.24155 eV
Virial Ratio       :            2.00424957


DFT components:
N(Alpha)           :       12.000003412439 electrons
N(Beta)            :       12.000003412439 electrons
N(Total)           :       24.000006824879 electrons
E(X)               :      -14.962533679549 Eh       
E(C)               :       -0.787054378817 Eh       
E(XC)              :      -15.749588058366 Eh       
DFET-embed. en.    :        0.000000000000 Eh       

---------------
SCF CONVERGENCE
---------------

  Last Energy change         ...   -3.4666e-09  Tolerance :   1.0000e-08
  Last MAX-Density change    ...    6.6613e-16  Tolerance :   1.0000e-07
  Last RMS-Density change    ...    1.8639e-17  Tolerance :   5.0000e-09
  Last Orbital Gradient      ...    7.9199e-07  Tolerance :   1.0000e-05
  Last Orbital Rotation      ...    1.6089e-06  Tolerance :   1.0000e-05

             **** THE GBW FILE WAS UPDATED (ox_gs_A_orca0041.gbw) ****
             **** DENSITY ox_gs_A_orca0041.scfp WAS UPDATED ****
             **** ENERGY FILE WAS UPDATED (ox_gs_A_orca0041.en.tmp) ****
             **** THE GBW FILE WAS UPDATED (ox_gs_A_orca0041.gbw) ****
             **** DENSITY ox_gs_A_orca0041.scfp WAS UPDATED ****
----------------
ORBITAL ENERGIES
----------------

  NO   OCC          E(Eh)            E(eV) 
   0   2.0000     -19.221919      -523.0550 
   1   2.0000     -10.281019      -279.7607 
   2   2.0000     -10.268053      -279.4079 
   3   2.0000      -1.064872       -28.9766 
   4   2.0000      -0.712075       -19.3765 
   5   2.0000      -0.670046       -18.2329 
   6   2.0000      -0.525352       -14.2956 
   7   2.0000      -0.499103       -13.5813 
   8   2.0000      -0.408335       -11.1113 
   9   2.0000      -0.398897       -10.8545 
  10   2.0000      -0.330041        -8.9809 
  11   2.0000      -0.288547        -7.8518 
  12   0.0000       0.059389         1.6161 
  13   0.0000       0.068894         1.8747 
  14   0.0000       0.072469         1.9720 
  15   0.0000       0.096949         2.6381 
  16   0.0000       0.108832         2.9615 
  17   0.0000       0.153515         4.1774 
  18   0.0000       0.195032         5.3071 
  19   0.0000       0.211741         5.7618 
  20   0.0000       0.265459         7.2235 
  21   0.0000       0.266953         7.2641 
  22   0.0000       0.283553         7.7159 
  23   0.0000       0.302216         8.2237 
  24   0.0000       0.387294        10.5388 
  25   0.0000       0.397965        10.8292 
  26   0.0000       0.409247        11.1362 
  27   0.0000       0.420814        11.4509 
  28   0.0000       0.462220        12.5777 
  29   0.0000       0.474607        12.9147 
  30   0.0000       0.517734        14.0883 
  31   0.0000       0.527031        14.3412 
  32   0.0000       0.552993        15.0477 
  33   0.0000       0.690178        18.7807 
  34   0.0000       0.710338        19.3293 
  35   0.0000       0.723484        19.6870 
  36   0.0000       0.814711        22.1694 
  37   0.0000       0.843780        22.9604 
  38   0.0000       0.897751        24.4291 
  39   0.0000       0.933816        25.4104 
  40   0.0000       0.998087        27.1593 
  41   0.0000       1.015719        27.6391 
  42   0.0000       1.072509        29.1844 
  43   0.0000       1.094239        29.7757 
  44   0.0000       1.159818        31.5603 
  45   0.0000       1.341558        36.5057 
  46   0.0000       1.464978        39.8641 
  47   0.0000       1.476704        40.1832 
  48   0.0000       1.499418        40.8013 
  49   0.0000       1.513746        41.1911 
  50   0.0000       1.584272        43.1102 
  51   0.0000       1.622467        44.1496 
  52   0.0000       1.670760        45.4637 
  53   0.0000       1.724670        46.9307 
  54   0.0000       1.784964        48.5713 
  55   0.0000       1.832239        49.8578 
  56   0.0000       1.865148        50.7533 
  57   0.0000       1.885430        51.3052 
  58   0.0000       1.895111        51.5686 
  59   0.0000       1.961016        53.3620 
  60   0.0000       2.159093        58.7519 
  61   0.0000       2.164179        58.8903 
  62   0.0000       2.195969        59.7553 
  63   0.0000       2.218617        60.3716 
  64   0.0000       2.256718        61.4084 
  65   0.0000       2.387375        64.9638 
  66   0.0000       2.450443        66.6799 
  67   0.0000       2.524628        68.6986 
  68   0.0000       2.544111        69.2288 
  69   0.0000       2.600491        70.7629 
  70   0.0000       2.644127        71.9503 
  71   0.0000       2.665527        72.5327 
  72   0.0000       2.700900        73.4952 
  73   0.0000       2.716937        73.9316 
  74   0.0000       2.733701        74.3878 
  75   0.0000       2.812878        76.5423 
  76   0.0000       2.890640        78.6583 
  77   0.0000       2.937271        79.9272 
  78   0.0000       2.983015        81.1720 
  79   0.0000       2.996782        81.5466 
  80   0.0000       3.029581        82.4391 
  81   0.0000       3.101708        84.4018 
  82   0.0000       3.166464        86.1639 
  83   0.0000       3.197620        87.0117 
  84   0.0000       3.280178        89.2582 
  85   0.0000       3.332250        90.6751 
  86   0.0000       3.350911        91.1829 
  87   0.0000       3.397314        92.4456 
  88   0.0000       3.549112        96.5762 
  89   0.0000       3.579784        97.4109 
  90   0.0000       3.669335        99.8477 
  91   0.0000       3.683821       100.2419 
  92   0.0000       3.856886       104.9512 
  93   0.0000       4.000950       108.8714 
  94   0.0000       4.115696       111.9938 
  95   0.0000       4.221475       114.8722 
  96   0.0000       4.248864       115.6175 
  97   0.0000       4.354751       118.4988 
  98   0.0000       4.469325       121.6165 
  99   0.0000       4.612741       125.5191 
 100   0.0000       4.769204       129.7766 
 101   0.0000       4.818535       131.1190 
 102   0.0000       5.270442       143.4160 
 103   0.0000       5.403867       147.0467 
 104   0.0000       5.617071       152.8483 
 105   0.0000       5.677379       154.4893 
 106   0.0000       5.700675       155.1233 
 107   0.0000       5.804969       157.9612 
 108   0.0000       5.964494       162.3021 
 109   0.0000       6.563973       178.6148 
 110   0.0000       6.583618       179.1493 
 111   0.0000       6.751819       183.7263 
 112   0.0000       6.958272       189.3442 
 113   0.0000       7.184302       195.4948 
 114   0.0000      22.291342       606.5783 
 115   0.0000      22.497382       612.1849 
 116   0.0000      43.803352      1191.9498 

                    ********************************
                    * MULLIKEN POPULATION ANALYSIS *
                    ********************************

-----------------------
MULLIKEN ATOMIC CHARGES
-----------------------
   0 O :   -0.324674
   1 C :   -0.073151
   2 C :   -0.087443
   3 H :    0.114078
   4 H :    0.124691
   5 H :    0.109087
   6 H :    0.137412
Sum of atomic charges:   -0.0000000

--------------------------------
MULLIKEN REDUCED ORBITAL CHARGES
--------------------------------
  0 O s       :     3.871017  s :     3.871017
      pz      :     1.867359  p :     4.415389
      px      :     1.323356
      py      :     1.224674
      dz2     :     0.005257  d :     0.036473
      dxz     :     0.002031
      dyz     :     0.005450
      dx2y2   :     0.010390
      dxy     :     0.013345
      f0      :     0.000202  f :     0.001794
      f+1     :     0.000168
      f-1     :     0.000417
      f+2     :     0.000068
      f-2     :     0.000155
      f+3     :     0.000342
      f-3     :     0.000442
  1 C s       :     3.215152  s :     3.215152
      pz      :     1.065338  p :     2.743517
      px      :     0.910951
      py      :     0.767228
      dz2     :     0.005658  d :     0.103984
      dxz     :     0.022525
      dyz     :     0.028666
      dx2y2   :     0.026928
      dxy     :     0.020208
      f0      :     0.001253  f :     0.010498
      f+1     :     0.001321
      f-1     :     0.000658
      f+2     :     0.001344
      f-2     :     0.001323
      f+3     :     0.002018
      f-3     :     0.002582
  2 C s       :     3.234182  s :     3.234182
      pz      :     1.047968  p :     2.741681
      px      :     0.903215
      py      :     0.790498
      dz2     :     0.007035  d :     0.101268
      dxz     :     0.024595
      dyz     :     0.024970
      dx2y2   :     0.025645
      dxy     :     0.019023
      f0      :     0.001337  f :     0.010312
      f+1     :     0.001399
      f-1     :     0.000489
      f+2     :     0.001128
      f-2     :     0.001436
      f+3     :     0.002053
      f-3     :     0.002470
  3 H s       :     0.862395  s :     0.862395
      pz      :     0.010863  p :     0.023528
      px      :     0.007557
      py      :     0.005108
  4 H s       :     0.852366  s :     0.852366
      pz      :     0.010863  p :     0.022943
      px      :     0.007643
      py      :     0.004436
  5 H s       :     0.871996  s :     0.871996
      pz      :     0.010586  p :     0.018918
      px      :     0.004960
      py      :     0.003372
  6 H s       :     0.838576  s :     0.838576
      pz      :     0.010618  p :     0.024011
      px      :     0.008464
      py      :     0.004930


                     *******************************
                     * LOEWDIN POPULATION ANALYSIS *
                     *******************************

----------------------
LOEWDIN ATOMIC CHARGES
----------------------
   0 O :    0.053081
   1 C :   -0.240947
   2 C :   -0.227904
   3 H :    0.096244
   4 H :    0.100316
   5 H :    0.133351
   6 H :    0.085859

-------------------------------
LOEWDIN REDUCED ORBITAL CHARGES
-------------------------------
  0 O s       :     3.449199  s :     3.449199
      pz      :     1.768354  p :     4.416626
      px      :     1.315767
      py      :     1.332504
      dz2     :     0.010807  d :     0.076145
      dxz     :     0.005955
      dyz     :     0.011384
      dx2y2   :     0.025847
      dxy     :     0.022151
      f0      :     0.000441  f :     0.004950
      f+1     :     0.000206
      f-1     :     0.000783
      f+2     :     0.000142
      f-2     :     0.000680
      f+3     :     0.000996
      f-3     :     0.001701
  1 C s       :     2.810455  s :     2.810455
      pz      :     1.084450  p :     2.923909
      px      :     1.024750
      py      :     0.814708
      dz2     :     0.049841  d :     0.444126
      dxz     :     0.119228
      dyz     :     0.080327
      dx2y2   :     0.103216
      dxy     :     0.091514
      f0      :     0.007250  f :     0.062456
      f+1     :     0.005658
      f-1     :     0.005757
      f+2     :     0.008304
      f-2     :     0.005335
      f+3     :     0.013150
      f-3     :     0.017003
  2 C s       :     2.837831  s :     2.837831
      pz      :     1.067260  p :     2.912278
      px      :     1.019251
      py      :     0.825767
      dz2     :     0.050866  d :     0.419316
      dxz     :     0.120166
      dyz     :     0.065836
      dx2y2   :     0.094459
      dxy     :     0.087989
      f0      :     0.007411  f :     0.058479
      f+1     :     0.005383
      f-1     :     0.004807
      f+2     :     0.006560
      f-2     :     0.005663
      f+3     :     0.013594
      f-3     :     0.015062
  3 H s       :     0.828849  s :     0.828849
      pz      :     0.036010  p :     0.074907
      px      :     0.022437
      py      :     0.016460
  4 H s       :     0.826995  s :     0.826995
      pz      :     0.035548  p :     0.072689
      px      :     0.022547
      py      :     0.014594
  5 H s       :     0.815305  s :     0.815305
      pz      :     0.029511  p :     0.051344
      px      :     0.012534
      py      :     0.009299
  6 H s       :     0.833559  s :     0.833559
      pz      :     0.037459  p :     0.080582
      px      :     0.026283
      py      :     0.016840


                      *****************************
                      * MAYER POPULATION ANALYSIS *
                      *****************************

  NA   - Mulliken gross atomic population
  ZA   - Total nuclear charge
  QA   - Mulliken gross atomic charge
  VA   - Mayer's total valence
  BVA  - Mayer's bonded valence
  FA   - Mayer's free valence

  ATOM       NA         ZA         QA         VA         BVA        FA
  0 O      8.3247     8.0000    -0.3247     1.9802     1.9802     0.0000
  1 C      6.0732     6.0000    -0.0732     3.9827     3.9827    -0.0000
  2 C      6.0874     6.0000    -0.0874     3.9596     3.9596    -0.0000
  3 H      0.8859     1.0000     0.1141     0.9590     0.9590     0.0000
  4 H      0.8753     1.0000     0.1247     0.9583     0.9583    -0.0000
  5 H      0.8909     1.0000     0.1091     0.9619     0.9619    -0.0000
  6 H      0.8626     1.0000     0.1374     0.9568     0.9568     0.0000

  Mayer bond orders larger than 0.100000
B(  0-O ,  1-C ) :   0.9859 B(  0-O ,  2-C ) :   0.9817 B(  1-C ,  2-C ) :   1.0613 
B(  1-C ,  3-H ) :   0.9659 B(  1-C ,  4-H ) :   0.9582 B(  2-C ,  5-H ) :   0.9507 
B(  2-C ,  6-H ) :   0.9570 

-------
TIMINGS
-------

Total SCF time: 0 days 0 hours 0 min 2 sec 

Total time                  ....       2.499 sec
Sum of individual times     ....       2.311 sec  ( 92.5%)

Fock matrix formation       ....       2.047 sec  ( 81.9%)
  Split-RI-J                ....       0.229 sec  ( 11.2% of F)
  Chain of spheres X        ....       1.406 sec  ( 68.7% of F)
  XC integration            ....       0.388 sec  ( 19.0% of F)
    Basis function eval.    ....       0.104 sec  ( 26.7% of XC)
    Density eval.           ....       0.077 sec  ( 19.8% of XC)
    XC-Functional eval.     ....       0.022 sec  (  5.7% of XC)
    XC-Potential eval.      ....       0.136 sec  ( 35.1% of XC)
Diagonalization             ....       0.016 sec  (  0.6%)
Density matrix formation    ....       0.001 sec  (  0.1%)
Population analysis         ....       0.002 sec  (  0.1%)
Initial guess               ....       0.017 sec  (  0.7%)
Orbital Transformation      ....       0.000 sec  (  0.0%)
Orbital Orthonormalization  ....       0.000 sec  (  0.0%)
DIIS solution               ....       0.013 sec  (  0.5%)
SOSCF solution              ....       0.011 sec  (  0.4%)
Grid generation             ....       0.204 sec  (  8.2%)

Maximum memory used throughout the entire SCF-calculation: 61.0 MB


-------------------------------------------------------------------------------
                          DFT DISPERSION CORRECTION                            
                                                                               
                              DFTD3 V3.1  Rev 1                                
                          USING Becke-Johnson damping                          
-------------------------------------------------------------------------------
The PBE0 functional is recognized
Active option DFTDOPT                   ...         4   

molecular C6(AA) [au] = 351.063194 


            DFT-D V3
 parameters
 s6 scaling factor         :     1.0000 
 a1 scaling factor         :     0.4145 
 s8 scaling factor         :     1.2177 
 a2 scaling factor         :     4.8593 
 ad hoc parameters k1-k3   :    16.0000     1.3333    -4.0000 

 Edisp/kcal,au: -1.509286408927  -0.002405200735 
 E6   /kcal   :  -0.989358538 
 E8   /kcal   :  -0.519927871 
 % E8         :  34.448588948 

-------------------------   ----------------
Dispersion correction           -0.002405201
-------------------------   ----------------


-------------------------   --------------------
FINAL SINGLE POINT ENERGY      -153.648895350332
-------------------------   --------------------



           ************************************************************
           *        Program running with 8 parallel MPI-processes     *
           *              working on a common directory               *
           ************************************************************
------------------------------------------------------------------------------
                         ORCA SCF GRADIENT CALCULATION
------------------------------------------------------------------------------

 ... reading COSX grid (gridx3)
Gradient of the Kohn-Sham DFT energy:
Kohn-Sham wavefunction type      ... RKS
Hartree-Fock exchange scaling    ...    0.250
Number of operators              ...    1
Number of atoms                  ...    7
Basis set dimensions             ...  117
Integral neglect threshold       ... 2.5e-11
Integral primitive cutoff        ... 2.5e-12
SHARK Integral package           ... ON

Nuc. rep. gradient       (SHARK) ... done (  0.0 sec)
HCore & Overlap gradient (SHARK) ... done (  0.0 sec)
RI-J gradient            (SHARK) ... done (  0.1 sec)
COSX-gradient                    ... done (  0.3 sec)
Exchange-correlation gradient    ... done
Dispersion correction            ... done

------------------
CARTESIAN GRADIENT
------------------

   1   O   :   -0.008063361    0.057020952    0.005606882
   2   C   :   -0.087164204   -0.046666715   -0.018102318
   3   C   :    0.080192781   -0.031456274    0.126959969
   4   H   :    0.029811827    0.011572678   -0.056204611
   5   H   :    0.014177613    0.008464890    0.050123712
   6   H   :    0.011010167   -0.013572338   -0.035159803
   7   H   :   -0.039892535    0.014537028   -0.073245372

Difference to translation invariance:
           :    0.0000722881   -0.0000997787   -0.0000215412

Difference to rotation invariance:
           :    0.0000506723    0.0000367667   -0.0000848928

Norm of the cartesian gradient     ...    0.2294909050
RMS gradient                       ...    0.0500790211
MAX gradient                       ...    0.1269599689

-------
TIMINGS
-------

Total SCF gradient time            ...        0.690 sec

One electron gradient       ....       0.010 sec  (  1.4%)
RI-J Coulomb gradient       ....       0.076 sec  ( 11.0%)
COSX gradient               ....       0.308 sec  ( 44.6%)
XC gradient                 ....       0.153 sec  ( 22.2%)

Maximum memory used throughout the entire SCFGRAD-calculation: 35.9 MB

                            ***************************************
                            *     ORCA property calculations      *
                            ***************************************

                                    ---------------------
                                    Active property flags
                                    ---------------------
   (+) Dipole Moment


------------------------------------------------------------------------------
                       ORCA ELECTRIC PROPERTIES CALCULATION
------------------------------------------------------------------------------

Dipole Moment Calculation                       ... on
Quadrupole Moment Calculation                   ... off
Polarizability Calculation                      ... off
GBWName                                         ... ox_gs_A_orca0041.gbw
Electron density                                ... ox_gs_A_orca0041.scfp
The origin for moment calculation is the CENTER OF MASS  = (-0.059696,  0.014351  0.120491)

-------------
DIPOLE MOMENT
-------------
                                X             Y             Z
Electronic contribution:     -0.09443       1.59732       0.24149
Nuclear contribution   :      0.10677      -2.43392      -0.24509
                        -----------------------------------------
Total Dipole Moment    :      0.01234      -0.83659      -0.00360
                        -----------------------------------------
Magnitude (a.u.)       :      0.83669
Magnitude (Debye)      :      2.12670



--------------------
Rotational spectrum 
--------------------
 
Rotational constants in cm-1:     0.807704     0.719177     0.442062 
Rotational constants in MHz : 24214.366785 21560.397218 13252.680208 

 Dipole components along the rotational axes: 
x,y,z [a.u.] :     0.074440    -0.832618     0.035486 
x,y,z [Debye]:     0.189211    -2.116347     0.090197 

 

Timings for individual modules:

Sum of individual times         ...        3.904 sec (=   0.065 min)
GTO integral calculation        ...        0.297 sec (=   0.005 min)   7.6 %
SCF iterations                  ...        2.692 sec (=   0.045 min)  68.9 %
SCF Gradient evaluation         ...        0.916 sec (=   0.015 min)  23.5 %
                             ****ORCA TERMINATED NORMALLY****
TOTAL RUN TIME: 0 days 0 hours 0 minutes 4 seconds 185 msec
