
                                 *****************
                                 * O   R   C   A *
                                 *****************

                                            #,                                       
                                            ###                                      
                                            ####                                     
                                            #####                                    
                                            ######                                   
                                           ########,                                 
                                     ,,################,,,,,                         
                               ,,#################################,,                 
                          ,,##########################################,,             
                       ,#########################################, ''#####,          
                    ,#############################################,,   '####,        
                  ,##################################################,,,,####,       
                ,###########''''           ''''###############################       
              ,#####''   ,,,,##########,,,,          '''####'''          '####       
            ,##' ,,,,###########################,,,                        '##       
           ' ,,###''''                  '''############,,,                           
         ,,##''                                '''############,,,,        ,,,,,,###''
      ,#''                                            '''#######################'''  
     '                                                          ''''####''''         
             ,#######,   #######,   ,#######,      ##                                
            ,#'     '#,  ##    ##  ,#'     '#,    #''#        ######   ,####,        
            ##       ##  ##   ,#'  ##            #'  '#       #        #'  '#        
            ##       ##  #######   ##           ,######,      #####,   #    #        
            '#,     ,#'  ##    ##  '#,     ,#' ,#      #,         ##   #,  ,#        
             '#######'   ##     ##  '#######'  #'      '#     #####' # '####'        



                  #######################################################
                  #                        -***-                        #
                  #          Department of theory and spectroscopy      #
                  #    Directorship and core code : Frank Neese         #
                  #        Max Planck Institute fuer Kohlenforschung    #
                  #                Kaiser Wilhelm Platz 1               #
                  #                 D-45470 Muelheim/Ruhr               #
                  #                      Germany                        #
                  #                                                     #
                  #                  All rights reserved                #
                  #                        -***-                        #
                  #######################################################


                         Program Version 5.0.2 -  RELEASE  -


 With contributions from (in alphabetic order):
   Daniel Aravena         : Magnetic Suceptibility
   Michael Atanasov       : Ab Initio Ligand Field Theory (pilot matlab implementation)
   Alexander A. Auer      : GIAO ZORA, VPT2 properties, NMR spectrum
   Ute Becker             : Parallelization
   Giovanni Bistoni       : ED, misc. LED, open-shell LED, HFLD
   Martin Brehm           : Molecular dynamics
   Dmytro Bykov           : SCF Hessian
   Vijay G. Chilkuri      : MRCI spin determinant printing, contributions to CSF-ICE
   Dipayan Datta          : RHF DLPNO-CCSD density
   Achintya Kumar Dutta   : EOM-CC, STEOM-CC
   Dmitry Ganyushin       : Spin-Orbit,Spin-Spin,Magnetic field MRCI
   Miquel Garcia          : C-PCM and meta-GGA Hessian, CC/C-PCM, Gaussian charge scheme
   Yang Guo               : DLPNO-NEVPT2, F12-NEVPT2, CIM, IAO-localization
   Andreas Hansen         : Spin unrestricted coupled pair/coupled cluster methods
   Benjamin Helmich-Paris : MC-RPA, TRAH-SCF, COSX integrals
   Lee Huntington         : MR-EOM, pCC
   Robert Izsak           : Overlap fitted RIJCOSX, COSX-SCS-MP3, EOM
   Marcus Kettner         : VPT2
   Christian Kollmar      : KDIIS, OOCD, Brueckner-CCSD(T), CCSD density, CASPT2, CASPT2-K
   Simone Kossmann        : Meta GGA functionals, TD-DFT gradient, OOMP2, MP2 Hessian
   Martin Krupicka        : Initial AUTO-CI
   Lucas Lang             : DCDCAS
   Marvin Lechner         : AUTO-CI (C++ implementation), FIC-MRCC
   Dagmar Lenk            : GEPOL surface, SMD
   Dimitrios Liakos       : Extrapolation schemes; Compound Job, initial MDCI parallelization
   Dimitrios Manganas     : Further ROCIS development; embedding schemes
   Dimitrios Pantazis     : SARC Basis sets
   Anastasios Papadopoulos: AUTO-CI, single reference methods and gradients
   Taras Petrenko         : DFT Hessian,TD-DFT gradient, ASA, ECA, R-Raman, ABS, FL, XAS/XES, NRVS
   Peter Pinski           : DLPNO-MP2, DLPNO-MP2 Gradient
   Christoph Reimann      : Effective Core Potentials
   Marius Retegan         : Local ZFS, SOC
   Christoph Riplinger    : Optimizer, TS searches, QM/MM, DLPNO-CCSD(T), (RO)-DLPNO pert. Triples
   Tobias Risthaus        : Range-separated hybrids, TD-DFT gradient, RPA, STAB
   Michael Roemelt        : Original ROCIS implementation
   Masaaki Saitow         : Open-shell DLPNO-CCSD energy and density
   Barbara Sandhoefer     : DKH picture change effects
   Avijit Sen             : IP-ROCIS
   Kantharuban Sivalingam : CASSCF convergence, NEVPT2, FIC-MRCI
   Bernardo de Souza      : ESD, SOC TD-DFT
   Georgi Stoychev        : AutoAux, RI-MP2 NMR, DLPNO-MP2 response
   Willem Van den Heuvel  : Paramagnetic NMR
   Boris Wezisla          : Elementary symmetry handling
   Frank Wennmohs         : Technical directorship


 We gratefully acknowledge several colleagues who have allowed us to
 interface, adapt or use parts of their codes:
   Stefan Grimme, W. Hujo, H. Kruse, P. Pracht,  : VdW corrections, initial TS optimization,
                  C. Bannwarth, S. Ehlert          DFT functionals, gCP, sTDA/sTD-DF
   Ed Valeev, F. Pavosevic, A. Kumar             : LibInt (2-el integral package), F12 methods
   Garnet Chan, S. Sharma, J. Yang, R. Olivares  : DMRG
   Ulf Ekstrom                                   : XCFun DFT Library
   Mihaly Kallay                                 : mrcc  (arbitrary order and MRCC methods)
   Jiri Pittner, Ondrej Demel                    : Mk-CCSD
   Frank Weinhold                                : gennbo (NPA and NBO analysis)
   Christopher J. Cramer and Donald G. Truhlar   : smd solvation model
   Lars Goerigk                                  : TD-DFT with DH, B97 family of functionals
   V. Asgeirsson, H. Jonsson                     : NEB implementation
   FAccTs GmbH                                   : IRC, NEB, NEB-TS, DLPNO-Multilevel, CI-OPT
                                                   MM, QMMM, 2- and 3-layer-ONIOM, Crystal-QMMM,
                                                   LR-CPCM, SF, NACMEs, symmetry and pop. for TD-DFT,
                                                   nearIR, NL-DFT gradient (VV10), updates on ESD,
                                                   ML-optimized integration grids
   S Lehtola, MJT Oliveira, MAL Marques          : LibXC Library
   Liviu Ungur et al                             : ANISO software


 Your calculation uses the libint2 library for the computation of 2-el integrals
 For citations please refer to: http://libint.valeyev.net

 Your ORCA version has been built with support for libXC version: 5.1.0
 For citations please refer to: https://tddft.org/programs/libxc/

 This ORCA versions uses:
   CBLAS   interface :  Fast vector & matrix operations
   LAPACKE interface :  Fast linear algebra routines
   SCALAPACK package :  Parallel linear algebra routines
   Shared memory     :  Shared parallel matrices
   BLAS/LAPACK       :  OpenBLAS 0.3.15  USE64BITINT DYNAMIC_ARCH NO_AFFINITY SkylakeX SINGLE_THREADED
        Core in use  :  SkylakeX
   Copyright (c) 2011-2014, The OpenBLAS Project


Your calculation utilizes the atom-pairwise dispersion correction
with the Becke-Johnson damping scheme (D3BJ)
Cite in your paper:
S.Grimme, S.Ehrlich, L.Goerigk, J Comput Chem, (2011), 32, 1456–1465 
S.Grimme, J.Antony, S.Ehrlich and H.Krieg, J.Chem.Phys., 132, (2010), 154104 
   

================================================================================

----- Orbital basis set information -----
Your calculation utilizes the basis: def2-TZVP
   F. Weigend and R. Ahlrichs, Phys. Chem. Chem. Phys. 7, 3297 (2005).

----- AuxJ basis set information -----
Your calculation utilizes the auxiliary basis: def2/J
   F. Weigend, Phys. Chem. Chem. Phys. 8, 1057 (2006).

================================================================================
                                        WARNINGS
                       Please study these warnings very carefully!
================================================================================


INFO   : the flag for use of the SHARK integral package has been found!

================================================================================
                                       INPUT FILE
================================================================================
NAME = ox_gs_A_orca0035.inp
|  1> ! engrad PBE0 D3BJ def2-TZVP  
|  2> %pal nprocs 8 end
|  3> %maxcore 3000
|  4>  
|  5> *xyz 0 1 
|  6> O   0.02362992412065215 0.7797257967156939 0.04913465919727569
|  7> C   -0.6456158677768711 -0.39630198674909345 -0.09204371156658227
|  8> C   0.6649106916632148 -0.4782614188847839 0.0013045525105416893
|  9> H   -1.2379399789765437 -0.7045580006576733 0.9293145582238539
| 10> H   -1.3015919166176662 -0.6988468001495974 -0.9903092748424112
| 11> H   1.2176611576944547 -0.7358550902808167 -0.9687698826488667
| 12> H   1.316504959830392 -0.7157407544415971 1.0515952732418694
| 13> *
| 14> 
| 15>                          ****END OF INPUT****
================================================================================

                     *******************************
                     * Energy+Gradient Calculation *
                     *******************************

---------------------------------
CARTESIAN COORDINATES (ANGSTROEM)
---------------------------------
  O      0.023630    0.779726    0.049135
  C     -0.645616   -0.396302   -0.092044
  C      0.664911   -0.478261    0.001305
  H     -1.237940   -0.704558    0.929315
  H     -1.301592   -0.698847   -0.990309
  H      1.217661   -0.735855   -0.968770
  H      1.316505   -0.715741    1.051595

----------------------------
CARTESIAN COORDINATES (A.U.)
----------------------------
  NO LB      ZA    FRAG     MASS         X           Y           Z
   0 O     8.0000    0    15.999    0.044654    1.473468    0.092851
   1 C     6.0000    0    12.011   -1.220037   -0.748902   -0.173937
   2 C     6.0000    0    12.011    1.256499   -0.903783    0.002465
   3 H     1.0000    0     1.008   -2.339368   -1.331422    1.756150
   4 H     1.0000    0     1.008   -2.459652   -1.320629   -1.871413
   5 H     1.0000    0     1.008    2.301046   -1.390565   -1.830710
   6 H     1.0000    0     1.008    2.487834   -1.352554    1.987227

--------------------------------
INTERNAL COORDINATES (ANGSTROEM)
--------------------------------
 O      0   0   0     0.000000000000     0.00000000     0.00000000
 C      1   0   0     1.360464115596     0.00000000     0.00000000
 C      2   1   0     1.316400816590    63.68739290     0.00000000
 H      2   1   3     1.220263224919   111.73376060   107.04112298
 H      2   1   3     1.152700725659   125.99351816   241.59981144
 H      3   2   1     1.145832442808   115.73504517   252.90573925
 H      3   2   1     1.258603242956   125.89662395    96.46270444

---------------------------
INTERNAL COORDINATES (A.U.)
---------------------------
 O      0   0   0     0.000000000000     0.00000000     0.00000000
 C      1   0   0     2.570904593504     0.00000000     0.00000000
 C      2   1   0     2.487637025826    63.68739290     0.00000000
 H      2   1   3     2.305963306392   111.73376060   107.04112298
 H      2   1   3     2.178288685868   125.99351816   241.59981144
 H      3   2   1     2.165309512269   115.73504517   252.90573925
 H      3   2   1     2.378415440452   125.89662395    96.46270444

---------------------
BASIS SET INFORMATION
---------------------
There are 3 groups of distinct atoms

 Group   1 Type O   : 11s6p2d1f contracted to 5s3p2d1f pattern {62111/411/11/1}
 Group   2 Type C   : 11s6p2d1f contracted to 5s3p2d1f pattern {62111/411/11/1}
 Group   3 Type H   : 5s1p contracted to 3s1p pattern {311/1}

Atom   0O    basis set group =>   1
Atom   1C    basis set group =>   2
Atom   2C    basis set group =>   2
Atom   3H    basis set group =>   3
Atom   4H    basis set group =>   3
Atom   5H    basis set group =>   3
Atom   6H    basis set group =>   3
---------------------------------
AUXILIARY/J BASIS SET INFORMATION
---------------------------------
There are 3 groups of distinct atoms

 Group   1 Type O   : 12s5p4d2f1g contracted to 6s4p3d1f1g pattern {711111/2111/211/2/1}
 Group   2 Type C   : 12s5p4d2f1g contracted to 6s4p3d1f1g pattern {711111/2111/211/2/1}
 Group   3 Type H   : 5s2p1d contracted to 3s1p1d pattern {311/2/1}

Atom   0O    basis set group =>   1
Atom   1C    basis set group =>   2
Atom   2C    basis set group =>   2
Atom   3H    basis set group =>   3
Atom   4H    basis set group =>   3
Atom   5H    basis set group =>   3
Atom   6H    basis set group =>   3


           ************************************************************
           *        Program running with 8 parallel MPI-processes     *
           *              working on a common directory               *
           ************************************************************
------------------------------------------------------------------------------
                           ORCA GTO INTEGRAL CALCULATION
                           -- RI-GTO INTEGRALS CHOSEN --
------------------------------------------------------------------------------
------------------------------------------------------------------------------
                   ___                                                        
                  /   \      - P O W E R E D   B Y -                         
                 /     \                                                     
                 |  |  |   _    _      __       _____    __    __             
                 |  |  |  | |  | |    /  \     |  _  \  |  |  /  |          
                  \  \/   | |  | |   /    \    | | | |  |  | /  /          
                 / \  \   | |__| |  /  /\  \   | |_| |  |  |/  /          
                |  |  |   |  __  | /  /__\  \  |    /   |      \           
                |  |  |   | |  | | |   __   |  |    \   |  |\   \          
                \     /   | |  | | |  |  |  |  | |\  \  |  | \   \       
                 \___/    |_|  |_| |__|  |__|  |_| \__\ |__|  \__/        
                                                                              
                      - O R C A' S   B I G   F R I E N D -                    
                                      &                                       
                       - I N T E G R A L  F E E D E R -                       
                                                                              
 v1 FN, 2020, v2 2021                                                         
------------------------------------------------------------------------------


Reading SHARK input file ox_gs_A_orca0035.SHARKINP.tmp ... ok
----------------------
SHARK INTEGRAL PACKAGE
----------------------

Number of atoms                             ...      7
Number of basis functions                   ...    117
Number of shells                            ...     49
Maximum angular momentum                    ...      3
Integral batch strategy                     ... SHARK/LIBINT Hybrid
RI-J (if used) integral strategy            ... SPLIT-RIJ (Revised 2003 algorithm where possible)
Printlevel                                  ...      1
Contraction scheme used                     ... SEGMENTED contraction
Coulomb Range Separation                    ... NOT USED
Exchange Range Separation                   ... NOT USED
Finite Nucleus Model                        ... NOT USED
Auxiliary Coulomb fitting basis             ... AVAILABLE
   # of basis functions in Aux-J            ...    191
   # of shells in Aux-J                     ...     65
   Maximum angular momentum in Aux-J        ...      4
Auxiliary J/K fitting basis                 ... NOT available
Auxiliary Correlation fitting basis         ... NOT available
Auxiliary 'external' fitting basis          ... NOT available
Integral threshold                          ...     2.500000e-11
Primitive cut-off                           ...     2.500000e-12
Primitive pair pre-selection threshold      ...     2.500000e-12

Calculating pre-screening integrals         ... done (  0.0 sec) Dimension = 49
Organizing shell pair data                  ... done (  0.0 sec)
Shell pair information
Total number of shell pairs                 ...      1225
Shell pairs after pre-screening             ...      1221
Total number of primitive shell pairs       ...      3648
Primitive shell pairs kept                  ...      3156
          la=0 lb=0:    374 shell pairs
          la=1 lb=0:    351 shell pairs
          la=1 lb=1:     91 shell pairs
          la=2 lb=0:    162 shell pairs
          la=2 lb=1:     78 shell pairs
          la=2 lb=2:     21 shell pairs
          la=3 lb=0:     81 shell pairs
          la=3 lb=1:     39 shell pairs
          la=3 lb=2:     18 shell pairs
          la=3 lb=3:      6 shell pairs

Calculating one electron integrals          ... done (  0.0 sec)
Calculating RI/J V-Matrix + Cholesky decomp.... done (  0.0 sec)
Calculating Nuclear repulsion               ... done (  0.0 sec) ENN=     76.606015431095 Eh

SHARK setup successfully completed in   0.1 seconds

Maximum memory used throughout the entire GTOINT-calculation: 14.9 MB


           ************************************************************
           *        Program running with 8 parallel MPI-processes     *
           *              working on a common directory               *
           ************************************************************
-------------------------------------------------------------------------------
                                 ORCA SCF
-------------------------------------------------------------------------------

------------
SCF SETTINGS
------------
Hamiltonian:
 Density Functional     Method          .... DFT(GTOs)
 Exchange Functional    Exchange        .... PBE
   PBE kappa parameter   XKappa         ....  0.804000
   PBE mue parameter    XMuePBE         ....  0.219520
 Correlation Functional Correlation     .... PBE
   PBE beta parameter  CBetaPBE         ....  0.066725
 LDA part of GGA corr.  LDAOpt          .... PW91-LDA
 Gradients option       PostSCFGGA      .... off
 Hybrid DFT is turned on
   Fraction HF Exchange ScalHFX         ....  0.250000
   Scaling of DF-GGA-X  ScalDFX         ....  0.750000
   Scaling of DF-GGA-C  ScalDFC         ....  1.000000
   Scaling of DF-LDA-C  ScalLDAC        ....  1.000000
   Perturbative correction              ....  0.000000
   Density functional embedding theory  .... OFF
   NL short-range parameter             ....  6.900000
 RI-approximation to the Coulomb term is turned on
   Number of AuxJ basis functions       .... 191
   RIJ-COSX (HFX calculated with COS-X)).... on


General Settings:
 Integral files         IntName         .... ox_gs_A_orca0035
 Hartree-Fock type      HFTyp           .... RHF
 Total Charge           Charge          ....    0
 Multiplicity           Mult            ....    1
 Number of Electrons    NEL             ....   24
 Basis Dimension        Dim             ....  117
 Nuclear Repulsion      ENuc            ....     76.6060154311 Eh

Convergence Acceleration:
 DIIS                   CNVDIIS         .... on
   Start iteration      DIISMaxIt       ....    12
   Startup error        DIISStart       ....  0.200000
   # of expansion vecs  DIISMaxEq       ....     5
   Bias factor          DIISBfac        ....   1.050
   Max. coefficient     DIISMaxC        ....  10.000
 Trust-Rad. Augm. Hess. CNVTRAH         .... auto
   Auto Start mean grad. ratio tolernc. ....  1.125000
   Auto Start start iteration           ....    20
   Auto Start num. interpolation iter.  ....    10
   Max. Number of Micro iterations      ....    16
   Max. Number of Macro iterations      .... Maxiter - #DIIS iter
   Number of Davidson start vectors     ....     2
   Converg. threshold I  (grad. norm)   ....   1.000e-05
   Converg. threshold II (energy diff.) ....   1.000e-08
   Grad. Scal. Fac. for Micro threshold ....   0.100
   Minimum threshold for Micro iter.    ....   0.010
   NR start threshold (gradient norm)   ....   0.001
   Initial trust radius                 ....   0.400
   Minimum AH scaling param. (alpha)    ....   1.000
   Maximum AH scaling param. (alpha)    .... 1000.000
   Orbital update algorithm             .... Taylor
   White noise on init. David. guess    .... on
   Maximum white noise                  ....   0.010
   Quad. conv. algorithm                .... NR
 SOSCF                  CNVSOSCF        .... on
   Start iteration      SOSCFMaxIt      ....   150
   Startup grad/error   SOSCFStart      ....  0.003300
 Level Shifting         CNVShift        .... on
   Level shift para.    LevelShift      ....    0.2500
   Turn off err/grad.   ShiftErr        ....    0.0010
 Zerner damping         CNVZerner       .... off
 Static damping         CNVDamp         .... on
   Fraction old density DampFac         ....    0.7000
   Max. Damping (<1)    DampMax         ....    0.9800
   Min. Damping (>=0)   DampMin         ....    0.0000
   Turn off err/grad.   DampErr         ....    0.1000
 Fernandez-Rico         CNVRico         .... off

SCF Procedure:
 Maximum # iterations   MaxIter         ....   125
 SCF integral mode      SCFMode         .... Direct
   Integral package                     .... SHARK and LIBINT hybrid scheme
 Reset frequency        DirectResetFreq ....    20
 Integral Threshold     Thresh          ....  2.500e-11 Eh
 Primitive CutOff       TCut            ....  2.500e-12 Eh

Convergence Tolerance:
 Convergence Check Mode ConvCheckMode   .... Total+1el-Energy
 Convergence forced     ConvForced      .... 0
 Energy Change          TolE            ....  1.000e-08 Eh
 1-El. energy change                    ....  1.000e-05 Eh
 Orbital Gradient       TolG            ....  1.000e-05
 Orbital Rotation angle TolX            ....  1.000e-05
 DIIS Error             TolErr          ....  5.000e-07


Diagonalization of the overlap matrix:
Smallest eigenvalue                        ... 1.478e-04
Time for diagonalization                   ...    0.001 sec
Threshold for overlap eigenvalues          ... 1.000e-08
Number of eigenvalues below threshold      ... 0
Time for construction of square roots      ...    0.001 sec
Total time needed                          ...    0.003 sec

Time for model grid setup =    0.022 sec

------------------------------
INITIAL GUESS: MODEL POTENTIAL
------------------------------
Loading Hartree-Fock densities                     ... done
Calculating cut-offs                               ... done
Initializing the effective Hamiltonian             ... done
Setting up the integral package (SHARK)            ... done
Starting the Coulomb interaction                   ... done (   0.0 sec)
Reading the grid                                   ... done
Mapping shells                                     ... done
Starting the XC term evaluation                    ... done (   0.0 sec)
  promolecular density results
     # of electrons  =     23.997068093
     EX              =    -19.546072468
     EC              =     -0.782590230
     EX+EC           =    -20.328662698
Transforming the Hamiltonian                       ... done (   0.0 sec)
Diagonalizing the Hamiltonian                      ... done (   0.0 sec)
Back transforming the eigenvectors                 ... done (   0.0 sec)
Now organizing SCF variables                       ... done
                      ------------------
                      INITIAL GUESS DONE (   0.0 sec)
                      ------------------
-------------------
DFT GRID GENERATION
-------------------

General Integration Accuracy     IntAcc      ... 4.388
Radial Grid Type                 RadialGrid  ... OptM3 with GC (2021)
Angular Grid (max. ang.)         AngularGrid ... 4 (Lebedev-302)
Angular grid pruning method      GridPruning ... 4 (adaptive)
Weight generation scheme         WeightScheme... Becke
Basis function cutoff            BFCut       ... 1.0000e-11
Integration weight cutoff        WCut        ... 1.0000e-14
Angular grids for H and He will be reduced by one unit
Partially contracted basis set               ... off
Rotationally invariant grid construction     ... off

Total number of grid points                  ...    31317
Total number of batches                      ...      493
Average number of points per batch           ...       63
Average number of grid points per atom       ...     4474
Time for grid setup =    0.110 sec

--------------------
COSX GRID GENERATION
--------------------

GRIDX 1
-------
General Integration Accuracy     IntAcc      ... 3.816
Radial Grid Type                 RadialGrid  ... OptM3 with GC (2021)
Angular Grid (max. ang.)         AngularGrid ... 1 (Lebedev-50)
Angular grid pruning method      GridPruning ... 4 (adaptive)
Weight generation scheme         WeightScheme... Becke
Basis function cutoff            BFCut       ... 1.0000e-11
Integration weight cutoff        WCut        ... 1.0000e-14
Angular grids for H and He will be reduced by one unit
Partially contracted basis set               ... on
Rotationally invariant grid construction     ... off

Total number of grid points                  ...     4037
Total number of batches                      ...       68
Average number of points per batch           ...       59
Average number of grid points per atom       ...      577
UseSFitting                                  ... on

GRIDX 2
-------
General Integration Accuracy     IntAcc      ... 4.020
Radial Grid Type                 RadialGrid  ... OptM3 with GC (2021)
Angular Grid (max. ang.)         AngularGrid ... 2 (Lebedev-110)
Angular grid pruning method      GridPruning ... 4 (adaptive)
Weight generation scheme         WeightScheme... Becke
Basis function cutoff            BFCut       ... 1.0000e-11
Integration weight cutoff        WCut        ... 1.0000e-14
Angular grids for H and He will be reduced by one unit
Partially contracted basis set               ... on
Rotationally invariant grid construction     ... off

Total number of grid points                  ...     8726
Total number of batches                      ...      140
Average number of points per batch           ...       62
Average number of grid points per atom       ...     1247
UseSFitting                                  ... on

GRIDX 3
-------
General Integration Accuracy     IntAcc      ... 4.338
Radial Grid Type                 RadialGrid  ... OptM3 with GC (2021)
Angular Grid (max. ang.)         AngularGrid ... 3 (Lebedev-194)
Angular grid pruning method      GridPruning ... 4 (adaptive)
Weight generation scheme         WeightScheme... Becke
Basis function cutoff            BFCut       ... 1.0000e-11
Integration weight cutoff        WCut        ... 1.0000e-14
Angular grids for H and He will be reduced by one unit
Partially contracted basis set               ... on
Rotationally invariant grid construction     ... off

Total number of grid points                  ...    19268
Total number of batches                      ...      304
Average number of points per batch           ...       63
Average number of grid points per atom       ...     2753
UseSFitting                                  ... on

Time for X-Grid setup             =    0.072 sec

--------------
SCF ITERATIONS
--------------
ITER       Energy         Delta-E        Max-DP      RMS-DP      [F,P]     Damp
               ***  Starting incremental Fock matrix formation  ***
  0   -153.5513534664   0.000000000000 0.03525573  0.00129239  0.1739204 0.7000
  1   -153.5862319718  -0.034878505353 0.01952265  0.00096275  0.0715848 0.7000
                               ***Turning on DIIS***
  2   -153.5996247760  -0.013392804207 0.03030894  0.00154676  0.0309837 0.0000
  3   -153.6199971287  -0.020372352674 0.01491316  0.00074801  0.0411418 0.0000
  4   -153.6252544432  -0.005257314493 0.00538326  0.00022734  0.0074341 0.0000
  5   -153.6254598913  -0.000205448100 0.00204980  0.00009193  0.0046821 0.0000
                      *** Initiating the SOSCF procedure ***
                           *** Shutting down DIIS ***
                      *** Re-Reading the Fockian *** 
                      *** Removing any level shift *** 
ITER      Energy       Delta-E        Grad      Rot      Max-DP    RMS-DP
  6   -153.62549287  -0.0000329808  0.000165  0.000165  0.001037  0.000044
               *** Restarting incremental Fock matrix formation ***
  7   -153.62549188   0.0000009876  0.000090  0.000147  0.000152  0.000006
  8   -153.62549181   0.0000000730  0.000137  0.000086  0.000109  0.000005
  9   -153.62549197  -0.0000001629  0.000010  0.000015  0.000025  0.000001
 10   -153.62549197   0.0000000016  0.000012  0.000009  0.000015  0.000001
                 **** Energy Check signals convergence ****
              ***Rediagonalizing the Fockian in SOSCF/NRSCF***

               *****************************************************
               *                     SUCCESS                       *
               *           SCF CONVERGED AFTER  11 CYCLES          *
               *****************************************************

Old exchange energy                            =     -4.985889640 Eh
New exchange energy                            =     -4.985885652 Eh
Exchange energy change after final integration =      0.000003988 Eh
Total energy after final integration           =   -153.625487989 Eh
Final COS-X integration done in                =     0.258 sec

----------------
TOTAL SCF ENERGY
----------------

Total Energy       :         -153.62548799 Eh           -4180.36205 eV

Components:
Nuclear Repulsion  :           76.60601543 Eh            2084.55566 eV
Electronic Energy  :         -230.23150342 Eh           -6264.91771 eV
One Electron Energy:         -359.70090041 Eh           -9787.95911 eV
Two Electron Energy:          129.46939699 Eh            3523.04140 eV
Max COSX asymmetry :            0.00000133 Eh               0.00004 eV

Virial components:
Potential Energy   :         -306.55549816 Eh           -8341.79919 eV
Kinetic Energy     :          152.93001017 Eh            4161.43714 eV
Virial Ratio       :            2.00454769


DFT components:
N(Alpha)           :       12.000002358832 electrons
N(Beta)            :       12.000002358832 electrons
N(Total)           :       24.000004717664 electrons
E(X)               :      -14.932645716507 Eh       
E(C)               :       -0.791510660243 Eh       
E(XC)              :      -15.724156376750 Eh       
DFET-embed. en.    :        0.000000000000 Eh       

---------------
SCF CONVERGENCE
---------------

  Last Energy change         ...   -4.6631e-09  Tolerance :   1.0000e-08
  Last MAX-Density change    ...    1.7764e-15  Tolerance :   1.0000e-07
  Last RMS-Density change    ...    2.6026e-17  Tolerance :   5.0000e-09
  Last Orbital Gradient      ...    3.3109e-07  Tolerance :   1.0000e-05
  Last Orbital Rotation      ...    6.6507e-07  Tolerance :   1.0000e-05

             **** THE GBW FILE WAS UPDATED (ox_gs_A_orca0035.gbw) ****
             **** DENSITY ox_gs_A_orca0035.scfp WAS UPDATED ****
             **** ENERGY FILE WAS UPDATED (ox_gs_A_orca0035.en.tmp) ****
             **** THE GBW FILE WAS UPDATED (ox_gs_A_orca0035.gbw) ****
             **** DENSITY ox_gs_A_orca0035.scfp WAS UPDATED ****
----------------
ORBITAL ENERGIES
----------------

  NO   OCC          E(Eh)            E(eV) 
   0   2.0000     -19.232336      -523.3385 
   1   2.0000     -10.288042      -279.9519 
   2   2.0000     -10.282849      -279.8106 
   3   2.0000      -1.152980       -31.3742 
   4   2.0000      -0.717157       -19.5148 
   5   2.0000      -0.627423       -17.0730 
   6   2.0000      -0.535562       -14.5734 
   7   2.0000      -0.510396       -13.8886 
   8   2.0000      -0.415868       -11.3163 
   9   2.0000      -0.369402       -10.0520 
  10   2.0000      -0.343462        -9.3461 
  11   2.0000      -0.293186        -7.9780 
  12   0.0000       0.042569         1.1584 
  13   0.0000       0.060654         1.6505 
  14   0.0000       0.080989         2.2038 
  15   0.0000       0.084724         2.3055 
  16   0.0000       0.121215         3.2984 
  17   0.0000       0.146709         3.9921 
  18   0.0000       0.186684         5.0799 
  19   0.0000       0.221382         6.0241 
  20   0.0000       0.270295         7.3551 
  21   0.0000       0.275619         7.5000 
  22   0.0000       0.297031         8.0826 
  23   0.0000       0.340126         9.2553 
  24   0.0000       0.356922         9.7123 
  25   0.0000       0.389960        10.6114 
  26   0.0000       0.399175        10.8621 
  27   0.0000       0.410299        11.1648 
  28   0.0000       0.439266        11.9530 
  29   0.0000       0.447218        12.1694 
  30   0.0000       0.483663        13.1611 
  31   0.0000       0.521565        14.1925 
  32   0.0000       0.556358        15.1393 
  33   0.0000       0.687121        18.6975 
  34   0.0000       0.715750        19.4766 
  35   0.0000       0.738672        20.1003 
  36   0.0000       0.820678        22.3318 
  37   0.0000       0.855498        23.2793 
  38   0.0000       0.905476        24.6393 
  39   0.0000       0.963851        26.2277 
  40   0.0000       1.032615        28.0989 
  41   0.0000       1.061844        28.8942 
  42   0.0000       1.091180        29.6925 
  43   0.0000       1.101792        29.9813 
  44   0.0000       1.197901        32.5965 
  45   0.0000       1.389645        37.8142 
  46   0.0000       1.465841        39.8876 
  47   0.0000       1.508773        41.0558 
  48   0.0000       1.520388        41.3719 
  49   0.0000       1.533919        41.7401 
  50   0.0000       1.557340        42.3774 
  51   0.0000       1.593946        43.3735 
  52   0.0000       1.618069        44.0299 
  53   0.0000       1.653762        45.0011 
  54   0.0000       1.744918        47.4816 
  55   0.0000       1.769421        48.1484 
  56   0.0000       1.786178        48.6044 
  57   0.0000       1.899266        51.6817 
  58   0.0000       1.939134        52.7665 
  59   0.0000       1.982507        53.9468 
  60   0.0000       2.085759        56.7564 
  61   0.0000       2.153734        58.6061 
  62   0.0000       2.172489        59.1164 
  63   0.0000       2.221752        60.4569 
  64   0.0000       2.248684        61.1898 
  65   0.0000       2.338228        63.6264 
  66   0.0000       2.373111        64.5756 
  67   0.0000       2.418884        65.8212 
  68   0.0000       2.508452        68.2584 
  69   0.0000       2.557998        69.6067 
  70   0.0000       2.625928        71.4551 
  71   0.0000       2.653721        72.2114 
  72   0.0000       2.675240        72.7970 
  73   0.0000       2.713795        73.8461 
  74   0.0000       2.769871        75.3720 
  75   0.0000       2.815744        76.6203 
  76   0.0000       2.844888        77.4133 
  77   0.0000       2.933663        79.8290 
  78   0.0000       2.976370        80.9912 
  79   0.0000       3.050218        83.0006 
  80   0.0000       3.053657        83.0942 
  81   0.0000       3.077103        83.7322 
  82   0.0000       3.134427        85.2921 
  83   0.0000       3.252977        88.5180 
  84   0.0000       3.308631        90.0324 
  85   0.0000       3.370857        91.7257 
  86   0.0000       3.408561        92.7516 
  87   0.0000       3.435690        93.4899 
  88   0.0000       3.562676        96.9453 
  89   0.0000       3.626256        98.6754 
  90   0.0000       3.635660        98.9313 
  91   0.0000       3.747183       101.9660 
  92   0.0000       3.847328       104.6911 
  93   0.0000       3.976915       108.2174 
  94   0.0000       4.121692       112.1569 
  95   0.0000       4.153246       113.0156 
  96   0.0000       4.311488       117.3215 
  97   0.0000       4.335679       117.9798 
  98   0.0000       4.473485       121.7297 
  99   0.0000       4.526881       123.1827 
 100   0.0000       4.648877       126.5024 
 101   0.0000       4.814753       131.0161 
 102   0.0000       5.291453       143.9878 
 103   0.0000       5.452396       148.3672 
 104   0.0000       5.733788       156.0243 
 105   0.0000       5.759443       156.7224 
 106   0.0000       5.843993       159.0231 
 107   0.0000       5.962826       162.2567 
 108   0.0000       6.119000       166.5065 
 109   0.0000       6.574629       178.9048 
 110   0.0000       6.622994       180.2208 
 111   0.0000       6.825579       185.7335 
 112   0.0000       6.969521       189.6503 
 113   0.0000       7.149001       194.5342 
 114   0.0000      22.101809       601.4208 
 115   0.0000      22.608461       615.2075 
 116   0.0000      43.886799      1194.2205 

                    ********************************
                    * MULLIKEN POPULATION ANALYSIS *
                    ********************************

-----------------------
MULLIKEN ATOMIC CHARGES
-----------------------
   0 O :   -0.304251
   1 C :   -0.043964
   2 C :   -0.081503
   3 H :    0.079478
   4 H :    0.118731
   5 H :    0.108652
   6 H :    0.122857
Sum of atomic charges:    0.0000000

--------------------------------
MULLIKEN REDUCED ORBITAL CHARGES
--------------------------------
  0 O s       :     3.858962  s :     3.858962
      pz      :     1.788774  p :     4.395142
      px      :     1.349954
      py      :     1.256414
      dz2     :     0.006080  d :     0.047541
      dxz     :     0.002815
      dyz     :     0.008608
      dx2y2   :     0.013932
      dxy     :     0.016106
      f0      :     0.000320  f :     0.002605
      f+1     :     0.000183
      f-1     :     0.000507
      f+2     :     0.000164
      f-2     :     0.000226
      f+3     :     0.000460
      f-3     :     0.000746
  1 C s       :     3.174594  s :     3.174594
      pz      :     1.019286  p :     2.716573
      px      :     0.942913
      py      :     0.754374
      dz2     :     0.005832  d :     0.139194
      dxz     :     0.033463
      dyz     :     0.036217
      dx2y2   :     0.036570
      dxy     :     0.027112
      f0      :     0.001740  f :     0.013604
      f+1     :     0.001284
      f-1     :     0.000955
      f+2     :     0.001818
      f-2     :     0.002031
      f+3     :     0.001910
      f-3     :     0.003867
  2 C s       :     3.212361  s :     3.212361
      pz      :     1.027981  p :     2.726165
      px      :     0.957027
      py      :     0.741157
      dz2     :     0.006872  d :     0.130438
      dxz     :     0.032352
      dyz     :     0.033464
      dx2y2   :     0.032959
      dxy     :     0.024793
      f0      :     0.001723  f :     0.012538
      f+1     :     0.001167
      f-1     :     0.000702
      f+2     :     0.001819
      f-2     :     0.001617
      f+3     :     0.001936
      f-3     :     0.003576
  3 H s       :     0.904201  s :     0.904201
      pz      :     0.008751  p :     0.016321
      px      :     0.004764
      py      :     0.002806
  4 H s       :     0.862666  s :     0.862666
      pz      :     0.008851  p :     0.018603
      px      :     0.006710
      py      :     0.003041
  5 H s       :     0.871887  s :     0.871887
      pz      :     0.010430  p :     0.019461
      px      :     0.005722
      py      :     0.003309
  6 H s       :     0.862244  s :     0.862244
      pz      :     0.008295  p :     0.014899
      px      :     0.004452
      py      :     0.002152


                     *******************************
                     * LOEWDIN POPULATION ANALYSIS *
                     *******************************

----------------------
LOEWDIN ATOMIC CHARGES
----------------------
   0 O :    0.196383
   1 C :   -0.404039
   2 C :   -0.342088
   3 H :    0.134407
   4 H :    0.131892
   5 H :    0.135119
   6 H :    0.148326

-------------------------------
LOEWDIN REDUCED ORBITAL CHARGES
-------------------------------
  0 O s       :     3.350426  s :     3.350426
      pz      :     1.665943  p :     4.343062
      px      :     1.315548
      py      :     1.361571
      dz2     :     0.012408  d :     0.101995
      dxz     :     0.008059
      dyz     :     0.018483
      dx2y2   :     0.038093
      dxy     :     0.024951
      f0      :     0.000785  f :     0.008134
      f+1     :     0.000250
      f-1     :     0.001129
      f+2     :     0.000334
      f-2     :     0.000940
      f+3     :     0.001290
      f-3     :     0.003406
  1 C s       :     2.802574  s :     2.802574
      pz      :     0.999929  p :     2.901126
      px      :     1.082618
      py      :     0.818579
      dz2     :     0.051666  d :     0.602305
      dxz     :     0.174929
      dyz     :     0.109057
      dx2y2   :     0.133889
      dxy     :     0.132764
      f0      :     0.012432  f :     0.098034
      f+1     :     0.007128
      f-1     :     0.007417
      f+2     :     0.012318
      f-2     :     0.009333
      f+3     :     0.017580
      f-3     :     0.031825
  2 C s       :     2.824627  s :     2.824627
      pz      :     0.998523  p :     2.887489
      px      :     1.099182
      py      :     0.789784
      dz2     :     0.052876  d :     0.541996
      dxz     :     0.166021
      dyz     :     0.091457
      dx2y2   :     0.117956
      dxy     :     0.113685
      f0      :     0.012217  f :     0.087976
      f+1     :     0.006354
      f-1     :     0.006386
      f+2     :     0.011939
      f-2     :     0.006062
      f+3     :     0.016846
      f-3     :     0.028172
  3 H s       :     0.824521  s :     0.824521
      pz      :     0.023535  p :     0.041072
      px      :     0.010513
      py      :     0.007024
  4 H s       :     0.816888  s :     0.816888
      pz      :     0.026186  p :     0.051219
      px      :     0.016382
      py      :     0.008652
  5 H s       :     0.813144  s :     0.813144
      pz      :     0.028828  p :     0.051737
      px      :     0.014151
      py      :     0.008758
  6 H s       :     0.813474  s :     0.813474
      pz      :     0.022452  p :     0.038199
      px      :     0.010299
      py      :     0.005449


                      *****************************
                      * MAYER POPULATION ANALYSIS *
                      *****************************

  NA   - Mulliken gross atomic population
  ZA   - Total nuclear charge
  QA   - Mulliken gross atomic charge
  VA   - Mayer's total valence
  BVA  - Mayer's bonded valence
  FA   - Mayer's free valence

  ATOM       NA         ZA         QA         VA         BVA        FA
  0 O      8.3043     8.0000    -0.3043     2.0455     2.0455     0.0000
  1 C      6.0440     6.0000    -0.0440     4.0191     4.0191     0.0000
  2 C      6.0815     6.0000    -0.0815     4.0086     4.0086    -0.0000
  3 H      0.9205     1.0000     0.0795     0.9606     0.9606     0.0000
  4 H      0.8813     1.0000     0.1187     0.9517     0.9517     0.0000
  5 H      0.8913     1.0000     0.1087     0.9583     0.9583    -0.0000
  6 H      0.8771     1.0000     0.1229     0.9609     0.9609    -0.0000

  Mayer bond orders larger than 0.100000
B(  0-O ,  1-C ) :   1.0080 B(  0-O ,  2-C ) :   0.9764 B(  1-C ,  2-C ) :   1.1370 
B(  1-C ,  3-H ) :   0.9228 B(  1-C ,  4-H ) :   0.9282 B(  2-C ,  5-H ) :   0.9358 
B(  2-C ,  6-H ) :   0.9281 

-------
TIMINGS
-------

Total SCF time: 0 days 0 hours 0 min 2 sec 

Total time                  ....       2.566 sec
Sum of individual times     ....       2.373 sec  ( 92.5%)

Fock matrix formation       ....       2.110 sec  ( 82.2%)
  Split-RI-J                ....       0.225 sec  ( 10.7% of F)
  Chain of spheres X        ....       1.424 sec  ( 67.5% of F)
  XC integration            ....       0.398 sec  ( 18.9% of F)
    Basis function eval.    ....       0.107 sec  ( 26.9% of XC)
    Density eval.           ....       0.078 sec  ( 19.7% of XC)
    XC-Functional eval.     ....       0.023 sec  (  5.7% of XC)
    XC-Potential eval.      ....       0.146 sec  ( 36.8% of XC)
Diagonalization             ....       0.016 sec  (  0.6%)
Density matrix formation    ....       0.001 sec  (  0.1%)
Population analysis         ....       0.003 sec  (  0.1%)
Initial guess               ....       0.016 sec  (  0.6%)
Orbital Transformation      ....       0.000 sec  (  0.0%)
Orbital Orthonormalization  ....       0.000 sec  (  0.0%)
DIIS solution               ....       0.013 sec  (  0.5%)
SOSCF solution              ....       0.011 sec  (  0.4%)
Grid generation             ....       0.204 sec  (  8.0%)

Maximum memory used throughout the entire SCF-calculation: 61.1 MB


-------------------------------------------------------------------------------
                          DFT DISPERSION CORRECTION                            
                                                                               
                              DFTD3 V3.1  Rev 1                                
                          USING Becke-Johnson damping                          
-------------------------------------------------------------------------------
The PBE0 functional is recognized
Active option DFTDOPT                   ...         4   

molecular C6(AA) [au] = 353.034814 


            DFT-D V3
 parameters
 s6 scaling factor         :     1.0000 
 a1 scaling factor         :     0.4145 
 s8 scaling factor         :     1.2177 
 a2 scaling factor         :     4.8593 
 ad hoc parameters k1-k3   :    16.0000     1.3333    -4.0000 

 Edisp/kcal,au: -1.513621465257  -0.002412109086 
 E6   /kcal   :  -0.992067432 
 E8   /kcal   :  -0.521554033 
 % E8         :  34.457362341 

-------------------------   ----------------
Dispersion correction           -0.002412109
-------------------------   ----------------


-------------------------   --------------------
FINAL SINGLE POINT ENERGY      -153.627900098528
-------------------------   --------------------



           ************************************************************
           *        Program running with 8 parallel MPI-processes     *
           *              working on a common directory               *
           ************************************************************
------------------------------------------------------------------------------
                         ORCA SCF GRADIENT CALCULATION
------------------------------------------------------------------------------

 ... reading COSX grid (gridx3)
Gradient of the Kohn-Sham DFT energy:
Kohn-Sham wavefunction type      ... RKS
Hartree-Fock exchange scaling    ...    0.250
Number of operators              ...    1
Number of atoms                  ...    7
Basis set dimensions             ...  117
Integral neglect threshold       ... 2.5e-11
Integral primitive cutoff        ... 2.5e-12
SHARK Integral package           ... ON

Nuc. rep. gradient       (SHARK) ... done (  0.0 sec)
HCore & Overlap gradient (SHARK) ... done (  0.0 sec)
RI-J gradient            (SHARK) ... done (  0.1 sec)
COSX-gradient                    ... done (  0.3 sec)
Exchange-correlation gradient    ... done
Dispersion correction            ... done

------------------
CARTESIAN GRADIENT
------------------

   1   O   :   -0.012531944   -0.022363491    0.018159389
   2   C   :    0.194707330    0.049168020   -0.050742059
   3   C   :   -0.182127866    0.022111634   -0.025805842
   4   H   :   -0.019197796   -0.013273065    0.048022535
   5   H   :   -0.026006577   -0.017739746   -0.019793011
   6   H   :    0.005666566   -0.012198362   -0.029641431
   7   H   :    0.039363374   -0.005613840    0.059856001

Difference to translation invariance:
           :   -0.0001269128    0.0000911501    0.0000555823

Difference to rotation invariance:
           :    0.0000513717   -0.0000146346    0.0003402001

Norm of the cartesian gradient     ...    0.2977793011
RMS gradient                       ...    0.0649807708
MAX gradient                       ...    0.1947073296

-------
TIMINGS
-------

Total SCF gradient time            ...        0.684 sec

One electron gradient       ....       0.009 sec  (  1.4%)
RI-J Coulomb gradient       ....       0.073 sec  ( 10.7%)
COSX gradient               ....       0.307 sec  ( 44.9%)
XC gradient                 ....       0.160 sec  ( 23.3%)

Maximum memory used throughout the entire SCFGRAD-calculation: 35.9 MB

                            ***************************************
                            *     ORCA property calculations      *
                            ***************************************

                                    ---------------------
                                    Active property flags
                                    ---------------------
   (+) Dipole Moment


------------------------------------------------------------------------------
                       ORCA ELECTRIC PROPERTIES CALCULATION
------------------------------------------------------------------------------

Dipole Moment Calculation                       ... on
Quadrupole Moment Calculation                   ... off
Polarizability Calculation                      ... off
GBWName                                         ... ox_gs_A_orca0035.gbw
Electron density                                ... ox_gs_A_orca0035.scfp
The origin for moment calculation is the CENTER OF MASS  = ( 0.025927, -0.038924 -0.012086)

-------------
DIPOLE MOMENT
-------------
                                X             Y             Z
Electronic contribution:      0.07353       1.89036      -0.15134
Nuclear contribution   :     -0.05637      -2.58936       0.04530
                        -----------------------------------------
Total Dipole Moment    :      0.01715      -0.69900      -0.10603
                        -----------------------------------------
Magnitude (a.u.)       :      0.70720
Magnitude (Debye)      :      1.79757



--------------------
Rotational spectrum 
--------------------
 
Rotational constants in cm-1:     0.838076     0.801784     0.504823 
Rotational constants in MHz : 25124.885050 24036.892317 15134.212522 

 Dipole components along the rotational axes: 
x,y,z [a.u.] :     0.374707    -0.597933    -0.046972 
x,y,z [Debye]:     0.952429    -1.519824    -0.119394 

 

Timings for individual modules:

Sum of individual times         ...        3.977 sec (=   0.066 min)
GTO integral calculation        ...        0.302 sec (=   0.005 min)   7.6 %
SCF iterations                  ...        2.757 sec (=   0.046 min)  69.3 %
SCF Gradient evaluation         ...        0.917 sec (=   0.015 min)  23.1 %
                             ****ORCA TERMINATED NORMALLY****
TOTAL RUN TIME: 0 days 0 hours 0 minutes 4 seconds 257 msec
