
                                 *****************
                                 * O   R   C   A *
                                 *****************

                                            #,                                       
                                            ###                                      
                                            ####                                     
                                            #####                                    
                                            ######                                   
                                           ########,                                 
                                     ,,################,,,,,                         
                               ,,#################################,,                 
                          ,,##########################################,,             
                       ,#########################################, ''#####,          
                    ,#############################################,,   '####,        
                  ,##################################################,,,,####,       
                ,###########''''           ''''###############################       
              ,#####''   ,,,,##########,,,,          '''####'''          '####       
            ,##' ,,,,###########################,,,                        '##       
           ' ,,###''''                  '''############,,,                           
         ,,##''                                '''############,,,,        ,,,,,,###''
      ,#''                                            '''#######################'''  
     '                                                          ''''####''''         
             ,#######,   #######,   ,#######,      ##                                
            ,#'     '#,  ##    ##  ,#'     '#,    #''#        ######   ,####,        
            ##       ##  ##   ,#'  ##            #'  '#       #        #'  '#        
            ##       ##  #######   ##           ,######,      #####,   #    #        
            '#,     ,#'  ##    ##  '#,     ,#' ,#      #,         ##   #,  ,#        
             '#######'   ##     ##  '#######'  #'      '#     #####' # '####'        



                  #######################################################
                  #                        -***-                        #
                  #          Department of theory and spectroscopy      #
                  #    Directorship and core code : Frank Neese         #
                  #        Max Planck Institute fuer Kohlenforschung    #
                  #                Kaiser Wilhelm Platz 1               #
                  #                 D-45470 Muelheim/Ruhr               #
                  #                      Germany                        #
                  #                                                     #
                  #                  All rights reserved                #
                  #                        -***-                        #
                  #######################################################


                         Program Version 5.0.2 -  RELEASE  -


 With contributions from (in alphabetic order):
   Daniel Aravena         : Magnetic Suceptibility
   Michael Atanasov       : Ab Initio Ligand Field Theory (pilot matlab implementation)
   Alexander A. Auer      : GIAO ZORA, VPT2 properties, NMR spectrum
   Ute Becker             : Parallelization
   Giovanni Bistoni       : ED, misc. LED, open-shell LED, HFLD
   Martin Brehm           : Molecular dynamics
   Dmytro Bykov           : SCF Hessian
   Vijay G. Chilkuri      : MRCI spin determinant printing, contributions to CSF-ICE
   Dipayan Datta          : RHF DLPNO-CCSD density
   Achintya Kumar Dutta   : EOM-CC, STEOM-CC
   Dmitry Ganyushin       : Spin-Orbit,Spin-Spin,Magnetic field MRCI
   Miquel Garcia          : C-PCM and meta-GGA Hessian, CC/C-PCM, Gaussian charge scheme
   Yang Guo               : DLPNO-NEVPT2, F12-NEVPT2, CIM, IAO-localization
   Andreas Hansen         : Spin unrestricted coupled pair/coupled cluster methods
   Benjamin Helmich-Paris : MC-RPA, TRAH-SCF, COSX integrals
   Lee Huntington         : MR-EOM, pCC
   Robert Izsak           : Overlap fitted RIJCOSX, COSX-SCS-MP3, EOM
   Marcus Kettner         : VPT2
   Christian Kollmar      : KDIIS, OOCD, Brueckner-CCSD(T), CCSD density, CASPT2, CASPT2-K
   Simone Kossmann        : Meta GGA functionals, TD-DFT gradient, OOMP2, MP2 Hessian
   Martin Krupicka        : Initial AUTO-CI
   Lucas Lang             : DCDCAS
   Marvin Lechner         : AUTO-CI (C++ implementation), FIC-MRCC
   Dagmar Lenk            : GEPOL surface, SMD
   Dimitrios Liakos       : Extrapolation schemes; Compound Job, initial MDCI parallelization
   Dimitrios Manganas     : Further ROCIS development; embedding schemes
   Dimitrios Pantazis     : SARC Basis sets
   Anastasios Papadopoulos: AUTO-CI, single reference methods and gradients
   Taras Petrenko         : DFT Hessian,TD-DFT gradient, ASA, ECA, R-Raman, ABS, FL, XAS/XES, NRVS
   Peter Pinski           : DLPNO-MP2, DLPNO-MP2 Gradient
   Christoph Reimann      : Effective Core Potentials
   Marius Retegan         : Local ZFS, SOC
   Christoph Riplinger    : Optimizer, TS searches, QM/MM, DLPNO-CCSD(T), (RO)-DLPNO pert. Triples
   Tobias Risthaus        : Range-separated hybrids, TD-DFT gradient, RPA, STAB
   Michael Roemelt        : Original ROCIS implementation
   Masaaki Saitow         : Open-shell DLPNO-CCSD energy and density
   Barbara Sandhoefer     : DKH picture change effects
   Avijit Sen             : IP-ROCIS
   Kantharuban Sivalingam : CASSCF convergence, NEVPT2, FIC-MRCI
   Bernardo de Souza      : ESD, SOC TD-DFT
   Georgi Stoychev        : AutoAux, RI-MP2 NMR, DLPNO-MP2 response
   Willem Van den Heuvel  : Paramagnetic NMR
   Boris Wezisla          : Elementary symmetry handling
   Frank Wennmohs         : Technical directorship


 We gratefully acknowledge several colleagues who have allowed us to
 interface, adapt or use parts of their codes:
   Stefan Grimme, W. Hujo, H. Kruse, P. Pracht,  : VdW corrections, initial TS optimization,
                  C. Bannwarth, S. Ehlert          DFT functionals, gCP, sTDA/sTD-DF
   Ed Valeev, F. Pavosevic, A. Kumar             : LibInt (2-el integral package), F12 methods
   Garnet Chan, S. Sharma, J. Yang, R. Olivares  : DMRG
   Ulf Ekstrom                                   : XCFun DFT Library
   Mihaly Kallay                                 : mrcc  (arbitrary order and MRCC methods)
   Jiri Pittner, Ondrej Demel                    : Mk-CCSD
   Frank Weinhold                                : gennbo (NPA and NBO analysis)
   Christopher J. Cramer and Donald G. Truhlar   : smd solvation model
   Lars Goerigk                                  : TD-DFT with DH, B97 family of functionals
   V. Asgeirsson, H. Jonsson                     : NEB implementation
   FAccTs GmbH                                   : IRC, NEB, NEB-TS, DLPNO-Multilevel, CI-OPT
                                                   MM, QMMM, 2- and 3-layer-ONIOM, Crystal-QMMM,
                                                   LR-CPCM, SF, NACMEs, symmetry and pop. for TD-DFT,
                                                   nearIR, NL-DFT gradient (VV10), updates on ESD,
                                                   ML-optimized integration grids
   S Lehtola, MJT Oliveira, MAL Marques          : LibXC Library
   Liviu Ungur et al                             : ANISO software


 Your calculation uses the libint2 library for the computation of 2-el integrals
 For citations please refer to: http://libint.valeyev.net

 Your ORCA version has been built with support for libXC version: 5.1.0
 For citations please refer to: https://tddft.org/programs/libxc/

 This ORCA versions uses:
   CBLAS   interface :  Fast vector & matrix operations
   LAPACKE interface :  Fast linear algebra routines
   SCALAPACK package :  Parallel linear algebra routines
   Shared memory     :  Shared parallel matrices
   BLAS/LAPACK       :  OpenBLAS 0.3.15  USE64BITINT DYNAMIC_ARCH NO_AFFINITY SkylakeX SINGLE_THREADED
        Core in use  :  SkylakeX
   Copyright (c) 2011-2014, The OpenBLAS Project


Your calculation utilizes the atom-pairwise dispersion correction
with the Becke-Johnson damping scheme (D3BJ)
Cite in your paper:
S.Grimme, S.Ehrlich, L.Goerigk, J Comput Chem, (2011), 32, 1456–1465 
S.Grimme, J.Antony, S.Ehrlich and H.Krieg, J.Chem.Phys., 132, (2010), 154104 
   

================================================================================

----- Orbital basis set information -----
Your calculation utilizes the basis: def2-TZVP
   F. Weigend and R. Ahlrichs, Phys. Chem. Chem. Phys. 7, 3297 (2005).

----- AuxJ basis set information -----
Your calculation utilizes the auxiliary basis: def2/J
   F. Weigend, Phys. Chem. Chem. Phys. 8, 1057 (2006).

================================================================================
                                        WARNINGS
                       Please study these warnings very carefully!
================================================================================


INFO   : the flag for use of the SHARK integral package has been found!

================================================================================
                                       INPUT FILE
================================================================================
NAME = ox_gs_E_orca0005.inp
|  1> ! engrad PBE0 D3BJ def2-TZVP  
|  2> %pal nprocs 8 end
|  3> %maxcore 3000
|  4>  
|  5> *xyz 0 1 
|  6> O   -0.8444424103750844 0.9564855115977178 0.04481488823257452
|  7> C   -0.6973079479600752 -0.47185780395864585 0.005863676796242814
|  8> C   0.6432870422382959 -0.4542910316441668 -0.048371381951387155
|  9> H   -1.1701938104569645 -0.6439260464768145 0.8727045202088924
| 10> H   -1.3149436156504897 -0.6965063648820663 -0.8661377578809349
| 11> H   1.2716864162729167 -0.5643442789075725 -0.9875224295128704
| 12> H   1.3171475643581447 -0.6909601889855495 0.8753788996512182
| 13> *
| 14> 
| 15>                          ****END OF INPUT****
================================================================================

                     *******************************
                     * Energy+Gradient Calculation *
                     *******************************

---------------------------------
CARTESIAN COORDINATES (ANGSTROEM)
---------------------------------
  O     -0.844442    0.956486    0.044815
  C     -0.697308   -0.471858    0.005864
  C      0.643287   -0.454291   -0.048371
  H     -1.170194   -0.643926    0.872705
  H     -1.314944   -0.696506   -0.866138
  H      1.271686   -0.564344   -0.987522
  H      1.317148   -0.690960    0.875379

----------------------------
CARTESIAN COORDINATES (A.U.)
----------------------------
  NO LB      ZA    FRAG     MASS         X           Y           Z
   0 O     8.0000    0    15.999   -1.595765    1.807496    0.084688
   1 C     6.0000    0    12.011   -1.317721   -0.891682    0.011081
   2 C     6.0000    0    12.011    1.215636   -0.858486   -0.091409
   3 H     1.0000    0     1.008   -2.211346   -1.216844    1.649173
   4 H     1.0000    0     1.008   -2.484883   -1.316206   -1.636763
   5 H     1.0000    0     1.008    2.403139   -1.066456   -1.866147
   6 H     1.0000    0     1.008    2.489048   -1.305726    1.654226

--------------------------------
INTERNAL COORDINATES (ANGSTROEM)
--------------------------------
 O      0   0   0     0.000000000000     0.00000000     0.00000000
 C      1   0   0     1.436429731660     0.00000000     0.00000000
 C      2   1   0     1.341806603364    95.18754206     0.00000000
 H      2   1   3     1.002318096635    95.67735079   121.48023105
 H      2   1   3     1.091937404803    99.68855472   235.87359464
 H      3   2   1     1.135342318711   125.81393205   261.26786580
 H      3   2   1     1.167653577081   122.81684964   103.13564135

---------------------------
INTERNAL COORDINATES (A.U.)
---------------------------
 O      0   0   0     0.000000000000     0.00000000     0.00000000
 C      1   0   0     2.714458803460     0.00000000     0.00000000
 C      2   1   0     2.535647005046    95.18754206     0.00000000
 H      2   1   3     1.894106701712    95.67735079   121.48023105
 H      2   1   3     2.063462650462    99.68855472   235.87359464
 H      3   2   1     2.145486050615   125.81393205   261.26786580
 H      3   2   1     2.206545479976   122.81684964   103.13564135

---------------------
BASIS SET INFORMATION
---------------------
There are 3 groups of distinct atoms

 Group   1 Type O   : 11s6p2d1f contracted to 5s3p2d1f pattern {62111/411/11/1}
 Group   2 Type C   : 11s6p2d1f contracted to 5s3p2d1f pattern {62111/411/11/1}
 Group   3 Type H   : 5s1p contracted to 3s1p pattern {311/1}

Atom   0O    basis set group =>   1
Atom   1C    basis set group =>   2
Atom   2C    basis set group =>   2
Atom   3H    basis set group =>   3
Atom   4H    basis set group =>   3
Atom   5H    basis set group =>   3
Atom   6H    basis set group =>   3
---------------------------------
AUXILIARY/J BASIS SET INFORMATION
---------------------------------
There are 3 groups of distinct atoms

 Group   1 Type O   : 12s5p4d2f1g contracted to 6s4p3d1f1g pattern {711111/2111/211/2/1}
 Group   2 Type C   : 12s5p4d2f1g contracted to 6s4p3d1f1g pattern {711111/2111/211/2/1}
 Group   3 Type H   : 5s2p1d contracted to 3s1p1d pattern {311/2/1}

Atom   0O    basis set group =>   1
Atom   1C    basis set group =>   2
Atom   2C    basis set group =>   2
Atom   3H    basis set group =>   3
Atom   4H    basis set group =>   3
Atom   5H    basis set group =>   3
Atom   6H    basis set group =>   3


           ************************************************************
           *        Program running with 8 parallel MPI-processes     *
           *              working on a common directory               *
           ************************************************************
------------------------------------------------------------------------------
                           ORCA GTO INTEGRAL CALCULATION
                           -- RI-GTO INTEGRALS CHOSEN --
------------------------------------------------------------------------------
------------------------------------------------------------------------------
                   ___                                                        
                  /   \      - P O W E R E D   B Y -                         
                 /     \                                                     
                 |  |  |   _    _      __       _____    __    __             
                 |  |  |  | |  | |    /  \     |  _  \  |  |  /  |          
                  \  \/   | |  | |   /    \    | | | |  |  | /  /          
                 / \  \   | |__| |  /  /\  \   | |_| |  |  |/  /          
                |  |  |   |  __  | /  /__\  \  |    /   |      \           
                |  |  |   | |  | | |   __   |  |    \   |  |\   \          
                \     /   | |  | | |  |  |  |  | |\  \  |  | \   \       
                 \___/    |_|  |_| |__|  |__|  |_| \__\ |__|  \__/        
                                                                              
                      - O R C A' S   B I G   F R I E N D -                    
                                      &                                       
                       - I N T E G R A L  F E E D E R -                       
                                                                              
 v1 FN, 2020, v2 2021                                                         
------------------------------------------------------------------------------


Reading SHARK input file ox_gs_E_orca0005.SHARKINP.tmp ... ok
----------------------
SHARK INTEGRAL PACKAGE
----------------------

Number of atoms                             ...      7
Number of basis functions                   ...    117
Number of shells                            ...     49
Maximum angular momentum                    ...      3
Integral batch strategy                     ... SHARK/LIBINT Hybrid
RI-J (if used) integral strategy            ... SPLIT-RIJ (Revised 2003 algorithm where possible)
Printlevel                                  ...      1
Contraction scheme used                     ... SEGMENTED contraction
Coulomb Range Separation                    ... NOT USED
Exchange Range Separation                   ... NOT USED
Finite Nucleus Model                        ... NOT USED
Auxiliary Coulomb fitting basis             ... AVAILABLE
   # of basis functions in Aux-J            ...    191
   # of shells in Aux-J                     ...     65
   Maximum angular momentum in Aux-J        ...      4
Auxiliary J/K fitting basis                 ... NOT available
Auxiliary Correlation fitting basis         ... NOT available
Auxiliary 'external' fitting basis          ... NOT available
Integral threshold                          ...     2.500000e-11
Primitive cut-off                           ...     2.500000e-12
Primitive pair pre-selection threshold      ...     2.500000e-12

Calculating pre-screening integrals         ... done (  0.0 sec) Dimension = 49
Organizing shell pair data                  ... done (  0.0 sec)
Shell pair information
Total number of shell pairs                 ...      1225
Shell pairs after pre-screening             ...      1213
Total number of primitive shell pairs       ...      3648
Primitive shell pairs kept                  ...      3092
          la=0 lb=0:    367 shell pairs
          la=1 lb=0:    351 shell pairs
          la=1 lb=1:     91 shell pairs
          la=2 lb=0:    161 shell pairs
          la=2 lb=1:     78 shell pairs
          la=2 lb=2:     21 shell pairs
          la=3 lb=0:     81 shell pairs
          la=3 lb=1:     39 shell pairs
          la=3 lb=2:     18 shell pairs
          la=3 lb=3:      6 shell pairs

Calculating one electron integrals          ... done (  0.0 sec)
Calculating RI/J V-Matrix + Cholesky decomp.... done (  0.0 sec)
Calculating Nuclear repulsion               ... done (  0.0 sec) ENN=     70.598657677228 Eh

SHARK setup successfully completed in   0.1 seconds

Maximum memory used throughout the entire GTOINT-calculation: 14.9 MB


           ************************************************************
           *        Program running with 8 parallel MPI-processes     *
           *              working on a common directory               *
           ************************************************************
-------------------------------------------------------------------------------
                                 ORCA SCF
-------------------------------------------------------------------------------

------------
SCF SETTINGS
------------
Hamiltonian:
 Density Functional     Method          .... DFT(GTOs)
 Exchange Functional    Exchange        .... PBE
   PBE kappa parameter   XKappa         ....  0.804000
   PBE mue parameter    XMuePBE         ....  0.219520
 Correlation Functional Correlation     .... PBE
   PBE beta parameter  CBetaPBE         ....  0.066725
 LDA part of GGA corr.  LDAOpt          .... PW91-LDA
 Gradients option       PostSCFGGA      .... off
 Hybrid DFT is turned on
   Fraction HF Exchange ScalHFX         ....  0.250000
   Scaling of DF-GGA-X  ScalDFX         ....  0.750000
   Scaling of DF-GGA-C  ScalDFC         ....  1.000000
   Scaling of DF-LDA-C  ScalLDAC        ....  1.000000
   Perturbative correction              ....  0.000000
   Density functional embedding theory  .... OFF
   NL short-range parameter             ....  6.900000
 RI-approximation to the Coulomb term is turned on
   Number of AuxJ basis functions       .... 191
   RIJ-COSX (HFX calculated with COS-X)).... on


General Settings:
 Integral files         IntName         .... ox_gs_E_orca0005
 Hartree-Fock type      HFTyp           .... RHF
 Total Charge           Charge          ....    0
 Multiplicity           Mult            ....    1
 Number of Electrons    NEL             ....   24
 Basis Dimension        Dim             ....  117
 Nuclear Repulsion      ENuc            ....     70.5986576772 Eh

Convergence Acceleration:
 DIIS                   CNVDIIS         .... on
   Start iteration      DIISMaxIt       ....    12
   Startup error        DIISStart       ....  0.200000
   # of expansion vecs  DIISMaxEq       ....     5
   Bias factor          DIISBfac        ....   1.050
   Max. coefficient     DIISMaxC        ....  10.000
 Trust-Rad. Augm. Hess. CNVTRAH         .... auto
   Auto Start mean grad. ratio tolernc. ....  1.125000
   Auto Start start iteration           ....    20
   Auto Start num. interpolation iter.  ....    10
   Max. Number of Micro iterations      ....    16
   Max. Number of Macro iterations      .... Maxiter - #DIIS iter
   Number of Davidson start vectors     ....     2
   Converg. threshold I  (grad. norm)   ....   1.000e-05
   Converg. threshold II (energy diff.) ....   1.000e-08
   Grad. Scal. Fac. for Micro threshold ....   0.100
   Minimum threshold for Micro iter.    ....   0.010
   NR start threshold (gradient norm)   ....   0.001
   Initial trust radius                 ....   0.400
   Minimum AH scaling param. (alpha)    ....   1.000
   Maximum AH scaling param. (alpha)    .... 1000.000
   Orbital update algorithm             .... Taylor
   White noise on init. David. guess    .... on
   Maximum white noise                  ....   0.010
   Quad. conv. algorithm                .... NR
 SOSCF                  CNVSOSCF        .... on
   Start iteration      SOSCFMaxIt      ....   150
   Startup grad/error   SOSCFStart      ....  0.003300
 Level Shifting         CNVShift        .... on
   Level shift para.    LevelShift      ....    0.2500
   Turn off err/grad.   ShiftErr        ....    0.0010
 Zerner damping         CNVZerner       .... off
 Static damping         CNVDamp         .... on
   Fraction old density DampFac         ....    0.7000
   Max. Damping (<1)    DampMax         ....    0.9800
   Min. Damping (>=0)   DampMin         ....    0.0000
   Turn off err/grad.   DampErr         ....    0.1000
 Fernandez-Rico         CNVRico         .... off

SCF Procedure:
 Maximum # iterations   MaxIter         ....   125
 SCF integral mode      SCFMode         .... Direct
   Integral package                     .... SHARK and LIBINT hybrid scheme
 Reset frequency        DirectResetFreq ....    20
 Integral Threshold     Thresh          ....  2.500e-11 Eh
 Primitive CutOff       TCut            ....  2.500e-12 Eh

Convergence Tolerance:
 Convergence Check Mode ConvCheckMode   .... Total+1el-Energy
 Convergence forced     ConvForced      .... 0
 Energy Change          TolE            ....  1.000e-08 Eh
 1-El. energy change                    ....  1.000e-05 Eh
 Orbital Gradient       TolG            ....  1.000e-05
 Orbital Rotation angle TolX            ....  1.000e-05
 DIIS Error             TolErr          ....  5.000e-07


Diagonalization of the overlap matrix:
Smallest eigenvalue                        ... 2.071e-04
Time for diagonalization                   ...    0.001 sec
Threshold for overlap eigenvalues          ... 1.000e-08
Number of eigenvalues below threshold      ... 0
Time for construction of square roots      ...    0.001 sec
Total time needed                          ...    0.003 sec

Time for model grid setup =    0.023 sec

------------------------------
INITIAL GUESS: MODEL POTENTIAL
------------------------------
Loading Hartree-Fock densities                     ... done
Calculating cut-offs                               ... done
Initializing the effective Hamiltonian             ... done
Setting up the integral package (SHARK)            ... done
Starting the Coulomb interaction                   ... done (   0.0 sec)
Reading the grid                                   ... done
Mapping shells                                     ... done
Starting the XC term evaluation                    ... done (   0.0 sec)
  promolecular density results
     # of electrons  =     23.997984041
     EX              =    -19.490392023
     EC              =     -0.770784389
     EX+EC           =    -20.261176412
Transforming the Hamiltonian                       ... done (   0.0 sec)
Diagonalizing the Hamiltonian                      ... done (   0.0 sec)
Back transforming the eigenvectors                 ... done (   0.0 sec)
Now organizing SCF variables                       ... done
                      ------------------
                      INITIAL GUESS DONE (   0.0 sec)
                      ------------------
-------------------
DFT GRID GENERATION
-------------------

General Integration Accuracy     IntAcc      ... 4.388
Radial Grid Type                 RadialGrid  ... OptM3 with GC (2021)
Angular Grid (max. ang.)         AngularGrid ... 4 (Lebedev-302)
Angular grid pruning method      GridPruning ... 4 (adaptive)
Weight generation scheme         WeightScheme... Becke
Basis function cutoff            BFCut       ... 1.0000e-11
Integration weight cutoff        WCut        ... 1.0000e-14
Angular grids for H and He will be reduced by one unit
Partially contracted basis set               ... off
Rotationally invariant grid construction     ... off

Total number of grid points                  ...    31299
Total number of batches                      ...      492
Average number of points per batch           ...       63
Average number of grid points per atom       ...     4471
Time for grid setup =    0.111 sec

--------------------
COSX GRID GENERATION
--------------------

GRIDX 1
-------
General Integration Accuracy     IntAcc      ... 3.816
Radial Grid Type                 RadialGrid  ... OptM3 with GC (2021)
Angular Grid (max. ang.)         AngularGrid ... 1 (Lebedev-50)
Angular grid pruning method      GridPruning ... 4 (adaptive)
Weight generation scheme         WeightScheme... Becke
Basis function cutoff            BFCut       ... 1.0000e-11
Integration weight cutoff        WCut        ... 1.0000e-14
Angular grids for H and He will be reduced by one unit
Partially contracted basis set               ... on
Rotationally invariant grid construction     ... off

Total number of grid points                  ...     4030
Total number of batches                      ...       66
Average number of points per batch           ...       61
Average number of grid points per atom       ...      576
UseSFitting                                  ... on

GRIDX 2
-------
General Integration Accuracy     IntAcc      ... 4.020
Radial Grid Type                 RadialGrid  ... OptM3 with GC (2021)
Angular Grid (max. ang.)         AngularGrid ... 2 (Lebedev-110)
Angular grid pruning method      GridPruning ... 4 (adaptive)
Weight generation scheme         WeightScheme... Becke
Basis function cutoff            BFCut       ... 1.0000e-11
Integration weight cutoff        WCut        ... 1.0000e-14
Angular grids for H and He will be reduced by one unit
Partially contracted basis set               ... on
Rotationally invariant grid construction     ... off

Total number of grid points                  ...     8719
Total number of batches                      ...      140
Average number of points per batch           ...       62
Average number of grid points per atom       ...     1246
UseSFitting                                  ... on

GRIDX 3
-------
General Integration Accuracy     IntAcc      ... 4.338
Radial Grid Type                 RadialGrid  ... OptM3 with GC (2021)
Angular Grid (max. ang.)         AngularGrid ... 3 (Lebedev-194)
Angular grid pruning method      GridPruning ... 4 (adaptive)
Weight generation scheme         WeightScheme... Becke
Basis function cutoff            BFCut       ... 1.0000e-11
Integration weight cutoff        WCut        ... 1.0000e-14
Angular grids for H and He will be reduced by one unit
Partially contracted basis set               ... on
Rotationally invariant grid construction     ... off

Total number of grid points                  ...    19249
Total number of batches                      ...      304
Average number of points per batch           ...       63
Average number of grid points per atom       ...     2750
UseSFitting                                  ... on

Time for X-Grid setup             =    0.073 sec

--------------
SCF ITERATIONS
--------------
ITER       Energy         Delta-E        Max-DP      RMS-DP      [F,P]     Damp
               ***  Starting incremental Fock matrix formation  ***
  0   -153.4075836307   0.000000000000 0.07344026  0.00205507  0.2892769 0.7000
  1   -153.4815999490  -0.074016318320 0.04403785  0.00122794  0.0878049 0.7000
                               ***Turning on DIIS***
  2   -153.4984931278  -0.016893178740 0.03961882  0.00162863  0.0508844 0.0000
  3   -153.5429040834  -0.044410955663 0.02725469  0.00103453  0.0425249 0.0000
  4   -153.5464231780  -0.003519094536 0.01087984  0.00034278  0.0486431 0.0000
  5   -153.5490410103  -0.002617832319 0.00287851  0.00008798  0.0090375 0.0000
  6   -153.5491390336  -0.000098023344 0.00136982  0.00003571  0.0039638 0.0000
                      *** Initiating the SOSCF procedure ***
                           *** Shutting down DIIS ***
                      *** Re-Reading the Fockian *** 
                      *** Removing any level shift *** 
ITER      Energy       Delta-E        Grad      Rot      Max-DP    RMS-DP
  7   -153.54915435  -0.0000153189  0.000374  0.000374  0.000945  0.000031
               *** Restarting incremental Fock matrix formation ***
  8   -153.54914780   0.0000065532  0.000314  0.001864  0.001113  0.000032
  9   -153.54913899   0.0000088068  0.001286  0.001762  0.001037  0.000024
 10   -153.54914895  -0.0000099571  0.000050  0.000151  0.000105  0.000004
 11   -153.54914896  -0.0000000120  0.000063  0.000066  0.000052  0.000002
 12   -153.54914901  -0.0000000526  0.000008  0.000068  0.000021  0.000001
 13   -153.54914902  -0.0000000016  0.000004  0.000050  0.000016  0.000001
                  ***Gradient check signals convergence***
              ***Rediagonalizing the Fockian in SOSCF/NRSCF***

               *****************************************************
               *                     SUCCESS                       *
               *           SCF CONVERGED AFTER  14 CYCLES          *
               *****************************************************

Old exchange energy                            =     -4.971951689 Eh
New exchange energy                            =     -4.971955592 Eh
Exchange energy change after final integration =     -0.000003903 Eh
Total energy after final integration           =   -153.549152919 Eh
Final COS-X integration done in                =     0.333 sec

----------------
TOTAL SCF ENERGY
----------------

Total Energy       :         -153.54915292 Eh           -4178.28487 eV

Components:
Nuclear Repulsion  :           70.59865768 Eh            1921.08714 eV
Electronic Energy  :         -224.14781060 Eh           -6099.37201 eV
One Electron Energy:         -347.97044489 Eh           -9468.75719 eV
Two Electron Energy:          123.82263430 Eh            3369.38518 eV
Max COSX asymmetry :            0.00000100 Eh               0.00003 eV

Virial components:
Potential Energy   :         -306.55439766 Eh           -8341.76925 eV
Kinetic Energy     :          153.00524474 Eh            4163.48438 eV
Virial Ratio       :            2.00355483


DFT components:
N(Alpha)           :       11.999999196289 electrons
N(Beta)            :       11.999999196289 electrons
N(Total)           :       23.999998392578 electrons
E(X)               :      -14.918801187486 Eh       
E(C)               :       -0.776284693936 Eh       
E(XC)              :      -15.695085881422 Eh       
DFET-embed. en.    :        0.000000000000 Eh       

---------------
SCF CONVERGENCE
---------------

  Last Energy change         ...   -4.7311e-10  Tolerance :   1.0000e-08
  Last MAX-Density change    ...    1.2212e-15  Tolerance :   1.0000e-07
  Last RMS-Density change    ...    2.9102e-17  Tolerance :   5.0000e-09
  Last Orbital Gradient      ...    8.1970e-07  Tolerance :   1.0000e-05
  Last Orbital Rotation      ...    5.7032e-06  Tolerance :   1.0000e-05

             **** THE GBW FILE WAS UPDATED (ox_gs_E_orca0005.gbw) ****
             **** DENSITY ox_gs_E_orca0005.scfp WAS UPDATED ****
             **** ENERGY FILE WAS UPDATED (ox_gs_E_orca0005.en.tmp) ****
             **** THE GBW FILE WAS UPDATED (ox_gs_E_orca0005.gbw) ****
             **** DENSITY ox_gs_E_orca0005.scfp WAS UPDATED ****
----------------
ORBITAL ENERGIES
----------------

  NO   OCC          E(Eh)            E(eV) 
   0   2.0000     -19.198153      -522.4083 
   1   2.0000     -10.318853      -280.7903 
   2   2.0000     -10.251384      -278.9543 
   3   2.0000      -1.004351       -27.3298 
   4   2.0000      -0.780004       -21.2250 
   5   2.0000      -0.628944       -17.1144 
   6   2.0000      -0.524122       -14.2621 
   7   2.0000      -0.504699       -13.7336 
   8   2.0000      -0.407842       -11.0979 
   9   2.0000      -0.398227       -10.8363 
  10   2.0000      -0.284570        -7.7435 
  11   2.0000      -0.257397        -7.0041 
  12   0.0000      -0.116104        -3.1594 
  13   0.0000       0.049489         1.3467 
  14   0.0000       0.070103         1.9076 
  15   0.0000       0.089995         2.4489 
  16   0.0000       0.126589         3.4447 
  17   0.0000       0.152734         4.1561 
  18   0.0000       0.183376         4.9899 
  19   0.0000       0.217065         5.9066 
  20   0.0000       0.229859         6.2548 
  21   0.0000       0.253269         6.8918 
  22   0.0000       0.261051         7.1036 
  23   0.0000       0.338666         9.2156 
  24   0.0000       0.366781         9.9806 
  25   0.0000       0.384480        10.4622 
  26   0.0000       0.412543        11.2259 
  27   0.0000       0.430319        11.7096 
  28   0.0000       0.452175        12.3043 
  29   0.0000       0.495486        13.4829 
  30   0.0000       0.542937        14.7741 
  31   0.0000       0.548406        14.9229 
  32   0.0000       0.595484        16.2040 
  33   0.0000       0.623518        16.9668 
  34   0.0000       0.654802        17.8181 
  35   0.0000       0.762536        20.7496 
  36   0.0000       0.786520        21.4023 
  37   0.0000       0.842569        22.9275 
  38   0.0000       0.846219        23.0268 
  39   0.0000       0.927377        25.2352 
  40   0.0000       0.965241        26.2655 
  41   0.0000       1.055155        28.7122 
  42   0.0000       1.088805        29.6279 
  43   0.0000       1.113444        30.2983 
  44   0.0000       1.225102        33.3367 
  45   0.0000       1.333021        36.2733 
  46   0.0000       1.393176        37.9103 
  47   0.0000       1.469816        39.9957 
  48   0.0000       1.511456        41.1288 
  49   0.0000       1.542970        41.9863 
  50   0.0000       1.556083        42.3432 
  51   0.0000       1.602764        43.6134 
  52   0.0000       1.667107        45.3643 
  53   0.0000       1.694457        46.1085 
  54   0.0000       1.729420        47.0599 
  55   0.0000       1.791888        48.7597 
  56   0.0000       1.799266        48.9605 
  57   0.0000       1.815088        49.3911 
  58   0.0000       1.862146        50.6716 
  59   0.0000       1.894037        51.5394 
  60   0.0000       2.011952        54.7480 
  61   0.0000       2.097243        57.0689 
  62   0.0000       2.196144        59.7601 
  63   0.0000       2.236725        60.8644 
  64   0.0000       2.285345        62.1874 
  65   0.0000       2.371735        64.5382 
  66   0.0000       2.415185        65.7205 
  67   0.0000       2.437585        66.3301 
  68   0.0000       2.511230        68.3341 
  69   0.0000       2.535721        69.0005 
  70   0.0000       2.577931        70.1491 
  71   0.0000       2.665493        72.5318 
  72   0.0000       2.688348        73.1537 
  73   0.0000       2.750443        74.8434 
  74   0.0000       2.780509        75.6615 
  75   0.0000       2.796679        76.1015 
  76   0.0000       2.830646        77.0258 
  77   0.0000       2.937141        79.9237 
  78   0.0000       2.990477        81.3750 
  79   0.0000       3.017944        82.1224 
  80   0.0000       3.048501        82.9539 
  81   0.0000       3.073094        83.6231 
  82   0.0000       3.101180        84.3874 
  83   0.0000       3.143646        85.5430 
  84   0.0000       3.180937        86.5577 
  85   0.0000       3.210376        87.3588 
  86   0.0000       3.375834        91.8611 
  87   0.0000       3.405221        92.6608 
  88   0.0000       3.508838        95.4803 
  89   0.0000       3.517499        95.7160 
  90   0.0000       3.530366        96.0662 
  91   0.0000       3.705836       100.8409 
  92   0.0000       3.731454       101.5380 
  93   0.0000       3.983165       108.3874 
  94   0.0000       4.132058       112.4390 
  95   0.0000       4.224978       114.9675 
  96   0.0000       4.238823       115.3442 
  97   0.0000       4.319908       117.5507 
  98   0.0000       4.440840       120.8414 
  99   0.0000       4.519332       122.9773 
 100   0.0000       4.646714       126.4435 
 101   0.0000       4.862388       132.3123 
 102   0.0000       5.218426       142.0006 
 103   0.0000       5.273538       143.5003 
 104   0.0000       5.389599       146.6584 
 105   0.0000       5.411812       147.2629 
 106   0.0000       5.761050       156.7661 
 107   0.0000       5.799180       157.8037 
 108   0.0000       5.952131       161.9657 
 109   0.0000       6.389765       173.8744 
 110   0.0000       6.445587       175.3933 
 111   0.0000       6.793634       184.8642 
 112   0.0000       6.826650       185.7626 
 113   0.0000       6.968001       189.6089 
 114   0.0000      22.033192       599.5536 
 115   0.0000      22.789919       620.1452 
 116   0.0000      43.759058      1190.7445 

                    ********************************
                    * MULLIKEN POPULATION ANALYSIS *
                    ********************************

-----------------------
MULLIKEN ATOMIC CHARGES
-----------------------
   0 O :   -0.395448
   1 C :   -0.038092
   2 C :   -0.117835
   3 H :    0.119938
   4 H :    0.109346
   5 H :    0.163235
   6 H :    0.158857
Sum of atomic charges:   -0.0000000

--------------------------------
MULLIKEN REDUCED ORBITAL CHARGES
--------------------------------
  0 O s       :     3.916354  s :     3.916354
      pz      :     1.923077  p :     4.454174
      px      :     1.275359
      py      :     1.255738
      dz2     :     0.003308  d :     0.023630
      dxz     :     0.000283
      dyz     :     0.005240
      dx2y2   :     0.008442
      dxy     :     0.006356
      f0      :     0.000144  f :     0.001290
      f+1     :     0.000066
      f-1     :     0.000296
      f+2     :     0.000164
      f-2     :     0.000028
      f+3     :     0.000274
      f-3     :     0.000317
  1 C s       :     3.148238  s :     3.148238
      pz      :     1.066475  p :     2.720257
      px      :     0.923076
      py      :     0.730707
      dz2     :     0.009668  d :     0.159795
      dxz     :     0.020798
      dyz     :     0.045953
      dx2y2   :     0.023080
      dxy     :     0.060296
      f0      :     0.001735  f :     0.009801
      f+1     :     0.001047
      f-1     :     0.000716
      f+2     :     0.003214
      f-2     :     0.000122
      f+3     :     0.002153
      f-3     :     0.000814
  2 C s       :     3.281402  s :     3.281402
      pz      :     1.050762  p :     2.769415
      px      :     0.998931
      py      :     0.719722
      dz2     :     0.004297  d :     0.061496
      dxz     :     0.030278
      dyz     :     0.005062
      dx2y2   :     0.006645
      dxy     :     0.015214
      f0      :     0.000556  f :     0.005522
      f+1     :     0.000963
      f-1     :     0.000116
      f+2     :     0.001183
      f-2     :     0.000287
      f+3     :     0.000741
      f-3     :     0.001676
  3 H s       :     0.855193  s :     0.855193
      pz      :     0.011343  p :     0.024869
      px      :     0.007061
      py      :     0.006465
  4 H s       :     0.869469  s :     0.869469
      pz      :     0.009632  p :     0.021185
      px      :     0.007065
      py      :     0.004489
  5 H s       :     0.815986  s :     0.815986
      pz      :     0.010622  p :     0.020779
      px      :     0.006947
      py      :     0.003209
  6 H s       :     0.821691  s :     0.821691
      pz      :     0.009383  p :     0.019453
      px      :     0.006749
      py      :     0.003321


                     *******************************
                     * LOEWDIN POPULATION ANALYSIS *
                     *******************************

----------------------
LOEWDIN ATOMIC CHARGES
----------------------
   0 O :   -0.058805
   1 C :   -0.453676
   2 C :   -0.033182
   3 H :    0.113938
   4 H :    0.130642
   5 H :    0.146778
   6 H :    0.154304

-------------------------------
LOEWDIN REDUCED ORBITAL CHARGES
-------------------------------
  0 O s       :     3.570266  s :     3.570266
      pz      :     1.846471  p :     4.432743
      px      :     1.226348
      py      :     1.359924
      dz2     :     0.006851  d :     0.052286
      dxz     :     0.000276
      dyz     :     0.014121
      dx2y2   :     0.016790
      dxy     :     0.014248
      f0      :     0.000369  f :     0.003510
      f+1     :     0.000102
      f-1     :     0.000554
      f+2     :     0.000702
      f-2     :     0.000024
      f+3     :     0.001031
      f-3     :     0.000728
  1 C s       :     2.784538  s :     2.784538
      pz      :     1.044655  p :     2.955610
      px      :     1.083118
      py      :     0.827837
      dz2     :     0.068966  d :     0.636507
      dxz     :     0.127905
      dyz     :     0.120298
      dx2y2   :     0.133934
      dxy     :     0.185404
      f0      :     0.011370  f :     0.077020
      f+1     :     0.007488
      f-1     :     0.007311
      f+2     :     0.018548
      f-2     :     0.001900
      f+3     :     0.018185
      f-3     :     0.012219
  2 C s       :     2.894900  s :     2.894900
      pz      :     1.044874  p :     2.821535
      px      :     1.125759
      py      :     0.650903
      dz2     :     0.027542  d :     0.284232
      dxz     :     0.149996
      dyz     :     0.010053
      dx2y2   :     0.043123
      dxy     :     0.053519
      f0      :     0.004334  f :     0.032514
      f+1     :     0.004161
      f-1     :     0.001042
      f+2     :     0.006637
      f-2     :     0.001291
      f+3     :     0.005838
      f-3     :     0.009212
  3 H s       :     0.810706  s :     0.810706
      pz      :     0.035886  p :     0.075356
      px      :     0.020734
      py      :     0.018736
  4 H s       :     0.810870  s :     0.810870
      pz      :     0.028064  p :     0.058487
      px      :     0.018188
      py      :     0.012235
  5 H s       :     0.795926  s :     0.795926
      pz      :     0.031305  p :     0.057296
      px      :     0.017437
      py      :     0.008554
  6 H s       :     0.793224  s :     0.793224
      pz      :     0.027249  p :     0.052473
      px      :     0.016561
      py      :     0.008663


                      *****************************
                      * MAYER POPULATION ANALYSIS *
                      *****************************

  NA   - Mulliken gross atomic population
  ZA   - Total nuclear charge
  QA   - Mulliken gross atomic charge
  VA   - Mayer's total valence
  BVA  - Mayer's bonded valence
  FA   - Mayer's free valence

  ATOM       NA         ZA         QA         VA         BVA        FA
  0 O      8.3954     8.0000    -0.3954     1.7680     1.7680    -0.0000
  1 C      6.0381     6.0000    -0.0381     4.0645     4.0645    -0.0000
  2 C      6.1178     6.0000    -0.1178     3.8427     3.8427     0.0000
  3 H      0.8801     1.0000     0.1199     0.9761     0.9761    -0.0000
  4 H      0.8907     1.0000     0.1093     0.9653     0.9653    -0.0000
  5 H      0.8368     1.0000     0.1632     0.9549     0.9549     0.0000
  6 H      0.8411     1.0000     0.1589     0.9558     0.9558     0.0000

  Mayer bond orders larger than 0.100000
B(  0-O ,  1-C ) :   0.9570 B(  0-O ,  2-C ) :   0.8135 B(  1-C ,  2-C ) :   1.1546 
B(  1-C ,  3-H ) :   0.9806 B(  1-C ,  4-H ) :   0.9540 B(  2-C ,  5-H ) :   0.9368 
B(  2-C ,  6-H ) :   0.9347 

-------
TIMINGS
-------

Total SCF time: 0 days 0 hours 0 min 3 sec 

Total time                  ....       3.450 sec
Sum of individual times     ....       3.140 sec  ( 91.0%)

Fock matrix formation       ....       2.859 sec  ( 82.9%)
  Split-RI-J                ....       0.301 sec  ( 10.5% of F)
  Chain of spheres X        ....       1.964 sec  ( 68.7% of F)
  XC integration            ....       0.522 sec  ( 18.3% of F)
    Basis function eval.    ....       0.148 sec  ( 28.3% of XC)
    Density eval.           ....       0.107 sec  ( 20.4% of XC)
    XC-Functional eval.     ....       0.031 sec  (  5.9% of XC)
    XC-Potential eval.      ....       0.182 sec  ( 34.9% of XC)
Diagonalization             ....       0.018 sec  (  0.5%)
Density matrix formation    ....       0.002 sec  (  0.1%)
Population analysis         ....       0.003 sec  (  0.1%)
Initial guess               ....       0.017 sec  (  0.5%)
Orbital Transformation      ....       0.000 sec  (  0.0%)
Orbital Orthonormalization  ....       0.000 sec  (  0.0%)
DIIS solution               ....       0.015 sec  (  0.4%)
SOSCF solution              ....       0.019 sec  (  0.5%)
Grid generation             ....       0.207 sec  (  6.0%)

Maximum memory used throughout the entire SCF-calculation: 61.0 MB


-------------------------------------------------------------------------------
                          DFT DISPERSION CORRECTION                            
                                                                               
                              DFTD3 V3.1  Rev 1                                
                          USING Becke-Johnson damping                          
-------------------------------------------------------------------------------
The PBE0 functional is recognized
Active option DFTDOPT                   ...         4   

molecular C6(AA) [au] = 393.129303 


            DFT-D V3
 parameters
 s6 scaling factor         :     1.0000 
 a1 scaling factor         :     0.4145 
 s8 scaling factor         :     1.2177 
 a2 scaling factor         :     4.8593 
 ad hoc parameters k1-k3   :    16.0000     1.3333    -4.0000 

 Edisp/kcal,au: -1.653178404131  -0.002634507200 
 E6   /kcal   :  -1.079598891 
 E8   /kcal   :  -0.573579513 
 % E8         :  34.695560492 

-------------------------   ----------------
Dispersion correction           -0.002634507
-------------------------   ----------------


-------------------------   --------------------
FINAL SINGLE POINT ENERGY      -153.551787426631
-------------------------   --------------------



           ************************************************************
           *        Program running with 8 parallel MPI-processes     *
           *              working on a common directory               *
           ************************************************************
------------------------------------------------------------------------------
                         ORCA SCF GRADIENT CALCULATION
------------------------------------------------------------------------------

 ... reading COSX grid (gridx3)
Gradient of the Kohn-Sham DFT energy:
Kohn-Sham wavefunction type      ... RKS
Hartree-Fock exchange scaling    ...    0.250
Number of operators              ...    1
Number of atoms                  ...    7
Basis set dimensions             ...  117
Integral neglect threshold       ... 2.5e-11
Integral primitive cutoff        ... 2.5e-12
SHARK Integral package           ... ON

Nuc. rep. gradient       (SHARK) ... done (  0.0 sec)
HCore & Overlap gradient (SHARK) ... done (  0.0 sec)
RI-J gradient            (SHARK) ... done (  0.1 sec)
COSX-gradient                    ... done (  0.4 sec)
Exchange-correlation gradient    ... done
Dispersion correction            ... done

------------------
CARTESIAN GRADIENT
------------------

   1   O   :   -0.078938906   -0.004400635    0.007470465
   2   C   :    0.109461559   -0.023903908    0.052982027
   3   C   :   -0.103953038   -0.005775668   -0.008630871
   4   H   :    0.026645257    0.048537892   -0.062678011
   5   H   :   -0.008660284    0.025735984    0.001730406
   6   H   :    0.024767583   -0.016975868   -0.018413555
   7   H   :    0.030692815   -0.023192146    0.027584754

Difference to translation invariance:
           :    0.0000149859    0.0000256523    0.0000452147

Difference to rotation invariance:
           :    0.0001516599    0.0002166212    0.0002520044

Norm of the cartesian gradient     ...    0.2092778408
RMS gradient                       ...    0.0456681689
MAX gradient                       ...    0.1094615589

-------
TIMINGS
-------

Total SCF gradient time            ...        0.818 sec

One electron gradient       ....       0.011 sec  (  1.3%)
RI-J Coulomb gradient       ....       0.086 sec  ( 10.5%)
COSX gradient               ....       0.379 sec  ( 46.4%)
XC gradient                 ....       0.192 sec  ( 23.5%)

Maximum memory used throughout the entire SCFGRAD-calculation: 35.9 MB

                            ***************************************
                            *     ORCA property calculations      *
                            ***************************************

                                    ---------------------
                                    Active property flags
                                    ---------------------
   (+) Dipole Moment


------------------------------------------------------------------------------
                       ORCA ELECTRIC PROPERTIES CALCULATION
------------------------------------------------------------------------------

Dipole Moment Calculation                       ... on
Quadrupole Moment Calculation                   ... off
Polarizability Calculation                      ... off
GBWName                                         ... ox_gs_E_orca0005.gbw
Electron density                                ... ox_gs_E_orca0005.scfp
The origin for moment calculation is the CENTER OF MASS  = (-0.602893,  0.067019  0.004290)

-------------
DIPOLE MOMENT
-------------
                                X             Y             Z
Electronic contribution:     -0.62481       1.35022       0.06666
Nuclear contribution   :      1.28677      -2.55473      -0.10694
                        -----------------------------------------
Total Dipole Moment    :      0.66196      -1.20451      -0.04028
                        -----------------------------------------
Magnitude (a.u.)       :      1.37501
Magnitude (Debye)      :      3.49500



--------------------
Rotational spectrum 
--------------------
 
Rotational constants in cm-1:     1.195378     0.441280     0.368571 
Rotational constants in MHz : 35836.536335 13229.228841 11049.495458 

 Dipole components along the rotational axes: 
x,y,z [a.u.] :    -1.295794    -0.459689     0.016019 
x,y,z [Debye]:    -3.293646    -1.168438     0.040716 

 

Timings for individual modules:

Sum of individual times         ...        4.945 sec (=   0.082 min)
GTO integral calculation        ...        0.310 sec (=   0.005 min)   6.3 %
SCF iterations                  ...        3.619 sec (=   0.060 min)  73.2 %
SCF Gradient evaluation         ...        1.016 sec (=   0.017 min)  20.5 %
                             ****ORCA TERMINATED NORMALLY****
TOTAL RUN TIME: 0 days 0 hours 0 minutes 5 seconds 293 msec
