
                                 *****************
                                 * O   R   C   A *
                                 *****************

                                            #,                                       
                                            ###                                      
                                            ####                                     
                                            #####                                    
                                            ######                                   
                                           ########,                                 
                                     ,,################,,,,,                         
                               ,,#################################,,                 
                          ,,##########################################,,             
                       ,#########################################, ''#####,          
                    ,#############################################,,   '####,        
                  ,##################################################,,,,####,       
                ,###########''''           ''''###############################       
              ,#####''   ,,,,##########,,,,          '''####'''          '####       
            ,##' ,,,,###########################,,,                        '##       
           ' ,,###''''                  '''############,,,                           
         ,,##''                                '''############,,,,        ,,,,,,###''
      ,#''                                            '''#######################'''  
     '                                                          ''''####''''         
             ,#######,   #######,   ,#######,      ##                                
            ,#'     '#,  ##    ##  ,#'     '#,    #''#        ######   ,####,        
            ##       ##  ##   ,#'  ##            #'  '#       #        #'  '#        
            ##       ##  #######   ##           ,######,      #####,   #    #        
            '#,     ,#'  ##    ##  '#,     ,#' ,#      #,         ##   #,  ,#        
             '#######'   ##     ##  '#######'  #'      '#     #####' # '####'        



                  #######################################################
                  #                        -***-                        #
                  #          Department of theory and spectroscopy      #
                  #    Directorship and core code : Frank Neese         #
                  #        Max Planck Institute fuer Kohlenforschung    #
                  #                Kaiser Wilhelm Platz 1               #
                  #                 D-45470 Muelheim/Ruhr               #
                  #                      Germany                        #
                  #                                                     #
                  #                  All rights reserved                #
                  #                        -***-                        #
                  #######################################################


                         Program Version 5.0.2 -  RELEASE  -


 With contributions from (in alphabetic order):
   Daniel Aravena         : Magnetic Suceptibility
   Michael Atanasov       : Ab Initio Ligand Field Theory (pilot matlab implementation)
   Alexander A. Auer      : GIAO ZORA, VPT2 properties, NMR spectrum
   Ute Becker             : Parallelization
   Giovanni Bistoni       : ED, misc. LED, open-shell LED, HFLD
   Martin Brehm           : Molecular dynamics
   Dmytro Bykov           : SCF Hessian
   Vijay G. Chilkuri      : MRCI spin determinant printing, contributions to CSF-ICE
   Dipayan Datta          : RHF DLPNO-CCSD density
   Achintya Kumar Dutta   : EOM-CC, STEOM-CC
   Dmitry Ganyushin       : Spin-Orbit,Spin-Spin,Magnetic field MRCI
   Miquel Garcia          : C-PCM and meta-GGA Hessian, CC/C-PCM, Gaussian charge scheme
   Yang Guo               : DLPNO-NEVPT2, F12-NEVPT2, CIM, IAO-localization
   Andreas Hansen         : Spin unrestricted coupled pair/coupled cluster methods
   Benjamin Helmich-Paris : MC-RPA, TRAH-SCF, COSX integrals
   Lee Huntington         : MR-EOM, pCC
   Robert Izsak           : Overlap fitted RIJCOSX, COSX-SCS-MP3, EOM
   Marcus Kettner         : VPT2
   Christian Kollmar      : KDIIS, OOCD, Brueckner-CCSD(T), CCSD density, CASPT2, CASPT2-K
   Simone Kossmann        : Meta GGA functionals, TD-DFT gradient, OOMP2, MP2 Hessian
   Martin Krupicka        : Initial AUTO-CI
   Lucas Lang             : DCDCAS
   Marvin Lechner         : AUTO-CI (C++ implementation), FIC-MRCC
   Dagmar Lenk            : GEPOL surface, SMD
   Dimitrios Liakos       : Extrapolation schemes; Compound Job, initial MDCI parallelization
   Dimitrios Manganas     : Further ROCIS development; embedding schemes
   Dimitrios Pantazis     : SARC Basis sets
   Anastasios Papadopoulos: AUTO-CI, single reference methods and gradients
   Taras Petrenko         : DFT Hessian,TD-DFT gradient, ASA, ECA, R-Raman, ABS, FL, XAS/XES, NRVS
   Peter Pinski           : DLPNO-MP2, DLPNO-MP2 Gradient
   Christoph Reimann      : Effective Core Potentials
   Marius Retegan         : Local ZFS, SOC
   Christoph Riplinger    : Optimizer, TS searches, QM/MM, DLPNO-CCSD(T), (RO)-DLPNO pert. Triples
   Tobias Risthaus        : Range-separated hybrids, TD-DFT gradient, RPA, STAB
   Michael Roemelt        : Original ROCIS implementation
   Masaaki Saitow         : Open-shell DLPNO-CCSD energy and density
   Barbara Sandhoefer     : DKH picture change effects
   Avijit Sen             : IP-ROCIS
   Kantharuban Sivalingam : CASSCF convergence, NEVPT2, FIC-MRCI
   Bernardo de Souza      : ESD, SOC TD-DFT
   Georgi Stoychev        : AutoAux, RI-MP2 NMR, DLPNO-MP2 response
   Willem Van den Heuvel  : Paramagnetic NMR
   Boris Wezisla          : Elementary symmetry handling
   Frank Wennmohs         : Technical directorship


 We gratefully acknowledge several colleagues who have allowed us to
 interface, adapt or use parts of their codes:
   Stefan Grimme, W. Hujo, H. Kruse, P. Pracht,  : VdW corrections, initial TS optimization,
                  C. Bannwarth, S. Ehlert          DFT functionals, gCP, sTDA/sTD-DF
   Ed Valeev, F. Pavosevic, A. Kumar             : LibInt (2-el integral package), F12 methods
   Garnet Chan, S. Sharma, J. Yang, R. Olivares  : DMRG
   Ulf Ekstrom                                   : XCFun DFT Library
   Mihaly Kallay                                 : mrcc  (arbitrary order and MRCC methods)
   Jiri Pittner, Ondrej Demel                    : Mk-CCSD
   Frank Weinhold                                : gennbo (NPA and NBO analysis)
   Christopher J. Cramer and Donald G. Truhlar   : smd solvation model
   Lars Goerigk                                  : TD-DFT with DH, B97 family of functionals
   V. Asgeirsson, H. Jonsson                     : NEB implementation
   FAccTs GmbH                                   : IRC, NEB, NEB-TS, DLPNO-Multilevel, CI-OPT
                                                   MM, QMMM, 2- and 3-layer-ONIOM, Crystal-QMMM,
                                                   LR-CPCM, SF, NACMEs, symmetry and pop. for TD-DFT,
                                                   nearIR, NL-DFT gradient (VV10), updates on ESD,
                                                   ML-optimized integration grids
   S Lehtola, MJT Oliveira, MAL Marques          : LibXC Library
   Liviu Ungur et al                             : ANISO software


 Your calculation uses the libint2 library for the computation of 2-el integrals
 For citations please refer to: http://libint.valeyev.net

 Your ORCA version has been built with support for libXC version: 5.1.0
 For citations please refer to: https://tddft.org/programs/libxc/

 This ORCA versions uses:
   CBLAS   interface :  Fast vector & matrix operations
   LAPACKE interface :  Fast linear algebra routines
   SCALAPACK package :  Parallel linear algebra routines
   Shared memory     :  Shared parallel matrices
   BLAS/LAPACK       :  OpenBLAS 0.3.15  USE64BITINT DYNAMIC_ARCH NO_AFFINITY SkylakeX SINGLE_THREADED
        Core in use  :  SkylakeX
   Copyright (c) 2011-2014, The OpenBLAS Project


Your calculation utilizes the atom-pairwise dispersion correction
with the Becke-Johnson damping scheme (D3BJ)
Cite in your paper:
S.Grimme, S.Ehrlich, L.Goerigk, J Comput Chem, (2011), 32, 1456–1465 
S.Grimme, J.Antony, S.Ehrlich and H.Krieg, J.Chem.Phys., 132, (2010), 154104 
   

================================================================================

----- Orbital basis set information -----
Your calculation utilizes the basis: def2-TZVP
   F. Weigend and R. Ahlrichs, Phys. Chem. Chem. Phys. 7, 3297 (2005).

----- AuxJ basis set information -----
Your calculation utilizes the auxiliary basis: def2/J
   F. Weigend, Phys. Chem. Chem. Phys. 8, 1057 (2006).

================================================================================
                                        WARNINGS
                       Please study these warnings very carefully!
================================================================================


INFO   : the flag for use of the SHARK integral package has been found!

================================================================================
                                       INPUT FILE
================================================================================
NAME = ox_gs_B_orca0002.inp
|  1> ! engrad PBE0 D3BJ def2-TZVP  
|  2> %pal nprocs 8 end
|  3> %maxcore 3000
|  4>  
|  5> *xyz 0 1 
|  6> O   -0.24279572793726087 0.7797975819716157 0.012389730554989153
|  7> C   -0.7737474292219849 -0.4538602316630674 0.0009144595674609653
|  8> C   0.7666602391199067 -0.43625706095152783 0.04205043974656955
|  9> H   -1.3361134338522151 -0.7383694740750422 0.9149303100025543
| 10> H   -1.2912348924593426 -0.6755018854184692 -0.9022752033900381
| 11> H   1.2620471687360928 -0.6399839446968703 -0.8426932797687221
| 12> H   1.2151110533116343 -0.6717880538552051 0.9353746127608017
| 13> *
| 14> 
| 15>                          ****END OF INPUT****
================================================================================

                     *******************************
                     * Energy+Gradient Calculation *
                     *******************************

---------------------------------
CARTESIAN COORDINATES (ANGSTROEM)
---------------------------------
  O     -0.242796    0.779798    0.012390
  C     -0.773747   -0.453860    0.000914
  C      0.766660   -0.436257    0.042050
  H     -1.336113   -0.738369    0.914930
  H     -1.291235   -0.675502   -0.902275
  H      1.262047   -0.639984   -0.842693
  H      1.215111   -0.671788    0.935375

----------------------------
CARTESIAN COORDINATES (A.U.)
----------------------------
  NO LB      ZA    FRAG     MASS         X           Y           Z
   0 O     8.0000    0    15.999   -0.458817    1.473604    0.023413
   1 C     6.0000    0    12.011   -1.462171   -0.857672    0.001728
   2 C     6.0000    0    12.011    1.448778   -0.824406    0.079464
   3 H     1.0000    0     1.008   -2.524888   -1.395316    1.728968
   4 H     1.0000    0     1.008   -2.440080   -1.276514   -1.705053
   5 H     1.0000    0     1.008    2.384924   -1.209394   -1.592460
   6 H     1.0000    0     1.008    2.296227   -1.269495    1.767602

--------------------------------
INTERNAL COORDINATES (ANGSTROEM)
--------------------------------
 O      0   0   0     0.000000000000     0.00000000     0.00000000
 C      1   0   0     1.343113171733     0.00000000     0.00000000
 C      2   1   0     1.541057372446    66.05449974     0.00000000
 H      2   1   3     1.110236914820   115.37749323   112.29900245
 H      2   1   3     1.064269639030   113.00133117   245.23016431
 H      3   2   1     1.034255433835   116.98085396   257.01342552
 H      3   2   1     1.026942578462   117.20023946   105.41919205

---------------------------
INTERNAL COORDINATES (A.U.)
---------------------------
 O      0   0   0     0.000000000000     0.00000000     0.00000000
 C      1   0   0     2.538116061438     0.00000000     0.00000000
 C      2   1   0     2.912176390584    66.05449974     0.00000000
 H      2   1   3     2.098043712779   115.37749323   112.29900245
 H      2   1   3     2.011178150413   113.00133117   245.23016431
 H      3   2   1     1.954459522468   116.98085396   257.01342552
 H      3   2   1     1.940640228557   117.20023946   105.41919205

---------------------
BASIS SET INFORMATION
---------------------
There are 3 groups of distinct atoms

 Group   1 Type O   : 11s6p2d1f contracted to 5s3p2d1f pattern {62111/411/11/1}
 Group   2 Type C   : 11s6p2d1f contracted to 5s3p2d1f pattern {62111/411/11/1}
 Group   3 Type H   : 5s1p contracted to 3s1p pattern {311/1}

Atom   0O    basis set group =>   1
Atom   1C    basis set group =>   2
Atom   2C    basis set group =>   2
Atom   3H    basis set group =>   3
Atom   4H    basis set group =>   3
Atom   5H    basis set group =>   3
Atom   6H    basis set group =>   3
---------------------------------
AUXILIARY/J BASIS SET INFORMATION
---------------------------------
There are 3 groups of distinct atoms

 Group   1 Type O   : 12s5p4d2f1g contracted to 6s4p3d1f1g pattern {711111/2111/211/2/1}
 Group   2 Type C   : 12s5p4d2f1g contracted to 6s4p3d1f1g pattern {711111/2111/211/2/1}
 Group   3 Type H   : 5s2p1d contracted to 3s1p1d pattern {311/2/1}

Atom   0O    basis set group =>   1
Atom   1C    basis set group =>   2
Atom   2C    basis set group =>   2
Atom   3H    basis set group =>   3
Atom   4H    basis set group =>   3
Atom   5H    basis set group =>   3
Atom   6H    basis set group =>   3


           ************************************************************
           *        Program running with 8 parallel MPI-processes     *
           *              working on a common directory               *
           ************************************************************
------------------------------------------------------------------------------
                           ORCA GTO INTEGRAL CALCULATION
                           -- RI-GTO INTEGRALS CHOSEN --
------------------------------------------------------------------------------
------------------------------------------------------------------------------
                   ___                                                        
                  /   \      - P O W E R E D   B Y -                         
                 /     \                                                     
                 |  |  |   _    _      __       _____    __    __             
                 |  |  |  | |  | |    /  \     |  _  \  |  |  /  |          
                  \  \/   | |  | |   /    \    | | | |  |  | /  /          
                 / \  \   | |__| |  /  /\  \   | |_| |  |  |/  /          
                |  |  |   |  __  | /  /__\  \  |    /   |      \           
                |  |  |   | |  | | |   __   |  |    \   |  |\   \          
                \     /   | |  | | |  |  |  |  | |\  \  |  | \   \       
                 \___/    |_|  |_| |__|  |__|  |_| \__\ |__|  \__/        
                                                                              
                      - O R C A' S   B I G   F R I E N D -                    
                                      &                                       
                       - I N T E G R A L  F E E D E R -                       
                                                                              
 v1 FN, 2020, v2 2021                                                         
------------------------------------------------------------------------------


Reading SHARK input file ox_gs_B_orca0002.SHARKINP.tmp ... ok
----------------------
SHARK INTEGRAL PACKAGE
----------------------

Number of atoms                             ...      7
Number of basis functions                   ...    117
Number of shells                            ...     49
Maximum angular momentum                    ...      3
Integral batch strategy                     ... SHARK/LIBINT Hybrid
RI-J (if used) integral strategy            ... SPLIT-RIJ (Revised 2003 algorithm where possible)
Printlevel                                  ...      1
Contraction scheme used                     ... SEGMENTED contraction
Coulomb Range Separation                    ... NOT USED
Exchange Range Separation                   ... NOT USED
Finite Nucleus Model                        ... NOT USED
Auxiliary Coulomb fitting basis             ... AVAILABLE
   # of basis functions in Aux-J            ...    191
   # of shells in Aux-J                     ...     65
   Maximum angular momentum in Aux-J        ...      4
Auxiliary J/K fitting basis                 ... NOT available
Auxiliary Correlation fitting basis         ... NOT available
Auxiliary 'external' fitting basis          ... NOT available
Integral threshold                          ...     2.500000e-11
Primitive cut-off                           ...     2.500000e-12
Primitive pair pre-selection threshold      ...     2.500000e-12

Calculating pre-screening integrals         ... done (  0.0 sec) Dimension = 49
Organizing shell pair data                  ... done (  0.0 sec)
Shell pair information
Total number of shell pairs                 ...      1225
Shell pairs after pre-screening             ...      1221
Total number of primitive shell pairs       ...      3648
Primitive shell pairs kept                  ...      3154
          la=0 lb=0:    374 shell pairs
          la=1 lb=0:    351 shell pairs
          la=1 lb=1:     91 shell pairs
          la=2 lb=0:    162 shell pairs
          la=2 lb=1:     78 shell pairs
          la=2 lb=2:     21 shell pairs
          la=3 lb=0:     81 shell pairs
          la=3 lb=1:     39 shell pairs
          la=3 lb=2:     18 shell pairs
          la=3 lb=3:      6 shell pairs

Calculating one electron integrals          ... done (  0.0 sec)
Calculating RI/J V-Matrix + Cholesky decomp.... done (  0.0 sec)
Calculating Nuclear repulsion               ... done (  0.0 sec) ENN=     74.248808570547 Eh

SHARK setup successfully completed in   0.2 seconds

Maximum memory used throughout the entire GTOINT-calculation: 14.9 MB


           ************************************************************
           *        Program running with 8 parallel MPI-processes     *
           *              working on a common directory               *
           ************************************************************
-------------------------------------------------------------------------------
                                 ORCA SCF
-------------------------------------------------------------------------------

------------
SCF SETTINGS
------------
Hamiltonian:
 Density Functional     Method          .... DFT(GTOs)
 Exchange Functional    Exchange        .... PBE
   PBE kappa parameter   XKappa         ....  0.804000
   PBE mue parameter    XMuePBE         ....  0.219520
 Correlation Functional Correlation     .... PBE
   PBE beta parameter  CBetaPBE         ....  0.066725
 LDA part of GGA corr.  LDAOpt          .... PW91-LDA
 Gradients option       PostSCFGGA      .... off
 Hybrid DFT is turned on
   Fraction HF Exchange ScalHFX         ....  0.250000
   Scaling of DF-GGA-X  ScalDFX         ....  0.750000
   Scaling of DF-GGA-C  ScalDFC         ....  1.000000
   Scaling of DF-LDA-C  ScalLDAC        ....  1.000000
   Perturbative correction              ....  0.000000
   Density functional embedding theory  .... OFF
   NL short-range parameter             ....  6.900000
 RI-approximation to the Coulomb term is turned on
   Number of AuxJ basis functions       .... 191
   RIJ-COSX (HFX calculated with COS-X)).... on


General Settings:
 Integral files         IntName         .... ox_gs_B_orca0002
 Hartree-Fock type      HFTyp           .... RHF
 Total Charge           Charge          ....    0
 Multiplicity           Mult            ....    1
 Number of Electrons    NEL             ....   24
 Basis Dimension        Dim             ....  117
 Nuclear Repulsion      ENuc            ....     74.2488085705 Eh

Convergence Acceleration:
 DIIS                   CNVDIIS         .... on
   Start iteration      DIISMaxIt       ....    12
   Startup error        DIISStart       ....  0.200000
   # of expansion vecs  DIISMaxEq       ....     5
   Bias factor          DIISBfac        ....   1.050
   Max. coefficient     DIISMaxC        ....  10.000
 Trust-Rad. Augm. Hess. CNVTRAH         .... auto
   Auto Start mean grad. ratio tolernc. ....  1.125000
   Auto Start start iteration           ....    20
   Auto Start num. interpolation iter.  ....    10
   Max. Number of Micro iterations      ....    16
   Max. Number of Macro iterations      .... Maxiter - #DIIS iter
   Number of Davidson start vectors     ....     2
   Converg. threshold I  (grad. norm)   ....   1.000e-05
   Converg. threshold II (energy diff.) ....   1.000e-08
   Grad. Scal. Fac. for Micro threshold ....   0.100
   Minimum threshold for Micro iter.    ....   0.010
   NR start threshold (gradient norm)   ....   0.001
   Initial trust radius                 ....   0.400
   Minimum AH scaling param. (alpha)    ....   1.000
   Maximum AH scaling param. (alpha)    .... 1000.000
   Orbital update algorithm             .... Taylor
   White noise on init. David. guess    .... on
   Maximum white noise                  ....   0.010
   Quad. conv. algorithm                .... NR
 SOSCF                  CNVSOSCF        .... on
   Start iteration      SOSCFMaxIt      ....   150
   Startup grad/error   SOSCFStart      ....  0.003300
 Level Shifting         CNVShift        .... on
   Level shift para.    LevelShift      ....    0.2500
   Turn off err/grad.   ShiftErr        ....    0.0010
 Zerner damping         CNVZerner       .... off
 Static damping         CNVDamp         .... on
   Fraction old density DampFac         ....    0.7000
   Max. Damping (<1)    DampMax         ....    0.9800
   Min. Damping (>=0)   DampMin         ....    0.0000
   Turn off err/grad.   DampErr         ....    0.1000
 Fernandez-Rico         CNVRico         .... off

SCF Procedure:
 Maximum # iterations   MaxIter         ....   125
 SCF integral mode      SCFMode         .... Direct
   Integral package                     .... SHARK and LIBINT hybrid scheme
 Reset frequency        DirectResetFreq ....    20
 Integral Threshold     Thresh          ....  2.500e-11 Eh
 Primitive CutOff       TCut            ....  2.500e-12 Eh

Convergence Tolerance:
 Convergence Check Mode ConvCheckMode   .... Total+1el-Energy
 Convergence forced     ConvForced      .... 0
 Energy Change          TolE            ....  1.000e-08 Eh
 1-El. energy change                    ....  1.000e-05 Eh
 Orbital Gradient       TolG            ....  1.000e-05
 Orbital Rotation angle TolX            ....  1.000e-05
 DIIS Error             TolErr          ....  5.000e-07


Diagonalization of the overlap matrix:
Smallest eigenvalue                        ... 6.090e-04
Time for diagonalization                   ...    0.020 sec
Threshold for overlap eigenvalues          ... 1.000e-08
Number of eigenvalues below threshold      ... 0
Time for construction of square roots      ...    0.003 sec
Total time needed                          ...    0.024 sec

Time for model grid setup =    0.036 sec

------------------------------
INITIAL GUESS: MODEL POTENTIAL
------------------------------
Loading Hartree-Fock densities                     ... done
Calculating cut-offs                               ... done
Initializing the effective Hamiltonian             ... done
Setting up the integral package (SHARK)            ... done
Starting the Coulomb interaction                   ... done (   0.0 sec)
Reading the grid                                   ... done
Mapping shells                                     ... done
Starting the XC term evaluation                    ... done (   0.0 sec)
  promolecular density results
     # of electrons  =     23.996144985
     EX              =    -19.533745431
     EC              =     -0.779726775
     EX+EC           =    -20.313472206
Transforming the Hamiltonian                       ... done (   0.0 sec)
Diagonalizing the Hamiltonian                      ... done (   0.0 sec)
Back transforming the eigenvectors                 ... done (   0.0 sec)
Now organizing SCF variables                       ... done
                      ------------------
                      INITIAL GUESS DONE (   0.1 sec)
                      ------------------
-------------------
DFT GRID GENERATION
-------------------

General Integration Accuracy     IntAcc      ... 4.388
Radial Grid Type                 RadialGrid  ... OptM3 with GC (2021)
Angular Grid (max. ang.)         AngularGrid ... 4 (Lebedev-302)
Angular grid pruning method      GridPruning ... 4 (adaptive)
Weight generation scheme         WeightScheme... Becke
Basis function cutoff            BFCut       ... 1.0000e-11
Integration weight cutoff        WCut        ... 1.0000e-14
Angular grids for H and He will be reduced by one unit
Partially contracted basis set               ... off
Rotationally invariant grid construction     ... off

Total number of grid points                  ...    31313
Total number of batches                      ...      493
Average number of points per batch           ...       63
Average number of grid points per atom       ...     4473
Time for grid setup =    0.109 sec

--------------------
COSX GRID GENERATION
--------------------

GRIDX 1
-------
General Integration Accuracy     IntAcc      ... 3.816
Radial Grid Type                 RadialGrid  ... OptM3 with GC (2021)
Angular Grid (max. ang.)         AngularGrid ... 1 (Lebedev-50)
Angular grid pruning method      GridPruning ... 4 (adaptive)
Weight generation scheme         WeightScheme... Becke
Basis function cutoff            BFCut       ... 1.0000e-11
Integration weight cutoff        WCut        ... 1.0000e-14
Angular grids for H and He will be reduced by one unit
Partially contracted basis set               ... on
Rotationally invariant grid construction     ... off

Total number of grid points                  ...     4035
Total number of batches                      ...       67
Average number of points per batch           ...       60
Average number of grid points per atom       ...      576
UseSFitting                                  ... on

GRIDX 2
-------
General Integration Accuracy     IntAcc      ... 4.020
Radial Grid Type                 RadialGrid  ... OptM3 with GC (2021)
Angular Grid (max. ang.)         AngularGrid ... 2 (Lebedev-110)
Angular grid pruning method      GridPruning ... 4 (adaptive)
Weight generation scheme         WeightScheme... Becke
Basis function cutoff            BFCut       ... 1.0000e-11
Integration weight cutoff        WCut        ... 1.0000e-14
Angular grids for H and He will be reduced by one unit
Partially contracted basis set               ... on
Rotationally invariant grid construction     ... off

Total number of grid points                  ...     8726
Total number of batches                      ...      141
Average number of points per batch           ...       61
Average number of grid points per atom       ...     1247
UseSFitting                                  ... on

GRIDX 3
-------
General Integration Accuracy     IntAcc      ... 4.338
Radial Grid Type                 RadialGrid  ... OptM3 with GC (2021)
Angular Grid (max. ang.)         AngularGrid ... 3 (Lebedev-194)
Angular grid pruning method      GridPruning ... 4 (adaptive)
Weight generation scheme         WeightScheme... Becke
Basis function cutoff            BFCut       ... 1.0000e-11
Integration weight cutoff        WCut        ... 1.0000e-14
Angular grids for H and He will be reduced by one unit
Partially contracted basis set               ... on
Rotationally invariant grid construction     ... off

Total number of grid points                  ...    19251
Total number of batches                      ...      304
Average number of points per batch           ...       63
Average number of grid points per atom       ...     2750
UseSFitting                                  ... on

Time for X-Grid setup             =    0.073 sec

--------------
SCF ITERATIONS
--------------
ITER       Energy         Delta-E        Max-DP      RMS-DP      [F,P]     Damp
               ***  Starting incremental Fock matrix formation  ***
  0   -153.5895223935   0.000000000000 0.03270763  0.00111042  0.1748480 0.7000
  1   -153.6169794624  -0.027457068849 0.01745725  0.00080996  0.0724460 0.7000
                               ***Turning on DIIS***
  2   -153.6283007112  -0.011321248791 0.02569972  0.00138605  0.0340699 0.0000
  3   -153.6472188692  -0.018918158042 0.01387119  0.00060802  0.0388021 0.0000
  4   -153.6504390197  -0.003220150489 0.00426325  0.00016777  0.0106223 0.0000
                      *** Initiating the SOSCF procedure ***
                           *** Shutting down DIIS ***
                      *** Re-Reading the Fockian *** 
                      *** Removing any level shift *** 
ITER      Energy       Delta-E        Grad      Rot      Max-DP    RMS-DP
  5   -153.65066274  -0.0002237164  0.000577  0.000577  0.001212  0.000052
               *** Restarting incremental Fock matrix formation ***
  6   -153.65069072  -0.0000279815  0.000102  0.000217  0.000655  0.000023
  7   -153.65069099  -0.0000002708  0.000093  0.000137  0.000293  0.000010
  8   -153.65069113  -0.0000001464  0.000036  0.000080  0.000145  0.000005
  9   -153.65069115  -0.0000000174  0.000034  0.000043  0.000044  0.000002
 10   -153.65069117  -0.0000000165  0.000010  0.000012  0.000043  0.000001
 11   -153.65069117  -0.0000000021  0.000004  0.000004  0.000008  0.000000
                  ***Gradient check signals convergence***
              ***Rediagonalizing the Fockian in SOSCF/NRSCF***

               *****************************************************
               *                     SUCCESS                       *
               *           SCF CONVERGED AFTER  12 CYCLES          *
               *****************************************************

Old exchange energy                            =     -4.995781387 Eh
New exchange energy                            =     -4.995784719 Eh
Exchange energy change after final integration =     -0.000003332 Eh
Total energy after final integration           =   -153.650694504 Eh
Final COS-X integration done in                =     0.247 sec

----------------
TOTAL SCF ENERGY
----------------

Total Energy       :         -153.65069450 Eh           -4181.04796 eV

Components:
Nuclear Repulsion  :           74.24880857 Eh            2020.41280 eV
Electronic Energy  :         -227.89950307 Eh           -6201.46075 eV
One Electron Energy:         -355.14422059 Eh           -9663.96555 eV
Two Electron Energy:          127.24471751 Eh            3462.50479 eV
Max COSX asymmetry :            0.00000252 Eh               0.00007 eV

Virial components:
Potential Energy   :         -306.64573602 Eh           -8344.25469 eV
Kinetic Energy     :          152.99504151 Eh            4163.20673 eV
Virial Ratio       :            2.00428545


DFT components:
N(Alpha)           :       12.000001898950 electrons
N(Beta)            :       12.000001898950 electrons
N(Total)           :       24.000003797900 electrons
E(X)               :      -14.961349430584 Eh       
E(C)               :       -0.787670934841 Eh       
E(XC)              :      -15.749020365425 Eh       
DFET-embed. en.    :        0.000000000000 Eh       

---------------
SCF CONVERGENCE
---------------

  Last Energy change         ...   -8.5561e-10  Tolerance :   1.0000e-08
  Last MAX-Density change    ...    5.5511e-16  Tolerance :   1.0000e-07
  Last RMS-Density change    ...    1.8408e-17  Tolerance :   5.0000e-09
  Last Orbital Gradient      ...    1.6094e-06  Tolerance :   1.0000e-05
  Last Orbital Rotation      ...    2.8403e-06  Tolerance :   1.0000e-05

             **** THE GBW FILE WAS UPDATED (ox_gs_B_orca0002.gbw) ****
             **** DENSITY ox_gs_B_orca0002.scfp WAS UPDATED ****
             **** ENERGY FILE WAS UPDATED (ox_gs_B_orca0002.en.tmp) ****
             **** THE GBW FILE WAS UPDATED (ox_gs_B_orca0002.gbw) ****
             **** DENSITY ox_gs_B_orca0002.scfp WAS UPDATED ****
----------------
ORBITAL ENERGIES
----------------

  NO   OCC          E(Eh)            E(eV) 
   0   2.0000     -19.225065      -523.1406 
   1   2.0000     -10.277930      -279.6767 
   2   2.0000     -10.275312      -279.6055 
   3   2.0000      -1.092914       -29.7397 
   4   2.0000      -0.712992       -19.4015 
   5   2.0000      -0.652303       -17.7501 
   6   2.0000      -0.529990       -14.4218 
   7   2.0000      -0.497192       -13.5293 
   8   2.0000      -0.422137       -11.4869 
   9   2.0000      -0.418512       -11.3883 
  10   2.0000      -0.313722        -8.5368 
  11   2.0000      -0.287204        -7.8152 
  12   0.0000       0.033306         0.9063 
  13   0.0000       0.071253         1.9389 
  14   0.0000       0.078641         2.1399 
  15   0.0000       0.106456         2.8968 
  16   0.0000       0.115664         3.1474 
  17   0.0000       0.154985         4.2173 
  18   0.0000       0.190880         5.1941 
  19   0.0000       0.201814         5.4916 
  20   0.0000       0.258934         7.0459 
  21   0.0000       0.270414         7.3584 
  22   0.0000       0.288457         7.8493 
  23   0.0000       0.323010         8.7895 
  24   0.0000       0.384789        10.4706 
  25   0.0000       0.392557        10.6820 
  26   0.0000       0.413358        11.2480 
  27   0.0000       0.424402        11.5486 
  28   0.0000       0.458971        12.4892 
  29   0.0000       0.479023        13.0349 
  30   0.0000       0.504104        13.7174 
  31   0.0000       0.520963        14.1761 
  32   0.0000       0.541599        14.7377 
  33   0.0000       0.685277        18.6473 
  34   0.0000       0.699601        19.0371 
  35   0.0000       0.741645        20.1812 
  36   0.0000       0.824619        22.4390 
  37   0.0000       0.867974        23.6188 
  38   0.0000       0.899504        24.4767 
  39   0.0000       0.919069        25.0091 
  40   0.0000       0.986953        26.8564 
  41   0.0000       1.035546        28.1786 
  42   0.0000       1.061334        28.8804 
  43   0.0000       1.074935        29.2505 
  44   0.0000       1.150389        31.3037 
  45   0.0000       1.350104        36.7382 
  46   0.0000       1.441334        39.2207 
  47   0.0000       1.466526        39.9062 
  48   0.0000       1.498369        40.7727 
  49   0.0000       1.511714        41.1358 
  50   0.0000       1.608406        43.7670 
  51   0.0000       1.631531        44.3962 
  52   0.0000       1.641210        44.6596 
  53   0.0000       1.714804        46.6622 
  54   0.0000       1.786381        48.6099 
  55   0.0000       1.816942        49.4415 
  56   0.0000       1.826083        49.6903 
  57   0.0000       1.882920        51.2369 
  58   0.0000       1.948221        53.0138 
  59   0.0000       1.969743        53.5994 
  60   0.0000       2.105034        57.2809 
  61   0.0000       2.110148        57.4201 
  62   0.0000       2.180365        59.3308 
  63   0.0000       2.263835        61.6021 
  64   0.0000       2.277071        61.9623 
  65   0.0000       2.423497        65.9467 
  66   0.0000       2.465995        67.1031 
  67   0.0000       2.511516        68.3418 
  68   0.0000       2.561882        69.7124 
  69   0.0000       2.576160        70.1009 
  70   0.0000       2.608793        70.9889 
  71   0.0000       2.621456        71.3334 
  72   0.0000       2.646638        72.0187 
  73   0.0000       2.707741        73.6814 
  74   0.0000       2.751486        74.8717 
  75   0.0000       2.783883        75.7533 
  76   0.0000       2.907840        79.1263 
  77   0.0000       2.947423        80.2035 
  78   0.0000       3.001381        81.6717 
  79   0.0000       3.034221        82.5653 
  80   0.0000       3.051443        83.0340 
  81   0.0000       3.108055        84.5745 
  82   0.0000       3.148089        85.6639 
  83   0.0000       3.206135        87.2434 
  84   0.0000       3.299266        89.7776 
  85   0.0000       3.325827        90.5004 
  86   0.0000       3.349513        91.1449 
  87   0.0000       3.393044        92.3294 
  88   0.0000       3.572182        97.2040 
  89   0.0000       3.605284        98.1048 
  90   0.0000       3.641200        99.0821 
  91   0.0000       3.709629       100.9441 
  92   0.0000       3.819504       103.9340 
  93   0.0000       3.988433       108.5308 
  94   0.0000       4.078710       110.9874 
  95   0.0000       4.097319       111.4937 
  96   0.0000       4.163605       113.2974 
  97   0.0000       4.329085       117.8004 
  98   0.0000       4.349798       118.3640 
  99   0.0000       4.574653       124.4826 
 100   0.0000       4.613724       125.5458 
 101   0.0000       4.903642       133.4349 
 102   0.0000       5.319642       144.7548 
 103   0.0000       5.375453       146.2735 
 104   0.0000       5.543429       150.8444 
 105   0.0000       5.749670       156.4565 
 106   0.0000       5.845262       159.0577 
 107   0.0000       5.904567       160.6714 
 108   0.0000       6.079522       165.4322 
 109   0.0000       6.564868       178.6391 
 110   0.0000       6.619725       180.1319 
 111   0.0000       6.804072       185.1482 
 112   0.0000       6.951219       189.1523 
 113   0.0000       7.172245       195.1667 
 114   0.0000      22.317950       607.3023 
 115   0.0000      22.506419       612.4308 
 116   0.0000      43.827119      1192.5965 

                    ********************************
                    * MULLIKEN POPULATION ANALYSIS *
                    ********************************

-----------------------
MULLIKEN ATOMIC CHARGES
-----------------------
   0 O :   -0.305387
   1 C :   -0.022589
   2 C :   -0.143465
   3 H :    0.099267
   4 H :    0.104906
   5 H :    0.133301
   6 H :    0.133967
Sum of atomic charges:    0.0000000

--------------------------------
MULLIKEN REDUCED ORBITAL CHARGES
--------------------------------
  0 O s       :     3.859532  s :     3.859532
      pz      :     1.847094  p :     4.403669
      px      :     1.282176
      py      :     1.274399
      dz2     :     0.005209  d :     0.040182
      dxz     :     0.002203
      dyz     :     0.006602
      dx2y2   :     0.011201
      dxy     :     0.014968
      f0      :     0.000246  f :     0.002003
      f+1     :     0.000187
      f-1     :     0.000432
      f+2     :     0.000104
      f-2     :     0.000170
      f+3     :     0.000408
      f-3     :     0.000457
  1 C s       :     3.207229  s :     3.207229
      pz      :     1.044812  p :     2.674192
      px      :     0.888456
      py      :     0.740924
      dz2     :     0.005138  d :     0.128537
      dxz     :     0.024680
      dyz     :     0.042103
      dx2y2   :     0.031393
      dxy     :     0.025223
      f0      :     0.001804  f :     0.012631
      f+1     :     0.001341
      f-1     :     0.000848
      f+2     :     0.001845
      f-2     :     0.001430
      f+3     :     0.002009
      f-3     :     0.003353
  2 C s       :     3.248247  s :     3.248247
      pz      :     1.049179  p :     2.802692
      px      :     0.909498
      py      :     0.844015
      dz2     :     0.008437  d :     0.083496
      dxz     :     0.020686
      dyz     :     0.018112
      dx2y2   :     0.018529
      dxy     :     0.017732
      f0      :     0.001101  f :     0.009030
      f+1     :     0.001390
      f-1     :     0.000381
      f+2     :     0.000691
      f-2     :     0.001326
      f+3     :     0.002156
      f-3     :     0.001985
  3 H s       :     0.880606  s :     0.880606
      pz      :     0.010066  p :     0.020128
      px      :     0.006340
      py      :     0.003721
  4 H s       :     0.873325  s :     0.873325
      pz      :     0.010970  p :     0.021769
      px      :     0.006637
      py      :     0.004162
  5 H s       :     0.843101  s :     0.843101
      pz      :     0.011372  p :     0.023598
      px      :     0.007070
      py      :     0.005155
  6 H s       :     0.842224  s :     0.842224
      pz      :     0.011616  p :     0.023809
      px      :     0.006810
      py      :     0.005384


                     *******************************
                     * LOEWDIN POPULATION ANALYSIS *
                     *******************************

----------------------
LOEWDIN ATOMIC CHARGES
----------------------
   0 O :    0.112695
   1 C :   -0.369351
   2 C :   -0.167425
   3 H :    0.111944
   4 H :    0.103144
   5 H :    0.105708
   6 H :    0.103286

-------------------------------
LOEWDIN REDUCED ORBITAL CHARGES
-------------------------------
  0 O s       :     3.400346  s :     3.400346
      pz      :     1.731672  p :     4.389707
      px      :     1.263355
      py      :     1.394681
      dz2     :     0.010869  d :     0.090812
      dxz     :     0.006609
      dyz     :     0.016177
      dx2y2   :     0.029700
      dxy     :     0.027458
      f0      :     0.000634  f :     0.006441
      f+1     :     0.000274
      f-1     :     0.000838
      f+2     :     0.000375
      f-2     :     0.000808
      f+3     :     0.001433
      f-3     :     0.002077
  1 C s       :     2.824151  s :     2.824151
      pz      :     1.055428  p :     2.910532
      px      :     0.996502
      py      :     0.858602
      dz2     :     0.057086  d :     0.549157
      dxz     :     0.121588
      dyz     :     0.125540
      dx2y2   :     0.128939
      dxy     :     0.116004
      f0      :     0.012083  f :     0.085510
      f+1     :     0.005671
      f-1     :     0.007331
      f+2     :     0.013049
      f-2     :     0.006962
      f+3     :     0.015365
      f-3     :     0.025049
  2 C s       :     2.841301  s :     2.841301
      pz      :     1.083948  p :     2.942989
      px      :     1.013206
      py      :     0.845835
      dz2     :     0.048391  d :     0.337910
      dxz     :     0.101616
      dyz     :     0.048731
      dx2y2   :     0.068660
      dxy     :     0.070511
      f0      :     0.005945  f :     0.045225
      f+1     :     0.005213
      f-1     :     0.003572
      f+2     :     0.003848
      f-2     :     0.004858
      f+3     :     0.010832
      f-3     :     0.010956
  3 H s       :     0.830548  s :     0.830548
      pz      :     0.030007  p :     0.057508
      px      :     0.016856
      py      :     0.010644
  4 H s       :     0.832018  s :     0.832018
      pz      :     0.033947  p :     0.064839
      px      :     0.018488
      py      :     0.012404
  5 H s       :     0.820863  s :     0.820863
      pz      :     0.036375  p :     0.073430
      px      :     0.020724
      py      :     0.016331
  6 H s       :     0.821933  s :     0.821933
      pz      :     0.037397  p :     0.074781
      px      :     0.020234
      py      :     0.017150


                      *****************************
                      * MAYER POPULATION ANALYSIS *
                      *****************************

  NA   - Mulliken gross atomic population
  ZA   - Total nuclear charge
  QA   - Mulliken gross atomic charge
  VA   - Mayer's total valence
  BVA  - Mayer's bonded valence
  FA   - Mayer's free valence

  ATOM       NA         ZA         QA         VA         BVA        FA
  0 O      8.3054     8.0000    -0.3054     1.9936     1.9936     0.0000
  1 C      6.0226     6.0000    -0.0226     3.9801     3.9801     0.0000
  2 C      6.1435     6.0000    -0.1435     3.9276     3.9276     0.0000
  3 H      0.9007     1.0000     0.0993     0.9582     0.9582     0.0000
  4 H      0.8951     1.0000     0.1049     0.9585     0.9585    -0.0000
  5 H      0.8667     1.0000     0.1333     0.9628     0.9628     0.0000
  6 H      0.8660     1.0000     0.1340     0.9623     0.9623    -0.0000

  Mayer bond orders larger than 0.100000
B(  0-O ,  1-C ) :   1.0219 B(  0-O ,  2-C ) :   0.9561 B(  1-C ,  2-C ) :   1.0402 
B(  1-C ,  3-H ) :   0.9512 B(  1-C ,  4-H ) :   0.9596 B(  2-C ,  5-H ) :   0.9599 
B(  2-C ,  6-H ) :   0.9587 

-------
TIMINGS
-------

Total SCF time: 0 days 0 hours 0 min 2 sec 

Total time                  ....       2.984 sec
Sum of individual times     ....       2.625 sec  ( 88.0%)

Fock matrix formation       ....       2.316 sec  ( 77.6%)
  Split-RI-J                ....       0.301 sec  ( 13.0% of F)
  Chain of spheres X        ....       1.551 sec  ( 66.9% of F)
  XC integration            ....       0.417 sec  ( 18.0% of F)
    Basis function eval.    ....       0.114 sec  ( 27.2% of XC)
    Density eval.           ....       0.085 sec  ( 20.4% of XC)
    XC-Functional eval.     ....       0.024 sec  (  5.7% of XC)
    XC-Potential eval.      ....       0.146 sec  ( 35.0% of XC)
Diagonalization             ....       0.013 sec  (  0.4%)
Density matrix formation    ....       0.001 sec  (  0.0%)
Population analysis         ....       0.003 sec  (  0.1%)
Initial guess               ....       0.047 sec  (  1.6%)
Orbital Transformation      ....       0.000 sec  (  0.0%)
Orbital Orthonormalization  ....       0.000 sec  (  0.0%)
DIIS solution               ....       0.010 sec  (  0.4%)
SOSCF solution              ....       0.015 sec  (  0.5%)
Grid generation             ....       0.219 sec  (  7.3%)

Maximum memory used throughout the entire SCF-calculation: 61.1 MB


-------------------------------------------------------------------------------
                          DFT DISPERSION CORRECTION                            
                                                                               
                              DFTD3 V3.1  Rev 1                                
                          USING Becke-Johnson damping                          
-------------------------------------------------------------------------------
The PBE0 functional is recognized
Active option DFTDOPT                   ...         4   

molecular C6(AA) [au] = 351.223505 


            DFT-D V3
 parameters
 s6 scaling factor         :     1.0000 
 a1 scaling factor         :     0.4145 
 s8 scaling factor         :     1.2177 
 a2 scaling factor         :     4.8593 
 ad hoc parameters k1-k3   :    16.0000     1.3333    -4.0000 

 Edisp/kcal,au: -1.508545368535  -0.002404019812 
 E6   /kcal   :  -0.988744882 
 E8   /kcal   :  -0.519800487 
 % E8         :  34.457066908 

-------------------------   ----------------
Dispersion correction           -0.002404020
-------------------------   ----------------


-------------------------   --------------------
FINAL SINGLE POINT ENERGY      -153.653098523390
-------------------------   --------------------



           ************************************************************
           *        Program running with 8 parallel MPI-processes     *
           *              working on a common directory               *
           ************************************************************
------------------------------------------------------------------------------
                         ORCA SCF GRADIENT CALCULATION
------------------------------------------------------------------------------

 ... reading COSX grid (gridx3)
Gradient of the Kohn-Sham DFT energy:
Kohn-Sham wavefunction type      ... RKS
Hartree-Fock exchange scaling    ...    0.250
Number of operators              ...    1
Number of atoms                  ...    7
Basis set dimensions             ...  117
Integral neglect threshold       ... 2.5e-11
Integral primitive cutoff        ... 2.5e-12
SHARK Integral package           ... ON

Nuc. rep. gradient       (SHARK) ... done (  0.0 sec)
HCore & Overlap gradient (SHARK) ... done (  0.0 sec)
RI-J gradient            (SHARK) ... done (  0.2 sec)
COSX-gradient                    ... done (  0.3 sec)
Exchange-correlation gradient    ... done
Dispersion correction            ... done

------------------
CARTESIAN GRADIENT
------------------

   1   O   :   -0.064689177   -0.001532416   -0.006975763
   2   C   :   -0.015144629    0.026588665   -0.022208421
   3   C   :    0.116018252   -0.035743102    0.012529811
   4   H   :   -0.007396386    0.001190924    0.007818873
   5   H   :    0.006536479    0.012960217    0.016421168
   6   H   :   -0.017270160   -0.002086729    0.033568457
   7   H   :   -0.017983057   -0.001235700   -0.041177877

Difference to translation invariance:
           :    0.0000713222    0.0001418580   -0.0000237508

Difference to rotation invariance:
           :   -0.0000254603   -0.0000592187   -0.0001118876

Norm of the cartesian gradient     ...    0.1568681825
RMS gradient                       ...    0.0342314438
MAX gradient                       ...    0.1160182524

-------
TIMINGS
-------

Total SCF gradient time            ...        0.845 sec

One electron gradient       ....       0.013 sec  (  1.5%)
RI-J Coulomb gradient       ....       0.153 sec  ( 18.1%)
COSX gradient               ....       0.326 sec  ( 38.6%)
XC gradient                 ....       0.154 sec  ( 18.2%)

Maximum memory used throughout the entire SCFGRAD-calculation: 35.9 MB

                            ***************************************
                            *     ORCA property calculations      *
                            ***************************************

                                    ---------------------
                                    Active property flags
                                    ---------------------
   (+) Dipole Moment


------------------------------------------------------------------------------
                       ORCA ELECTRIC PROPERTIES CALCULATION
------------------------------------------------------------------------------

Dipole Moment Calculation                       ... on
Quadrupole Moment Calculation                   ... off
Polarizability Calculation                      ... off
GBWName                                         ... ox_gs_B_orca0002.gbw
Electron density                                ... ox_gs_B_orca0002.scfp
The origin for moment calculation is the CENTER OF MASS  = (-0.176777, -0.041295  0.035195)

-------------
DIPOLE MOMENT
-------------
                                X             Y             Z
Electronic contribution:     -0.07123       1.70093      -0.03346
Nuclear contribution   :      0.20794      -2.46327       0.02884
                        -----------------------------------------
Total Dipole Moment    :      0.13671      -0.76235      -0.00462
                        -----------------------------------------
Magnitude (a.u.)       :      0.77452
Magnitude (Debye)      :      1.96867



--------------------
Rotational spectrum 
--------------------
 
Rotational constants in cm-1:     0.914009     0.653068     0.446694 
Rotational constants in MHz : 27401.300706 19578.473011 13391.560647 

 Dipole components along the rotational axes: 
x,y,z [a.u.] :    -0.428030    -0.645293    -0.016378 
x,y,z [Debye]:    -1.087966    -1.640205    -0.041630 

 

Timings for individual modules:

Sum of individual times         ...        5.036 sec (=   0.084 min)
GTO integral calculation        ...        0.685 sec (=   0.011 min)  13.6 %
SCF iterations                  ...        3.209 sec (=   0.053 min)  63.7 %
SCF Gradient evaluation         ...        1.142 sec (=   0.019 min)  22.7 %
                             ****ORCA TERMINATED NORMALLY****
TOTAL RUN TIME: 0 days 0 hours 0 minutes 5 seconds 609 msec
