
                                 *****************
                                 * O   R   C   A *
                                 *****************

                                            #,                                       
                                            ###                                      
                                            ####                                     
                                            #####                                    
                                            ######                                   
                                           ########,                                 
                                     ,,################,,,,,                         
                               ,,#################################,,                 
                          ,,##########################################,,             
                       ,#########################################, ''#####,          
                    ,#############################################,,   '####,        
                  ,##################################################,,,,####,       
                ,###########''''           ''''###############################       
              ,#####''   ,,,,##########,,,,          '''####'''          '####       
            ,##' ,,,,###########################,,,                        '##       
           ' ,,###''''                  '''############,,,                           
         ,,##''                                '''############,,,,        ,,,,,,###''
      ,#''                                            '''#######################'''  
     '                                                          ''''####''''         
             ,#######,   #######,   ,#######,      ##                                
            ,#'     '#,  ##    ##  ,#'     '#,    #''#        ######   ,####,        
            ##       ##  ##   ,#'  ##            #'  '#       #        #'  '#        
            ##       ##  #######   ##           ,######,      #####,   #    #        
            '#,     ,#'  ##    ##  '#,     ,#' ,#      #,         ##   #,  ,#        
             '#######'   ##     ##  '#######'  #'      '#     #####' # '####'        



                  #######################################################
                  #                        -***-                        #
                  #          Department of theory and spectroscopy      #
                  #    Directorship and core code : Frank Neese         #
                  #        Max Planck Institute fuer Kohlenforschung    #
                  #                Kaiser Wilhelm Platz 1               #
                  #                 D-45470 Muelheim/Ruhr               #
                  #                      Germany                        #
                  #                                                     #
                  #                  All rights reserved                #
                  #                        -***-                        #
                  #######################################################


                         Program Version 5.0.2 -  RELEASE  -


 With contributions from (in alphabetic order):
   Daniel Aravena         : Magnetic Suceptibility
   Michael Atanasov       : Ab Initio Ligand Field Theory (pilot matlab implementation)
   Alexander A. Auer      : GIAO ZORA, VPT2 properties, NMR spectrum
   Ute Becker             : Parallelization
   Giovanni Bistoni       : ED, misc. LED, open-shell LED, HFLD
   Martin Brehm           : Molecular dynamics
   Dmytro Bykov           : SCF Hessian
   Vijay G. Chilkuri      : MRCI spin determinant printing, contributions to CSF-ICE
   Dipayan Datta          : RHF DLPNO-CCSD density
   Achintya Kumar Dutta   : EOM-CC, STEOM-CC
   Dmitry Ganyushin       : Spin-Orbit,Spin-Spin,Magnetic field MRCI
   Miquel Garcia          : C-PCM and meta-GGA Hessian, CC/C-PCM, Gaussian charge scheme
   Yang Guo               : DLPNO-NEVPT2, F12-NEVPT2, CIM, IAO-localization
   Andreas Hansen         : Spin unrestricted coupled pair/coupled cluster methods
   Benjamin Helmich-Paris : MC-RPA, TRAH-SCF, COSX integrals
   Lee Huntington         : MR-EOM, pCC
   Robert Izsak           : Overlap fitted RIJCOSX, COSX-SCS-MP3, EOM
   Marcus Kettner         : VPT2
   Christian Kollmar      : KDIIS, OOCD, Brueckner-CCSD(T), CCSD density, CASPT2, CASPT2-K
   Simone Kossmann        : Meta GGA functionals, TD-DFT gradient, OOMP2, MP2 Hessian
   Martin Krupicka        : Initial AUTO-CI
   Lucas Lang             : DCDCAS
   Marvin Lechner         : AUTO-CI (C++ implementation), FIC-MRCC
   Dagmar Lenk            : GEPOL surface, SMD
   Dimitrios Liakos       : Extrapolation schemes; Compound Job, initial MDCI parallelization
   Dimitrios Manganas     : Further ROCIS development; embedding schemes
   Dimitrios Pantazis     : SARC Basis sets
   Anastasios Papadopoulos: AUTO-CI, single reference methods and gradients
   Taras Petrenko         : DFT Hessian,TD-DFT gradient, ASA, ECA, R-Raman, ABS, FL, XAS/XES, NRVS
   Peter Pinski           : DLPNO-MP2, DLPNO-MP2 Gradient
   Christoph Reimann      : Effective Core Potentials
   Marius Retegan         : Local ZFS, SOC
   Christoph Riplinger    : Optimizer, TS searches, QM/MM, DLPNO-CCSD(T), (RO)-DLPNO pert. Triples
   Tobias Risthaus        : Range-separated hybrids, TD-DFT gradient, RPA, STAB
   Michael Roemelt        : Original ROCIS implementation
   Masaaki Saitow         : Open-shell DLPNO-CCSD energy and density
   Barbara Sandhoefer     : DKH picture change effects
   Avijit Sen             : IP-ROCIS
   Kantharuban Sivalingam : CASSCF convergence, NEVPT2, FIC-MRCI
   Bernardo de Souza      : ESD, SOC TD-DFT
   Georgi Stoychev        : AutoAux, RI-MP2 NMR, DLPNO-MP2 response
   Willem Van den Heuvel  : Paramagnetic NMR
   Boris Wezisla          : Elementary symmetry handling
   Frank Wennmohs         : Technical directorship


 We gratefully acknowledge several colleagues who have allowed us to
 interface, adapt or use parts of their codes:
   Stefan Grimme, W. Hujo, H. Kruse, P. Pracht,  : VdW corrections, initial TS optimization,
                  C. Bannwarth, S. Ehlert          DFT functionals, gCP, sTDA/sTD-DF
   Ed Valeev, F. Pavosevic, A. Kumar             : LibInt (2-el integral package), F12 methods
   Garnet Chan, S. Sharma, J. Yang, R. Olivares  : DMRG
   Ulf Ekstrom                                   : XCFun DFT Library
   Mihaly Kallay                                 : mrcc  (arbitrary order and MRCC methods)
   Jiri Pittner, Ondrej Demel                    : Mk-CCSD
   Frank Weinhold                                : gennbo (NPA and NBO analysis)
   Christopher J. Cramer and Donald G. Truhlar   : smd solvation model
   Lars Goerigk                                  : TD-DFT with DH, B97 family of functionals
   V. Asgeirsson, H. Jonsson                     : NEB implementation
   FAccTs GmbH                                   : IRC, NEB, NEB-TS, DLPNO-Multilevel, CI-OPT
                                                   MM, QMMM, 2- and 3-layer-ONIOM, Crystal-QMMM,
                                                   LR-CPCM, SF, NACMEs, symmetry and pop. for TD-DFT,
                                                   nearIR, NL-DFT gradient (VV10), updates on ESD,
                                                   ML-optimized integration grids
   S Lehtola, MJT Oliveira, MAL Marques          : LibXC Library
   Liviu Ungur et al                             : ANISO software


 Your calculation uses the libint2 library for the computation of 2-el integrals
 For citations please refer to: http://libint.valeyev.net

 Your ORCA version has been built with support for libXC version: 5.1.0
 For citations please refer to: https://tddft.org/programs/libxc/

 This ORCA versions uses:
   CBLAS   interface :  Fast vector & matrix operations
   LAPACKE interface :  Fast linear algebra routines
   SCALAPACK package :  Parallel linear algebra routines
   Shared memory     :  Shared parallel matrices
   BLAS/LAPACK       :  OpenBLAS 0.3.15  USE64BITINT DYNAMIC_ARCH NO_AFFINITY SkylakeX SINGLE_THREADED
        Core in use  :  SkylakeX
   Copyright (c) 2011-2014, The OpenBLAS Project


Your calculation utilizes the atom-pairwise dispersion correction
with the Becke-Johnson damping scheme (D3BJ)
Cite in your paper:
S.Grimme, S.Ehrlich, L.Goerigk, J Comput Chem, (2011), 32, 1456–1465 
S.Grimme, J.Antony, S.Ehrlich and H.Krieg, J.Chem.Phys., 132, (2010), 154104 
   

================================================================================

----- Orbital basis set information -----
Your calculation utilizes the basis: def2-TZVP
   F. Weigend and R. Ahlrichs, Phys. Chem. Chem. Phys. 7, 3297 (2005).

----- AuxJ basis set information -----
Your calculation utilizes the auxiliary basis: def2/J
   F. Weigend, Phys. Chem. Chem. Phys. 8, 1057 (2006).

================================================================================
                                        WARNINGS
                       Please study these warnings very carefully!
================================================================================


INFO   : the flag for use of the SHARK integral package has been found!

================================================================================
                                       INPUT FILE
================================================================================
NAME = ox_gs_A_orca0044.inp
|  1> ! engrad PBE0 D3BJ def2-TZVP  
|  2> %pal nprocs 8 end
|  3> %maxcore 3000
|  4>  
|  5> *xyz 0 1 
|  6> O   0.05975238144624213 0.6907649647608113 -0.027945982363579418
|  7> C   -0.710028996246774 -0.36874428853828295 -0.00328751305364939
|  8> C   0.7011295636653401 -0.3529626365279705 -0.0724006950208122
|  9> H   -1.373763227831004 -0.6462700874973334 0.8948735087823695
| 10> H   -1.3148844108565356 -0.6328530876350323 -0.9077861843114401
| 11> H   1.2356188884631636 -0.7322860799335448 -0.8763533535859928
| 12> H   1.296332928897933 -0.6732296031889692 1.0123080198023833
| 13> *
| 14> 
| 15>                          ****END OF INPUT****
================================================================================

                     *******************************
                     * Energy+Gradient Calculation *
                     *******************************

---------------------------------
CARTESIAN COORDINATES (ANGSTROEM)
---------------------------------
  O      0.059752    0.690765   -0.027946
  C     -0.710029   -0.368744   -0.003288
  C      0.701130   -0.352963   -0.072401
  H     -1.373763   -0.646270    0.894874
  H     -1.314884   -0.632853   -0.907786
  H      1.235619   -0.732286   -0.876353
  H      1.296333   -0.673230    1.012308

----------------------------
CARTESIAN COORDINATES (A.U.)
----------------------------
  NO LB      ZA    FRAG     MASS         X           Y           Z
   0 O     8.0000    0    15.999    0.112916    1.305357   -0.052810
   1 C     6.0000    0    12.011   -1.341760   -0.696826   -0.006212
   2 C     6.0000    0    12.011    1.324943   -0.667003   -0.136817
   3 H     1.0000    0     1.008   -2.596036   -1.221273    1.691066
   4 H     1.0000    0     1.008   -2.484771   -1.195919   -1.715467
   5 H     1.0000    0     1.008    2.334981   -1.383820   -1.656068
   6 H     1.0000    0     1.008    2.449714   -1.272220    1.912985

--------------------------------
INTERNAL COORDINATES (ANGSTROEM)
--------------------------------
 O      0   0   0     0.000000000000     0.00000000     0.00000000
 C      1   0   0     1.309859254797     0.00000000     0.00000000
 C      1   2   0     1.225849997773    67.63313399     0.00000000
 H      2   1   3     1.150763624907   123.27978771   115.55936853
 H      2   1   3     1.119697002162   119.54120420   252.63434375
 H      3   1   2     1.037258400908   127.52299552   110.21131381
 H      3   1   2     1.278057499462   115.22949265   254.95010271

---------------------------
INTERNAL COORDINATES (A.U.)
---------------------------
 O      0   0   0     0.000000000000     0.00000000     0.00000000
 C      1   0   0     2.475275265549     0.00000000     0.00000000
 C      1   2   0     2.316520777059    67.63313399     0.00000000
 H      2   1   3     2.174628095954   123.27978771   115.55936853
 H      2   1   3     2.115920687058   119.54120420   252.63434375
 H      3   1   2     1.960134307825   127.52299552   110.21131381
 H      3   1   2     2.415178657388   115.22949265   254.95010271

---------------------
BASIS SET INFORMATION
---------------------
There are 3 groups of distinct atoms

 Group   1 Type O   : 11s6p2d1f contracted to 5s3p2d1f pattern {62111/411/11/1}
 Group   2 Type C   : 11s6p2d1f contracted to 5s3p2d1f pattern {62111/411/11/1}
 Group   3 Type H   : 5s1p contracted to 3s1p pattern {311/1}

Atom   0O    basis set group =>   1
Atom   1C    basis set group =>   2
Atom   2C    basis set group =>   2
Atom   3H    basis set group =>   3
Atom   4H    basis set group =>   3
Atom   5H    basis set group =>   3
Atom   6H    basis set group =>   3
---------------------------------
AUXILIARY/J BASIS SET INFORMATION
---------------------------------
There are 3 groups of distinct atoms

 Group   1 Type O   : 12s5p4d2f1g contracted to 6s4p3d1f1g pattern {711111/2111/211/2/1}
 Group   2 Type C   : 12s5p4d2f1g contracted to 6s4p3d1f1g pattern {711111/2111/211/2/1}
 Group   3 Type H   : 5s2p1d contracted to 3s1p1d pattern {311/2/1}

Atom   0O    basis set group =>   1
Atom   1C    basis set group =>   2
Atom   2C    basis set group =>   2
Atom   3H    basis set group =>   3
Atom   4H    basis set group =>   3
Atom   5H    basis set group =>   3
Atom   6H    basis set group =>   3


           ************************************************************
           *        Program running with 8 parallel MPI-processes     *
           *              working on a common directory               *
           ************************************************************
------------------------------------------------------------------------------
                           ORCA GTO INTEGRAL CALCULATION
                           -- RI-GTO INTEGRALS CHOSEN --
------------------------------------------------------------------------------
------------------------------------------------------------------------------
                   ___                                                        
                  /   \      - P O W E R E D   B Y -                         
                 /     \                                                     
                 |  |  |   _    _      __       _____    __    __             
                 |  |  |  | |  | |    /  \     |  _  \  |  |  /  |          
                  \  \/   | |  | |   /    \    | | | |  |  | /  /          
                 / \  \   | |__| |  /  /\  \   | |_| |  |  |/  /          
                |  |  |   |  __  | /  /__\  \  |    /   |      \           
                |  |  |   | |  | | |   __   |  |    \   |  |\   \          
                \     /   | |  | | |  |  |  |  | |\  \  |  | \   \       
                 \___/    |_|  |_| |__|  |__|  |_| \__\ |__|  \__/        
                                                                              
                      - O R C A' S   B I G   F R I E N D -                    
                                      &                                       
                       - I N T E G R A L  F E E D E R -                       
                                                                              
 v1 FN, 2020, v2 2021                                                         
------------------------------------------------------------------------------


Reading SHARK input file ox_gs_A_orca0044.SHARKINP.tmp ... ok
----------------------
SHARK INTEGRAL PACKAGE
----------------------

Number of atoms                             ...      7
Number of basis functions                   ...    117
Number of shells                            ...     49
Maximum angular momentum                    ...      3
Integral batch strategy                     ... SHARK/LIBINT Hybrid
RI-J (if used) integral strategy            ... SPLIT-RIJ (Revised 2003 algorithm where possible)
Printlevel                                  ...      1
Contraction scheme used                     ... SEGMENTED contraction
Coulomb Range Separation                    ... NOT USED
Exchange Range Separation                   ... NOT USED
Finite Nucleus Model                        ... NOT USED
Auxiliary Coulomb fitting basis             ... AVAILABLE
   # of basis functions in Aux-J            ...    191
   # of shells in Aux-J                     ...     65
   Maximum angular momentum in Aux-J        ...      4
Auxiliary J/K fitting basis                 ... NOT available
Auxiliary Correlation fitting basis         ... NOT available
Auxiliary 'external' fitting basis          ... NOT available
Integral threshold                          ...     2.500000e-11
Primitive cut-off                           ...     2.500000e-12
Primitive pair pre-selection threshold      ...     2.500000e-12

Calculating pre-screening integrals         ... done (  0.0 sec) Dimension = 49
Organizing shell pair data                  ... done (  0.0 sec)
Shell pair information
Total number of shell pairs                 ...      1225
Shell pairs after pre-screening             ...      1222
Total number of primitive shell pairs       ...      3648
Primitive shell pairs kept                  ...      3167
          la=0 lb=0:    375 shell pairs
          la=1 lb=0:    351 shell pairs
          la=1 lb=1:     91 shell pairs
          la=2 lb=0:    162 shell pairs
          la=2 lb=1:     78 shell pairs
          la=2 lb=2:     21 shell pairs
          la=3 lb=0:     81 shell pairs
          la=3 lb=1:     39 shell pairs
          la=3 lb=2:     18 shell pairs
          la=3 lb=3:      6 shell pairs

Calculating one electron integrals          ... done (  0.0 sec)
Calculating RI/J V-Matrix + Cholesky decomp.... done (  0.0 sec)
Calculating Nuclear repulsion               ... done (  0.0 sec) ENN=     79.784820605795 Eh

SHARK setup successfully completed in   0.1 seconds

Maximum memory used throughout the entire GTOINT-calculation: 14.9 MB


           ************************************************************
           *        Program running with 8 parallel MPI-processes     *
           *              working on a common directory               *
           ************************************************************
-------------------------------------------------------------------------------
                                 ORCA SCF
-------------------------------------------------------------------------------

------------
SCF SETTINGS
------------
Hamiltonian:
 Density Functional     Method          .... DFT(GTOs)
 Exchange Functional    Exchange        .... PBE
   PBE kappa parameter   XKappa         ....  0.804000
   PBE mue parameter    XMuePBE         ....  0.219520
 Correlation Functional Correlation     .... PBE
   PBE beta parameter  CBetaPBE         ....  0.066725
 LDA part of GGA corr.  LDAOpt          .... PW91-LDA
 Gradients option       PostSCFGGA      .... off
 Hybrid DFT is turned on
   Fraction HF Exchange ScalHFX         ....  0.250000
   Scaling of DF-GGA-X  ScalDFX         ....  0.750000
   Scaling of DF-GGA-C  ScalDFC         ....  1.000000
   Scaling of DF-LDA-C  ScalLDAC        ....  1.000000
   Perturbative correction              ....  0.000000
   Density functional embedding theory  .... OFF
   NL short-range parameter             ....  6.900000
 RI-approximation to the Coulomb term is turned on
   Number of AuxJ basis functions       .... 191
   RIJ-COSX (HFX calculated with COS-X)).... on


General Settings:
 Integral files         IntName         .... ox_gs_A_orca0044
 Hartree-Fock type      HFTyp           .... RHF
 Total Charge           Charge          ....    0
 Multiplicity           Mult            ....    1
 Number of Electrons    NEL             ....   24
 Basis Dimension        Dim             ....  117
 Nuclear Repulsion      ENuc            ....     79.7848206058 Eh

Convergence Acceleration:
 DIIS                   CNVDIIS         .... on
   Start iteration      DIISMaxIt       ....    12
   Startup error        DIISStart       ....  0.200000
   # of expansion vecs  DIISMaxEq       ....     5
   Bias factor          DIISBfac        ....   1.050
   Max. coefficient     DIISMaxC        ....  10.000
 Trust-Rad. Augm. Hess. CNVTRAH         .... auto
   Auto Start mean grad. ratio tolernc. ....  1.125000
   Auto Start start iteration           ....    20
   Auto Start num. interpolation iter.  ....    10
   Max. Number of Micro iterations      ....    16
   Max. Number of Macro iterations      .... Maxiter - #DIIS iter
   Number of Davidson start vectors     ....     2
   Converg. threshold I  (grad. norm)   ....   1.000e-05
   Converg. threshold II (energy diff.) ....   1.000e-08
   Grad. Scal. Fac. for Micro threshold ....   0.100
   Minimum threshold for Micro iter.    ....   0.010
   NR start threshold (gradient norm)   ....   0.001
   Initial trust radius                 ....   0.400
   Minimum AH scaling param. (alpha)    ....   1.000
   Maximum AH scaling param. (alpha)    .... 1000.000
   Orbital update algorithm             .... Taylor
   White noise on init. David. guess    .... on
   Maximum white noise                  ....   0.010
   Quad. conv. algorithm                .... NR
 SOSCF                  CNVSOSCF        .... on
   Start iteration      SOSCFMaxIt      ....   150
   Startup grad/error   SOSCFStart      ....  0.003300
 Level Shifting         CNVShift        .... on
   Level shift para.    LevelShift      ....    0.2500
   Turn off err/grad.   ShiftErr        ....    0.0010
 Zerner damping         CNVZerner       .... off
 Static damping         CNVDamp         .... on
   Fraction old density DampFac         ....    0.7000
   Max. Damping (<1)    DampMax         ....    0.9800
   Min. Damping (>=0)   DampMin         ....    0.0000
   Turn off err/grad.   DampErr         ....    0.1000
 Fernandez-Rico         CNVRico         .... off

SCF Procedure:
 Maximum # iterations   MaxIter         ....   125
 SCF integral mode      SCFMode         .... Direct
   Integral package                     .... SHARK and LIBINT hybrid scheme
 Reset frequency        DirectResetFreq ....    20
 Integral Threshold     Thresh          ....  2.500e-11 Eh
 Primitive CutOff       TCut            ....  2.500e-12 Eh

Convergence Tolerance:
 Convergence Check Mode ConvCheckMode   .... Total+1el-Energy
 Convergence forced     ConvForced      .... 0
 Energy Change          TolE            ....  1.000e-08 Eh
 1-El. energy change                    ....  1.000e-05 Eh
 Orbital Gradient       TolG            ....  1.000e-05
 Orbital Rotation angle TolX            ....  1.000e-05
 DIIS Error             TolErr          ....  5.000e-07


Diagonalization of the overlap matrix:
Smallest eigenvalue                        ... 2.440e-04
Time for diagonalization                   ...    0.001 sec
Threshold for overlap eigenvalues          ... 1.000e-08
Number of eigenvalues below threshold      ... 0
Time for construction of square roots      ...    0.001 sec
Total time needed                          ...    0.003 sec

Time for model grid setup =    0.022 sec

------------------------------
INITIAL GUESS: MODEL POTENTIAL
------------------------------
Loading Hartree-Fock densities                     ... done
Calculating cut-offs                               ... done
Initializing the effective Hamiltonian             ... done
Setting up the integral package (SHARK)            ... done
Starting the Coulomb interaction                   ... done (   0.0 sec)
Reading the grid                                   ... done
Mapping shells                                     ... done
Starting the XC term evaluation                    ... done (   0.0 sec)
  promolecular density results
     # of electrons  =     23.996764346
     EX              =    -19.626791835
     EC              =     -0.791207274
     EX+EC           =    -20.417999109
Transforming the Hamiltonian                       ... done (   0.0 sec)
Diagonalizing the Hamiltonian                      ... done (   0.0 sec)
Back transforming the eigenvectors                 ... done (   0.0 sec)
Now organizing SCF variables                       ... done
                      ------------------
                      INITIAL GUESS DONE (   0.0 sec)
                      ------------------
-------------------
DFT GRID GENERATION
-------------------

General Integration Accuracy     IntAcc      ... 4.388
Radial Grid Type                 RadialGrid  ... OptM3 with GC (2021)
Angular Grid (max. ang.)         AngularGrid ... 4 (Lebedev-302)
Angular grid pruning method      GridPruning ... 4 (adaptive)
Weight generation scheme         WeightScheme... Becke
Basis function cutoff            BFCut       ... 1.0000e-11
Integration weight cutoff        WCut        ... 1.0000e-14
Angular grids for H and He will be reduced by one unit
Partially contracted basis set               ... off
Rotationally invariant grid construction     ... off

Total number of grid points                  ...    31302
Total number of batches                      ...      493
Average number of points per batch           ...       63
Average number of grid points per atom       ...     4472
Time for grid setup =    0.110 sec

--------------------
COSX GRID GENERATION
--------------------

GRIDX 1
-------
General Integration Accuracy     IntAcc      ... 3.816
Radial Grid Type                 RadialGrid  ... OptM3 with GC (2021)
Angular Grid (max. ang.)         AngularGrid ... 1 (Lebedev-50)
Angular grid pruning method      GridPruning ... 4 (adaptive)
Weight generation scheme         WeightScheme... Becke
Basis function cutoff            BFCut       ... 1.0000e-11
Integration weight cutoff        WCut        ... 1.0000e-14
Angular grids for H and He will be reduced by one unit
Partially contracted basis set               ... on
Rotationally invariant grid construction     ... off

Total number of grid points                  ...     4030
Total number of batches                      ...       67
Average number of points per batch           ...       60
Average number of grid points per atom       ...      576
UseSFitting                                  ... on

GRIDX 2
-------
General Integration Accuracy     IntAcc      ... 4.020
Radial Grid Type                 RadialGrid  ... OptM3 with GC (2021)
Angular Grid (max. ang.)         AngularGrid ... 2 (Lebedev-110)
Angular grid pruning method      GridPruning ... 4 (adaptive)
Weight generation scheme         WeightScheme... Becke
Basis function cutoff            BFCut       ... 1.0000e-11
Integration weight cutoff        WCut        ... 1.0000e-14
Angular grids for H and He will be reduced by one unit
Partially contracted basis set               ... on
Rotationally invariant grid construction     ... off

Total number of grid points                  ...     8707
Total number of batches                      ...      140
Average number of points per batch           ...       62
Average number of grid points per atom       ...     1244
UseSFitting                                  ... on

GRIDX 3
-------
General Integration Accuracy     IntAcc      ... 4.338
Radial Grid Type                 RadialGrid  ... OptM3 with GC (2021)
Angular Grid (max. ang.)         AngularGrid ... 3 (Lebedev-194)
Angular grid pruning method      GridPruning ... 4 (adaptive)
Weight generation scheme         WeightScheme... Becke
Basis function cutoff            BFCut       ... 1.0000e-11
Integration weight cutoff        WCut        ... 1.0000e-14
Angular grids for H and He will be reduced by one unit
Partially contracted basis set               ... on
Rotationally invariant grid construction     ... off

Total number of grid points                  ...    19251
Total number of batches                      ...      305
Average number of points per batch           ...       63
Average number of grid points per atom       ...     2750
UseSFitting                                  ... on

Time for X-Grid setup             =    0.073 sec

--------------
SCF ITERATIONS
--------------
ITER       Energy         Delta-E        Max-DP      RMS-DP      [F,P]     Damp
               ***  Starting incremental Fock matrix formation  ***
  0   -153.5355348426   0.000000000000 0.03851159  0.00128725  0.1893296 0.7000
  1   -153.5724005464  -0.036865703831 0.02201769  0.00094986  0.0831704 0.7000
                               ***Turning on DIIS***
  2   -153.5868770397  -0.014476493316 0.03788988  0.00155408  0.0313735 0.0000
  3   -153.6091247435  -0.022247703759 0.01462860  0.00071013  0.0420257 0.0000
  4   -153.6145546145  -0.005429871031 0.00521880  0.00022313  0.0073812 0.0000
  5   -153.6147575099  -0.000202895401 0.00223404  0.00008273  0.0036835 0.0000
                      *** Initiating the SOSCF procedure ***
                           *** Shutting down DIIS ***
                      *** Re-Reading the Fockian *** 
                      *** Removing any level shift *** 
ITER      Energy       Delta-E        Grad      Rot      Max-DP    RMS-DP
  6   -153.61477917  -0.0000216566  0.000150  0.000150  0.001316  0.000043
               *** Restarting incremental Fock matrix formation ***
  7   -153.61477045   0.0000087128  0.000055  0.000071  0.000120  0.000006
  8   -153.61477044   0.0000000171  0.000069  0.000056  0.000081  0.000003
  9   -153.61477052  -0.0000000794  0.000006  0.000009  0.000012  0.000001
 10   -153.61477052   0.0000000004  0.000006  0.000005  0.000006  0.000000
                 **** Energy Check signals convergence ****
              ***Rediagonalizing the Fockian in SOSCF/NRSCF***

               *****************************************************
               *                     SUCCESS                       *
               *           SCF CONVERGED AFTER  11 CYCLES          *
               *****************************************************

Old exchange energy                            =     -5.022174552 Eh
New exchange energy                            =     -5.022169855 Eh
Exchange energy change after final integration =      0.000004697 Eh
Total energy after final integration           =   -153.614765820 Eh
Final COS-X integration done in                =     0.263 sec

----------------
TOTAL SCF ENERGY
----------------

Total Energy       :         -153.61476582 Eh           -4180.07029 eV

Components:
Nuclear Repulsion  :           79.78482061 Eh            2171.05534 eV
Electronic Energy  :         -233.39958643 Eh           -6351.12563 eV
One Electron Energy:         -365.59440481 Eh           -9948.32952 eV
Two Electron Energy:          132.19481839 Eh            3597.20389 eV
Max COSX asymmetry :            0.00000186 Eh               0.00005 eV

Virial components:
Potential Energy   :         -307.05291402 Eh           -8355.33457 eV
Kinetic Energy     :          153.43814820 Eh            4175.26428 eV
Virial Ratio       :            2.00115107


DFT components:
N(Alpha)           :       12.000004019571 electrons
N(Beta)            :       12.000004019571 electrons
N(Total)           :       24.000008039142 electrons
E(X)               :      -15.026061495205 Eh       
E(C)               :       -0.798801237554 Eh       
E(XC)              :      -15.824862732758 Eh       
DFET-embed. en.    :        0.000000000000 Eh       

---------------
SCF CONVERGENCE
---------------

  Last Energy change         ...   -1.4197e-09  Tolerance :   1.0000e-08
  Last MAX-Density change    ...    5.5511e-16  Tolerance :   1.0000e-07
  Last RMS-Density change    ...    1.8618e-17  Tolerance :   5.0000e-09
  Last Orbital Gradient      ...    1.4496e-07  Tolerance :   1.0000e-05
  Last Orbital Rotation      ...    4.0556e-07  Tolerance :   1.0000e-05

             **** THE GBW FILE WAS UPDATED (ox_gs_A_orca0044.gbw) ****
             **** DENSITY ox_gs_A_orca0044.scfp WAS UPDATED ****
             **** ENERGY FILE WAS UPDATED (ox_gs_A_orca0044.en.tmp) ****
             **** THE GBW FILE WAS UPDATED (ox_gs_A_orca0044.gbw) ****
             **** DENSITY ox_gs_A_orca0044.scfp WAS UPDATED ****
----------------
ORBITAL ENERGIES
----------------

  NO   OCC          E(Eh)            E(eV) 
   0   2.0000     -19.242004      -523.6016 
   1   2.0000     -10.278976      -279.7051 
   2   2.0000     -10.276759      -279.6448 
   3   2.0000      -1.237117       -33.6637 
   4   2.0000      -0.691974       -18.8296 
   5   2.0000      -0.673739       -18.3334 
   6   2.0000      -0.562462       -15.3054 
   7   2.0000      -0.537994       -14.6396 
   8   2.0000      -0.478606       -13.0235 
   9   2.0000      -0.365709        -9.9514 
  10   2.0000      -0.319880        -8.7044 
  11   2.0000      -0.290607        -7.9078 
  12   0.0000       0.054619         1.4862 
  13   0.0000       0.079970         2.1761 
  14   0.0000       0.096313         2.6208 
  15   0.0000       0.104013         2.8303 
  16   0.0000       0.125418         3.4128 
  17   0.0000       0.151122         4.1122 
  18   0.0000       0.194273         5.2864 
  19   0.0000       0.229225         6.2375 
  20   0.0000       0.272465         7.4142 
  21   0.0000       0.282068         7.6755 
  22   0.0000       0.290250         7.8981 
  23   0.0000       0.352728         9.5982 
  24   0.0000       0.372085        10.1249 
  25   0.0000       0.396779        10.7969 
  26   0.0000       0.403538        10.9808 
  27   0.0000       0.431097        11.7307 
  28   0.0000       0.450430        12.2568 
  29   0.0000       0.475588        12.9414 
  30   0.0000       0.498270        13.5586 
  31   0.0000       0.524865        14.2823 
  32   0.0000       0.546113        14.8605 
  33   0.0000       0.703379        19.1399 
  34   0.0000       0.720992        19.6192 
  35   0.0000       0.725090        19.7307 
  36   0.0000       0.844110        22.9694 
  37   0.0000       0.882739        24.0205 
  38   0.0000       0.905535        24.6409 
  39   0.0000       0.967817        26.3356 
  40   0.0000       1.043512        28.3954 
  41   0.0000       1.079773        29.3821 
  42   0.0000       1.095132        29.8000 
  43   0.0000       1.109071        30.1793 
  44   0.0000       1.164913        31.6989 
  45   0.0000       1.380400        37.5626 
  46   0.0000       1.399237        38.0752 
  47   0.0000       1.482983        40.3540 
  48   0.0000       1.517699        41.2987 
  49   0.0000       1.527519        41.5659 
  50   0.0000       1.562677        42.5226 
  51   0.0000       1.623884        44.1881 
  52   0.0000       1.636301        44.5260 
  53   0.0000       1.687963        45.9318 
  54   0.0000       1.721930        46.8561 
  55   0.0000       1.773246        48.2525 
  56   0.0000       1.821670        49.5702 
  57   0.0000       1.948194        53.0131 
  58   0.0000       1.964816        53.4654 
  59   0.0000       1.981882        53.9297 
  60   0.0000       2.047905        55.7263 
  61   0.0000       2.143509        58.3279 
  62   0.0000       2.209317        60.1186 
  63   0.0000       2.281425        62.0807 
  64   0.0000       2.311958        62.9116 
  65   0.0000       2.403422        65.4004 
  66   0.0000       2.430187        66.1287 
  67   0.0000       2.453582        66.7654 
  68   0.0000       2.514042        68.4106 
  69   0.0000       2.611107        71.0518 
  70   0.0000       2.632996        71.6475 
  71   0.0000       2.674653        72.7810 
  72   0.0000       2.718573        73.9761 
  73   0.0000       2.734794        74.4175 
  74   0.0000       2.796472        76.0959 
  75   0.0000       2.837717        77.2182 
  76   0.0000       2.893172        78.7272 
  77   0.0000       2.974714        80.9461 
  78   0.0000       3.027684        82.3875 
  79   0.0000       3.041611        82.7664 
  80   0.0000       3.072573        83.6090 
  81   0.0000       3.086083        83.9766 
  82   0.0000       3.163615        86.0863 
  83   0.0000       3.244929        88.2990 
  84   0.0000       3.341194        90.9185 
  85   0.0000       3.422177        93.1222 
  86   0.0000       3.431556        93.3774 
  87   0.0000       3.487256        94.8931 
  88   0.0000       3.556780        96.7849 
  89   0.0000       3.620661        98.5232 
  90   0.0000       3.679035       100.1116 
  91   0.0000       3.791771       103.1793 
  92   0.0000       3.885200       105.7217 
  93   0.0000       3.983380       108.3933 
  94   0.0000       4.071747       110.7979 
  95   0.0000       4.191030       114.0437 
  96   0.0000       4.240160       115.3806 
  97   0.0000       4.301870       117.0598 
  98   0.0000       4.319665       117.5440 
  99   0.0000       4.564910       124.2175 
 100   0.0000       4.754059       129.3645 
 101   0.0000       4.858069       132.1948 
 102   0.0000       5.463521       148.6700 
 103   0.0000       5.632981       153.2812 
 104   0.0000       5.922657       161.1637 
 105   0.0000       6.003291       163.3578 
 106   0.0000       6.140190       167.0831 
 107   0.0000       6.162322       167.6853 
 108   0.0000       6.376277       173.5073 
 109   0.0000       6.693904       182.1504 
 110   0.0000       6.730688       183.1513 
 111   0.0000       6.839154       186.1028 
 112   0.0000       7.056849       192.0266 
 113   0.0000       7.234625       196.8642 
 114   0.0000      22.403046       609.6179 
 115   0.0000      22.759361       619.3137 
 116   0.0000      43.966544      1196.3905 

                    ********************************
                    * MULLIKEN POPULATION ANALYSIS *
                    ********************************

-----------------------
MULLIKEN ATOMIC CHARGES
-----------------------
   0 O :   -0.221372
   1 C :   -0.095803
   2 C :   -0.062025
   3 H :    0.114945
   4 H :    0.101674
   5 H :    0.108890
   6 H :    0.053691
Sum of atomic charges:    0.0000000

--------------------------------
MULLIKEN REDUCED ORBITAL CHARGES
--------------------------------
  0 O s       :     3.792628  s :     3.792628
      pz      :     1.729732  p :     4.365518
      px      :     1.286055
      py      :     1.349731
      dz2     :     0.005822  d :     0.059978
      dxz     :     0.004848
      dyz     :     0.011153
      dx2y2   :     0.018481
      dxy     :     0.019673
      f0      :     0.000490  f :     0.003249
      f+1     :     0.000279
      f-1     :     0.000503
      f+2     :     0.000136
      f-2     :     0.000404
      f+3     :     0.000330
      f-3     :     0.001107
  1 C s       :     3.197012  s :     3.197012
      pz      :     1.052019  p :     2.760464
      px      :     0.893144
      py      :     0.815302
      dz2     :     0.004401  d :     0.123753
      dxz     :     0.032768
      dyz     :     0.031180
      dx2y2   :     0.035029
      dxy     :     0.020376
      f0      :     0.001811  f :     0.014573
      f+1     :     0.001437
      f-1     :     0.000708
      f+2     :     0.001288
      f-2     :     0.002618
      f+3     :     0.002962
      f-3     :     0.003749
  2 C s       :     3.169795  s :     3.169795
      pz      :     1.019456  p :     2.727770
      px      :     0.925010
      py      :     0.783305
      dz2     :     0.007495  d :     0.148124
      dxz     :     0.033704
      dyz     :     0.042230
      dx2y2   :     0.038623
      dxy     :     0.026072
      f0      :     0.002323  f :     0.016336
      f+1     :     0.001374
      f-1     :     0.001021
      f+2     :     0.001418
      f-2     :     0.002838
      f+3     :     0.002898
      f-3     :     0.004464
  3 H s       :     0.866138  s :     0.866138
      pz      :     0.008809  p :     0.018918
      px      :     0.006672
      py      :     0.003436
  4 H s       :     0.877991  s :     0.877991
      pz      :     0.009628  p :     0.020335
      px      :     0.006767
      py      :     0.003940
  5 H s       :     0.868383  s :     0.868383
      pz      :     0.009788  p :     0.022727
      px      :     0.007695
      py      :     0.005244
  6 H s       :     0.932277  s :     0.932277
      pz      :     0.007790  p :     0.014032
      px      :     0.003984
      py      :     0.002258


                     *******************************
                     * LOEWDIN POPULATION ANALYSIS *
                     *******************************

----------------------
LOEWDIN ATOMIC CHARGES
----------------------
   0 O :    0.351420
   1 C :   -0.369842
   2 C :   -0.448523
   3 H :    0.126370
   4 H :    0.119544
   5 H :    0.101633
   6 H :    0.119398

-------------------------------
LOEWDIN REDUCED ORBITAL CHARGES
-------------------------------
  0 O s       :     3.213134  s :     3.213134
      pz      :     1.554769  p :     4.262676
      px      :     1.253679
      py      :     1.454228
      dz2     :     0.013149  d :     0.158566
      dxz     :     0.016625
      dyz     :     0.027347
      dx2y2   :     0.064177
      dxy     :     0.037269
      f0      :     0.001441  f :     0.014204
      f+1     :     0.000529
      f-1     :     0.001243
      f+2     :     0.000250
      f-2     :     0.002139
      f+3     :     0.002126
      f-3     :     0.006476
  1 C s       :     2.793996  s :     2.793996
      pz      :     1.032694  p :     2.942280
      px      :     1.023841
      py      :     0.885745
      dz2     :     0.047920  d :     0.538496
      dxz     :     0.171227
      dyz     :     0.097610
      dx2y2   :     0.116053
      dxy     :     0.105687
      f0      :     0.012986  f :     0.095070
      f+1     :     0.007288
      f-1     :     0.005946
      f+2     :     0.008044
      f-2     :     0.012410
      f+3     :     0.018716
      f-3     :     0.029681
  2 C s       :     2.782320  s :     2.782320
      pz      :     1.003145  p :     2.913616
      px      :     1.023802
      py      :     0.886670
      dz2     :     0.055292  d :     0.633974
      dxz     :     0.163350
      dyz     :     0.145163
      dx2y2   :     0.139214
      dxy     :     0.130957
      f0      :     0.017659  f :     0.118612
      f+1     :     0.007561
      f-1     :     0.007361
      f+2     :     0.011006
      f-2     :     0.015323
      f+3     :     0.019419
      f-3     :     0.040284
  3 H s       :     0.821159  s :     0.821159
      pz      :     0.026212  p :     0.052470
      px      :     0.016543
      py      :     0.009716
  4 H s       :     0.823883  s :     0.823883
      pz      :     0.028596  p :     0.056573
      px      :     0.016787
      py      :     0.011191
  5 H s       :     0.829426  s :     0.829426
      pz      :     0.031952  p :     0.068942
      px      :     0.021035
      py      :     0.015954
  6 H s       :     0.845744  s :     0.845744
      pz      :     0.020788  p :     0.034859
      px      :     0.008639
      py      :     0.005431


                      *****************************
                      * MAYER POPULATION ANALYSIS *
                      *****************************

  NA   - Mulliken gross atomic population
  ZA   - Total nuclear charge
  QA   - Mulliken gross atomic charge
  VA   - Mayer's total valence
  BVA  - Mayer's bonded valence
  FA   - Mayer's free valence

  ATOM       NA         ZA         QA         VA         BVA        FA
  0 O      8.2214     8.0000    -0.2214     2.1023     2.1023     0.0000
  1 C      6.0958     6.0000    -0.0958     3.9589     3.9589     0.0000
  2 C      6.0620     6.0000    -0.0620     4.0270     4.0270     0.0000
  3 H      0.8851     1.0000     0.1149     0.9627     0.9627     0.0000
  4 H      0.8983     1.0000     0.1017     0.9609     0.9609     0.0000
  5 H      0.8911     1.0000     0.1089     0.9489     0.9489     0.0000
  6 H      0.9463     1.0000     0.0537     0.9684     0.9684    -0.0000

  Mayer bond orders larger than 0.100000
B(  0-O ,  1-C ) :   0.9688 B(  0-O ,  2-C ) :   1.0665 B(  1-C ,  2-C ) :   1.0713 
B(  1-C ,  3-H ) :   0.9464 B(  1-C ,  4-H ) :   0.9534 B(  2-C ,  5-H ) :   0.9461 
B(  2-C ,  6-H ) :   0.9293 

-------
TIMINGS
-------

Total SCF time: 0 days 0 hours 0 min 2 sec 

Total time                  ....       2.604 sec
Sum of individual times     ....       2.406 sec  ( 92.4%)

Fock matrix formation       ....       2.139 sec  ( 82.1%)
  Split-RI-J                ....       0.230 sec  ( 10.8% of F)
  Chain of spheres X        ....       1.441 sec  ( 67.4% of F)
  XC integration            ....       0.403 sec  ( 18.8% of F)
    Basis function eval.    ....       0.106 sec  ( 26.2% of XC)
    Density eval.           ....       0.080 sec  ( 19.9% of XC)
    XC-Functional eval.     ....       0.022 sec  (  5.5% of XC)
    XC-Potential eval.      ....       0.139 sec  ( 34.5% of XC)
Diagonalization             ....       0.016 sec  (  0.6%)
Density matrix formation    ....       0.001 sec  (  0.1%)
Population analysis         ....       0.004 sec  (  0.2%)
Initial guess               ....       0.017 sec  (  0.7%)
Orbital Transformation      ....       0.000 sec  (  0.0%)
Orbital Orthonormalization  ....       0.000 sec  (  0.0%)
DIIS solution               ....       0.013 sec  (  0.5%)
SOSCF solution              ....       0.011 sec  (  0.4%)
Grid generation             ....       0.205 sec  (  7.9%)

Maximum memory used throughout the entire SCF-calculation: 61.1 MB


-------------------------------------------------------------------------------
                          DFT DISPERSION CORRECTION                            
                                                                               
                              DFTD3 V3.1  Rev 1                                
                          USING Becke-Johnson damping                          
-------------------------------------------------------------------------------
The PBE0 functional is recognized
Active option DFTDOPT                   ...         4   

molecular C6(AA) [au] = 352.714027 


            DFT-D V3
 parameters
 s6 scaling factor         :     1.0000 
 a1 scaling factor         :     0.4145 
 s8 scaling factor         :     1.2177 
 a2 scaling factor         :     4.8593 
 ad hoc parameters k1-k3   :    16.0000     1.3333    -4.0000 

 Edisp/kcal,au: -1.512770860490  -0.002410753561 
 E6   /kcal   :  -0.991745875 
 E8   /kcal   :  -0.521024985 
 % E8         :  34.441765037 

-------------------------   ----------------
Dispersion correction           -0.002410754
-------------------------   ----------------


-------------------------   --------------------
FINAL SINGLE POINT ENERGY      -153.617176573878
-------------------------   --------------------



           ************************************************************
           *        Program running with 8 parallel MPI-processes     *
           *              working on a common directory               *
           ************************************************************
------------------------------------------------------------------------------
                         ORCA SCF GRADIENT CALCULATION
------------------------------------------------------------------------------

 ... reading COSX grid (gridx3)
Gradient of the Kohn-Sham DFT energy:
Kohn-Sham wavefunction type      ... RKS
Hartree-Fock exchange scaling    ...    0.250
Number of operators              ...    1
Number of atoms                  ...    7
Basis set dimensions             ...  117
Integral neglect threshold       ... 2.5e-11
Integral primitive cutoff        ... 2.5e-12
SHARK Integral package           ... ON

Nuc. rep. gradient       (SHARK) ... done (  0.0 sec)
HCore & Overlap gradient (SHARK) ... done (  0.0 sec)
RI-J gradient            (SHARK) ... done (  0.1 sec)
COSX-gradient                    ... done (  0.3 sec)
Exchange-correlation gradient    ... done
Dispersion correction            ... done

------------------
CARTESIAN GRADIENT
------------------

   1   O   :    0.050341022   -0.223503684    0.007701396
   2   C   :    0.109763112    0.087821033   -0.004180384
   3   C   :   -0.120870187    0.170483918   -0.105532866
   4   H   :   -0.031404333   -0.013776167    0.015307140
   5   H   :   -0.014224250   -0.010792303   -0.006627665
   6   H   :   -0.019896257    0.003801690    0.038343334
   7   H   :    0.026202759   -0.014243079    0.054968981

Difference to translation invariance:
           :   -0.0000881349   -0.0002085911   -0.0000200651

Difference to rotation invariance:
           :   -0.0000114704   -0.0000070654   -0.0000346309

Norm of the cartesian gradient     ...    0.3670170945
RMS gradient                       ...    0.0800896960
MAX gradient                       ...    0.2235036839

-------
TIMINGS
-------

Total SCF gradient time            ...        0.702 sec

One electron gradient       ....       0.010 sec  (  1.4%)
RI-J Coulomb gradient       ....       0.078 sec  ( 11.1%)
COSX gradient               ....       0.313 sec  ( 44.6%)
XC gradient                 ....       0.159 sec  ( 22.6%)

Maximum memory used throughout the entire SCFGRAD-calculation: 35.9 MB

                            ***************************************
                            *     ORCA property calculations      *
                            ***************************************

                                    ---------------------
                                    Active property flags
                                    ---------------------
   (+) Dipole Moment


------------------------------------------------------------------------------
                       ORCA ELECTRIC PROPERTIES CALCULATION
------------------------------------------------------------------------------

Dipole Moment Calculation                       ... on
Quadrupole Moment Calculation                   ... off
Polarizability Calculation                      ... off
GBWName                                         ... ox_gs_A_orca0044.gbw
Electron density                                ... ox_gs_A_orca0044.scfp
The origin for moment calculation is the CENTER OF MASS  = ( 0.029647, -0.013855 -0.052856)

-------------
DIPOLE MOMENT
-------------
                                X             Y             Z
Electronic contribution:      0.09599       2.05486      -0.33941
Nuclear contribution   :     -0.20523      -2.48083       0.22040
                        -----------------------------------------
Total Dipole Moment    :     -0.10924      -0.42597      -0.11901
                        -----------------------------------------
Magnitude (a.u.)       :      0.45557
Magnitude (Debye)      :      1.15796



--------------------
Rotational spectrum 
--------------------
 
Rotational constants in cm-1:     1.055963     0.750395     0.535550 
Rotational constants in MHz : 31656.973225 22496.279804 16055.371192 

 Dipole components along the rotational axes: 
x,y,z [a.u.] :    -0.156880     0.409724    -0.122710 
x,y,z [Debye]:    -0.398756     1.041436    -0.311904 

 

Timings for individual modules:

Sum of individual times         ...        4.107 sec (=   0.068 min)
GTO integral calculation        ...        0.379 sec (=   0.006 min)   9.2 %
SCF iterations                  ...        2.804 sec (=   0.047 min)  68.3 %
SCF Gradient evaluation         ...        0.924 sec (=   0.015 min)  22.5 %
                             ****ORCA TERMINATED NORMALLY****
TOTAL RUN TIME: 0 days 0 hours 0 minutes 4 seconds 421 msec
