
                                 *****************
                                 * O   R   C   A *
                                 *****************

                                            #,                                       
                                            ###                                      
                                            ####                                     
                                            #####                                    
                                            ######                                   
                                           ########,                                 
                                     ,,################,,,,,                         
                               ,,#################################,,                 
                          ,,##########################################,,             
                       ,#########################################, ''#####,          
                    ,#############################################,,   '####,        
                  ,##################################################,,,,####,       
                ,###########''''           ''''###############################       
              ,#####''   ,,,,##########,,,,          '''####'''          '####       
            ,##' ,,,,###########################,,,                        '##       
           ' ,,###''''                  '''############,,,                           
         ,,##''                                '''############,,,,        ,,,,,,###''
      ,#''                                            '''#######################'''  
     '                                                          ''''####''''         
             ,#######,   #######,   ,#######,      ##                                
            ,#'     '#,  ##    ##  ,#'     '#,    #''#        ######   ,####,        
            ##       ##  ##   ,#'  ##            #'  '#       #        #'  '#        
            ##       ##  #######   ##           ,######,      #####,   #    #        
            '#,     ,#'  ##    ##  '#,     ,#' ,#      #,         ##   #,  ,#        
             '#######'   ##     ##  '#######'  #'      '#     #####' # '####'        



                  #######################################################
                  #                        -***-                        #
                  #          Department of theory and spectroscopy      #
                  #    Directorship and core code : Frank Neese         #
                  #        Max Planck Institute fuer Kohlenforschung    #
                  #                Kaiser Wilhelm Platz 1               #
                  #                 D-45470 Muelheim/Ruhr               #
                  #                      Germany                        #
                  #                                                     #
                  #                  All rights reserved                #
                  #                        -***-                        #
                  #######################################################


                         Program Version 5.0.2 -  RELEASE  -


 With contributions from (in alphabetic order):
   Daniel Aravena         : Magnetic Suceptibility
   Michael Atanasov       : Ab Initio Ligand Field Theory (pilot matlab implementation)
   Alexander A. Auer      : GIAO ZORA, VPT2 properties, NMR spectrum
   Ute Becker             : Parallelization
   Giovanni Bistoni       : ED, misc. LED, open-shell LED, HFLD
   Martin Brehm           : Molecular dynamics
   Dmytro Bykov           : SCF Hessian
   Vijay G. Chilkuri      : MRCI spin determinant printing, contributions to CSF-ICE
   Dipayan Datta          : RHF DLPNO-CCSD density
   Achintya Kumar Dutta   : EOM-CC, STEOM-CC
   Dmitry Ganyushin       : Spin-Orbit,Spin-Spin,Magnetic field MRCI
   Miquel Garcia          : C-PCM and meta-GGA Hessian, CC/C-PCM, Gaussian charge scheme
   Yang Guo               : DLPNO-NEVPT2, F12-NEVPT2, CIM, IAO-localization
   Andreas Hansen         : Spin unrestricted coupled pair/coupled cluster methods
   Benjamin Helmich-Paris : MC-RPA, TRAH-SCF, COSX integrals
   Lee Huntington         : MR-EOM, pCC
   Robert Izsak           : Overlap fitted RIJCOSX, COSX-SCS-MP3, EOM
   Marcus Kettner         : VPT2
   Christian Kollmar      : KDIIS, OOCD, Brueckner-CCSD(T), CCSD density, CASPT2, CASPT2-K
   Simone Kossmann        : Meta GGA functionals, TD-DFT gradient, OOMP2, MP2 Hessian
   Martin Krupicka        : Initial AUTO-CI
   Lucas Lang             : DCDCAS
   Marvin Lechner         : AUTO-CI (C++ implementation), FIC-MRCC
   Dagmar Lenk            : GEPOL surface, SMD
   Dimitrios Liakos       : Extrapolation schemes; Compound Job, initial MDCI parallelization
   Dimitrios Manganas     : Further ROCIS development; embedding schemes
   Dimitrios Pantazis     : SARC Basis sets
   Anastasios Papadopoulos: AUTO-CI, single reference methods and gradients
   Taras Petrenko         : DFT Hessian,TD-DFT gradient, ASA, ECA, R-Raman, ABS, FL, XAS/XES, NRVS
   Peter Pinski           : DLPNO-MP2, DLPNO-MP2 Gradient
   Christoph Reimann      : Effective Core Potentials
   Marius Retegan         : Local ZFS, SOC
   Christoph Riplinger    : Optimizer, TS searches, QM/MM, DLPNO-CCSD(T), (RO)-DLPNO pert. Triples
   Tobias Risthaus        : Range-separated hybrids, TD-DFT gradient, RPA, STAB
   Michael Roemelt        : Original ROCIS implementation
   Masaaki Saitow         : Open-shell DLPNO-CCSD energy and density
   Barbara Sandhoefer     : DKH picture change effects
   Avijit Sen             : IP-ROCIS
   Kantharuban Sivalingam : CASSCF convergence, NEVPT2, FIC-MRCI
   Bernardo de Souza      : ESD, SOC TD-DFT
   Georgi Stoychev        : AutoAux, RI-MP2 NMR, DLPNO-MP2 response
   Willem Van den Heuvel  : Paramagnetic NMR
   Boris Wezisla          : Elementary symmetry handling
   Frank Wennmohs         : Technical directorship


 We gratefully acknowledge several colleagues who have allowed us to
 interface, adapt or use parts of their codes:
   Stefan Grimme, W. Hujo, H. Kruse, P. Pracht,  : VdW corrections, initial TS optimization,
                  C. Bannwarth, S. Ehlert          DFT functionals, gCP, sTDA/sTD-DF
   Ed Valeev, F. Pavosevic, A. Kumar             : LibInt (2-el integral package), F12 methods
   Garnet Chan, S. Sharma, J. Yang, R. Olivares  : DMRG
   Ulf Ekstrom                                   : XCFun DFT Library
   Mihaly Kallay                                 : mrcc  (arbitrary order and MRCC methods)
   Jiri Pittner, Ondrej Demel                    : Mk-CCSD
   Frank Weinhold                                : gennbo (NPA and NBO analysis)
   Christopher J. Cramer and Donald G. Truhlar   : smd solvation model
   Lars Goerigk                                  : TD-DFT with DH, B97 family of functionals
   V. Asgeirsson, H. Jonsson                     : NEB implementation
   FAccTs GmbH                                   : IRC, NEB, NEB-TS, DLPNO-Multilevel, CI-OPT
                                                   MM, QMMM, 2- and 3-layer-ONIOM, Crystal-QMMM,
                                                   LR-CPCM, SF, NACMEs, symmetry and pop. for TD-DFT,
                                                   nearIR, NL-DFT gradient (VV10), updates on ESD,
                                                   ML-optimized integration grids
   S Lehtola, MJT Oliveira, MAL Marques          : LibXC Library
   Liviu Ungur et al                             : ANISO software


 Your calculation uses the libint2 library for the computation of 2-el integrals
 For citations please refer to: http://libint.valeyev.net

 Your ORCA version has been built with support for libXC version: 5.1.0
 For citations please refer to: https://tddft.org/programs/libxc/

 This ORCA versions uses:
   CBLAS   interface :  Fast vector & matrix operations
   LAPACKE interface :  Fast linear algebra routines
   SCALAPACK package :  Parallel linear algebra routines
   Shared memory     :  Shared parallel matrices
   BLAS/LAPACK       :  OpenBLAS 0.3.15  USE64BITINT DYNAMIC_ARCH NO_AFFINITY SkylakeX SINGLE_THREADED
        Core in use  :  SkylakeX
   Copyright (c) 2011-2014, The OpenBLAS Project


Your calculation utilizes the atom-pairwise dispersion correction
with the Becke-Johnson damping scheme (D3BJ)
Cite in your paper:
S.Grimme, S.Ehrlich, L.Goerigk, J Comput Chem, (2011), 32, 1456–1465 
S.Grimme, J.Antony, S.Ehrlich and H.Krieg, J.Chem.Phys., 132, (2010), 154104 
   

================================================================================

----- Orbital basis set information -----
Your calculation utilizes the basis: def2-TZVP
   F. Weigend and R. Ahlrichs, Phys. Chem. Chem. Phys. 7, 3297 (2005).

----- AuxJ basis set information -----
Your calculation utilizes the auxiliary basis: def2/J
   F. Weigend, Phys. Chem. Chem. Phys. 8, 1057 (2006).

================================================================================
                                        WARNINGS
                       Please study these warnings very carefully!
================================================================================


INFO   : the flag for use of the SHARK integral package has been found!

================================================================================
                                       INPUT FILE
================================================================================
NAME = ox_gs_F_orca0005.inp
|  1> ! engrad PBE0 D3BJ def2-TZVP  
|  2> %pal nprocs 8 end
|  3> %maxcore 3000
|  4>  
|  5> *xyz 0 1 
|  6> O   -1.20123234341973 0.9802720367824272 0.02460766694331525
|  7> C   -0.7932159336456057 -0.4950504109140164 0.04914012689307475
|  8> C   0.7104046057413897 -0.3708279639245721 -0.02198802292152841
|  9> H   -1.2763986536948981 -0.6538228363592806 0.8951614031956934
| 10> H   -1.303249881738057 -0.6693044592415459 -0.9210652661247685
| 11> H   1.3105877459406328 -0.697298731735575 -0.9599908291955497
| 12> H   1.250836793625163 -0.6990535153036572 0.8518453040452141
| 13> *
| 14> 
| 15>                          ****END OF INPUT****
================================================================================

                     *******************************
                     * Energy+Gradient Calculation *
                     *******************************

---------------------------------
CARTESIAN COORDINATES (ANGSTROEM)
---------------------------------
  O     -1.201232    0.980272    0.024608
  C     -0.793216   -0.495050    0.049140
  C      0.710405   -0.370828   -0.021988
  H     -1.276399   -0.653823    0.895161
  H     -1.303250   -0.669304   -0.921065
  H      1.310588   -0.697299   -0.959991
  H      1.250837   -0.699054    0.851845

----------------------------
CARTESIAN COORDINATES (A.U.)
----------------------------
  NO LB      ZA    FRAG     MASS         X           Y           Z
   0 O     8.0000    0    15.999   -2.270000    1.852446    0.046502
   1 C     6.0000    0    12.011   -1.498961   -0.935510    0.092861
   2 C     6.0000    0    12.011    1.342470   -0.700763   -0.041551
   3 H     1.0000    0     1.008   -2.412044   -1.235546    1.691610
   4 H     1.0000    0     1.008   -2.462785   -1.264802   -1.740561
   5 H     1.0000    0     1.008    2.476652   -1.317704   -1.814120
   6 H     1.0000    0     1.008    2.363739   -1.321020    1.609754

--------------------------------
INTERNAL COORDINATES (ANGSTROEM)
--------------------------------
 O      0   0   0     0.000000000000     0.00000000     0.00000000
 C      1   0   0     1.530900243946     0.00000000     0.00000000
 C      2   1   0     1.510418867897   100.67911367     0.00000000
 H      2   1   3     0.987130297374    92.19383240   123.91951045
 H      2   1   3     1.109863778221    90.84904119   243.91957427
 H      3   2   1     1.160453458176   121.99167801   249.06219558
 H      3   2   1     1.078602635634   115.82440311   113.94908766

---------------------------
INTERNAL COORDINATES (A.U.)
---------------------------
 O      0   0   0     0.000000000000     0.00000000     0.00000000
 C      1   0   0     2.892982199411     0.00000000     0.00000000
 C      2   1   0     2.854278007832   100.67911367     0.00000000
 H      2   1   3     1.865405920532    92.19383240   123.91951045
 H      2   1   3     2.097338586796    90.84904119   243.91957427
 H      3   2   1     2.192939227114   121.99167801   249.06219558
 H      3   2   1     2.038263588674   115.82440311   113.94908766

---------------------
BASIS SET INFORMATION
---------------------
There are 3 groups of distinct atoms

 Group   1 Type O   : 11s6p2d1f contracted to 5s3p2d1f pattern {62111/411/11/1}
 Group   2 Type C   : 11s6p2d1f contracted to 5s3p2d1f pattern {62111/411/11/1}
 Group   3 Type H   : 5s1p contracted to 3s1p pattern {311/1}

Atom   0O    basis set group =>   1
Atom   1C    basis set group =>   2
Atom   2C    basis set group =>   2
Atom   3H    basis set group =>   3
Atom   4H    basis set group =>   3
Atom   5H    basis set group =>   3
Atom   6H    basis set group =>   3
---------------------------------
AUXILIARY/J BASIS SET INFORMATION
---------------------------------
There are 3 groups of distinct atoms

 Group   1 Type O   : 12s5p4d2f1g contracted to 6s4p3d1f1g pattern {711111/2111/211/2/1}
 Group   2 Type C   : 12s5p4d2f1g contracted to 6s4p3d1f1g pattern {711111/2111/211/2/1}
 Group   3 Type H   : 5s2p1d contracted to 3s1p1d pattern {311/2/1}

Atom   0O    basis set group =>   1
Atom   1C    basis set group =>   2
Atom   2C    basis set group =>   2
Atom   3H    basis set group =>   3
Atom   4H    basis set group =>   3
Atom   5H    basis set group =>   3
Atom   6H    basis set group =>   3


           ************************************************************
           *        Program running with 8 parallel MPI-processes     *
           *              working on a common directory               *
           ************************************************************
------------------------------------------------------------------------------
                           ORCA GTO INTEGRAL CALCULATION
                           -- RI-GTO INTEGRALS CHOSEN --
------------------------------------------------------------------------------
------------------------------------------------------------------------------
                   ___                                                        
                  /   \      - P O W E R E D   B Y -                         
                 /     \                                                     
                 |  |  |   _    _      __       _____    __    __             
                 |  |  |  | |  | |    /  \     |  _  \  |  |  /  |          
                  \  \/   | |  | |   /    \    | | | |  |  | /  /          
                 / \  \   | |__| |  /  /\  \   | |_| |  |  |/  /          
                |  |  |   |  __  | /  /__\  \  |    /   |      \           
                |  |  |   | |  | | |   __   |  |    \   |  |\   \          
                \     /   | |  | | |  |  |  |  | |\  \  |  | \   \       
                 \___/    |_|  |_| |__|  |__|  |_| \__\ |__|  \__/        
                                                                              
                      - O R C A' S   B I G   F R I E N D -                    
                                      &                                       
                       - I N T E G R A L  F E E D E R -                       
                                                                              
 v1 FN, 2020, v2 2021                                                         
------------------------------------------------------------------------------


Reading SHARK input file ox_gs_F_orca0005.SHARKINP.tmp ... ok
----------------------
SHARK INTEGRAL PACKAGE
----------------------

Number of atoms                             ...      7
Number of basis functions                   ...    117
Number of shells                            ...     49
Maximum angular momentum                    ...      3
Integral batch strategy                     ... SHARK/LIBINT Hybrid
RI-J (if used) integral strategy            ... SPLIT-RIJ (Revised 2003 algorithm where possible)
Printlevel                                  ...      1
Contraction scheme used                     ... SEGMENTED contraction
Coulomb Range Separation                    ... NOT USED
Exchange Range Separation                   ... NOT USED
Finite Nucleus Model                        ... NOT USED
Auxiliary Coulomb fitting basis             ... AVAILABLE
   # of basis functions in Aux-J            ...    191
   # of shells in Aux-J                     ...     65
   Maximum angular momentum in Aux-J        ...      4
Auxiliary J/K fitting basis                 ... NOT available
Auxiliary Correlation fitting basis         ... NOT available
Auxiliary 'external' fitting basis          ... NOT available
Integral threshold                          ...     2.500000e-11
Primitive cut-off                           ...     2.500000e-12
Primitive pair pre-selection threshold      ...     2.500000e-12

Calculating pre-screening integrals         ... done (  0.0 sec) Dimension = 49
Organizing shell pair data                  ... done (  0.0 sec)
Shell pair information
Total number of shell pairs                 ...      1225
Shell pairs after pre-screening             ...      1212
Total number of primitive shell pairs       ...      3648
Primitive shell pairs kept                  ...      3062
          la=0 lb=0:    367 shell pairs
          la=1 lb=0:    350 shell pairs
          la=1 lb=1:     91 shell pairs
          la=2 lb=0:    161 shell pairs
          la=2 lb=1:     78 shell pairs
          la=2 lb=2:     21 shell pairs
          la=3 lb=0:     81 shell pairs
          la=3 lb=1:     39 shell pairs
          la=3 lb=2:     18 shell pairs
          la=3 lb=3:      6 shell pairs

Calculating one electron integrals          ... done (  0.0 sec)
Calculating RI/J V-Matrix + Cholesky decomp.... done (  0.0 sec)
Calculating Nuclear repulsion               ... done (  0.0 sec) ENN=     66.015108675132 Eh

SHARK setup successfully completed in   0.1 seconds

Maximum memory used throughout the entire GTOINT-calculation: 14.9 MB


           ************************************************************
           *        Program running with 8 parallel MPI-processes     *
           *              working on a common directory               *
           ************************************************************
-------------------------------------------------------------------------------
                                 ORCA SCF
-------------------------------------------------------------------------------

------------
SCF SETTINGS
------------
Hamiltonian:
 Density Functional     Method          .... DFT(GTOs)
 Exchange Functional    Exchange        .... PBE
   PBE kappa parameter   XKappa         ....  0.804000
   PBE mue parameter    XMuePBE         ....  0.219520
 Correlation Functional Correlation     .... PBE
   PBE beta parameter  CBetaPBE         ....  0.066725
 LDA part of GGA corr.  LDAOpt          .... PW91-LDA
 Gradients option       PostSCFGGA      .... off
 Hybrid DFT is turned on
   Fraction HF Exchange ScalHFX         ....  0.250000
   Scaling of DF-GGA-X  ScalDFX         ....  0.750000
   Scaling of DF-GGA-C  ScalDFC         ....  1.000000
   Scaling of DF-LDA-C  ScalLDAC        ....  1.000000
   Perturbative correction              ....  0.000000
   Density functional embedding theory  .... OFF
   NL short-range parameter             ....  6.900000
 RI-approximation to the Coulomb term is turned on
   Number of AuxJ basis functions       .... 191
   RIJ-COSX (HFX calculated with COS-X)).... on


General Settings:
 Integral files         IntName         .... ox_gs_F_orca0005
 Hartree-Fock type      HFTyp           .... RHF
 Total Charge           Charge          ....    0
 Multiplicity           Mult            ....    1
 Number of Electrons    NEL             ....   24
 Basis Dimension        Dim             ....  117
 Nuclear Repulsion      ENuc            ....     66.0151086751 Eh

Convergence Acceleration:
 DIIS                   CNVDIIS         .... on
   Start iteration      DIISMaxIt       ....    12
   Startup error        DIISStart       ....  0.200000
   # of expansion vecs  DIISMaxEq       ....     5
   Bias factor          DIISBfac        ....   1.050
   Max. coefficient     DIISMaxC        ....  10.000
 Trust-Rad. Augm. Hess. CNVTRAH         .... auto
   Auto Start mean grad. ratio tolernc. ....  1.125000
   Auto Start start iteration           ....    20
   Auto Start num. interpolation iter.  ....    10
   Max. Number of Micro iterations      ....    16
   Max. Number of Macro iterations      .... Maxiter - #DIIS iter
   Number of Davidson start vectors     ....     2
   Converg. threshold I  (grad. norm)   ....   1.000e-05
   Converg. threshold II (energy diff.) ....   1.000e-08
   Grad. Scal. Fac. for Micro threshold ....   0.100
   Minimum threshold for Micro iter.    ....   0.010
   NR start threshold (gradient norm)   ....   0.001
   Initial trust radius                 ....   0.400
   Minimum AH scaling param. (alpha)    ....   1.000
   Maximum AH scaling param. (alpha)    .... 1000.000
   Orbital update algorithm             .... Taylor
   White noise on init. David. guess    .... on
   Maximum white noise                  ....   0.010
   Quad. conv. algorithm                .... NR
 SOSCF                  CNVSOSCF        .... on
   Start iteration      SOSCFMaxIt      ....   150
   Startup grad/error   SOSCFStart      ....  0.003300
 Level Shifting         CNVShift        .... on
   Level shift para.    LevelShift      ....    0.2500
   Turn off err/grad.   ShiftErr        ....    0.0010
 Zerner damping         CNVZerner       .... off
 Static damping         CNVDamp         .... on
   Fraction old density DampFac         ....    0.7000
   Max. Damping (<1)    DampMax         ....    0.9800
   Min. Damping (>=0)   DampMin         ....    0.0000
   Turn off err/grad.   DampErr         ....    0.1000
 Fernandez-Rico         CNVRico         .... off

SCF Procedure:
 Maximum # iterations   MaxIter         ....   125
 SCF integral mode      SCFMode         .... Direct
   Integral package                     .... SHARK and LIBINT hybrid scheme
 Reset frequency        DirectResetFreq ....    20
 Integral Threshold     Thresh          ....  2.500e-11 Eh
 Primitive CutOff       TCut            ....  2.500e-12 Eh

Convergence Tolerance:
 Convergence Check Mode ConvCheckMode   .... Total+1el-Energy
 Convergence forced     ConvForced      .... 0
 Energy Change          TolE            ....  1.000e-08 Eh
 1-El. energy change                    ....  1.000e-05 Eh
 Orbital Gradient       TolG            ....  1.000e-05
 Orbital Rotation angle TolX            ....  1.000e-05
 DIIS Error             TolErr          ....  5.000e-07


Diagonalization of the overlap matrix:
Smallest eigenvalue                        ... 6.331e-04
Time for diagonalization                   ...    0.001 sec
Threshold for overlap eigenvalues          ... 1.000e-08
Number of eigenvalues below threshold      ... 0
Time for construction of square roots      ...    0.001 sec
Total time needed                          ...    0.003 sec

Time for model grid setup =    0.022 sec

------------------------------
INITIAL GUESS: MODEL POTENTIAL
------------------------------
Loading Hartree-Fock densities                     ... done
Calculating cut-offs                               ... done
Initializing the effective Hamiltonian             ... done
Setting up the integral package (SHARK)            ... done
Starting the Coulomb interaction                   ... done (   0.0 sec)
Reading the grid                                   ... done
Mapping shells                                     ... done
Starting the XC term evaluation                    ... done (   0.0 sec)
  promolecular density results
     # of electrons  =     23.997188879
     EX              =    -19.420548842
     EC              =     -0.759390354
     EX+EC           =    -20.179939196
Transforming the Hamiltonian                       ... done (   0.0 sec)
Diagonalizing the Hamiltonian                      ... done (   0.0 sec)
Back transforming the eigenvectors                 ... done (   0.0 sec)
Now organizing SCF variables                       ... done
                      ------------------
                      INITIAL GUESS DONE (   0.0 sec)
                      ------------------
-------------------
DFT GRID GENERATION
-------------------

General Integration Accuracy     IntAcc      ... 4.388
Radial Grid Type                 RadialGrid  ... OptM3 with GC (2021)
Angular Grid (max. ang.)         AngularGrid ... 4 (Lebedev-302)
Angular grid pruning method      GridPruning ... 4 (adaptive)
Weight generation scheme         WeightScheme... Becke
Basis function cutoff            BFCut       ... 1.0000e-11
Integration weight cutoff        WCut        ... 1.0000e-14
Angular grids for H and He will be reduced by one unit
Partially contracted basis set               ... off
Rotationally invariant grid construction     ... off

Total number of grid points                  ...    31344
Total number of batches                      ...      493
Average number of points per batch           ...       63
Average number of grid points per atom       ...     4478
Time for grid setup =    0.109 sec

--------------------
COSX GRID GENERATION
--------------------

GRIDX 1
-------
General Integration Accuracy     IntAcc      ... 3.816
Radial Grid Type                 RadialGrid  ... OptM3 with GC (2021)
Angular Grid (max. ang.)         AngularGrid ... 1 (Lebedev-50)
Angular grid pruning method      GridPruning ... 4 (adaptive)
Weight generation scheme         WeightScheme... Becke
Basis function cutoff            BFCut       ... 1.0000e-11
Integration weight cutoff        WCut        ... 1.0000e-14
Angular grids for H and He will be reduced by one unit
Partially contracted basis set               ... on
Rotationally invariant grid construction     ... off

Total number of grid points                  ...     4043
Total number of batches                      ...       67
Average number of points per batch           ...       60
Average number of grid points per atom       ...      578
UseSFitting                                  ... on

GRIDX 2
-------
General Integration Accuracy     IntAcc      ... 4.020
Radial Grid Type                 RadialGrid  ... OptM3 with GC (2021)
Angular Grid (max. ang.)         AngularGrid ... 2 (Lebedev-110)
Angular grid pruning method      GridPruning ... 4 (adaptive)
Weight generation scheme         WeightScheme... Becke
Basis function cutoff            BFCut       ... 1.0000e-11
Integration weight cutoff        WCut        ... 1.0000e-14
Angular grids for H and He will be reduced by one unit
Partially contracted basis set               ... on
Rotationally invariant grid construction     ... off

Total number of grid points                  ...     8745
Total number of batches                      ...      140
Average number of points per batch           ...       62
Average number of grid points per atom       ...     1249
UseSFitting                                  ... on

GRIDX 3
-------
General Integration Accuracy     IntAcc      ... 4.338
Radial Grid Type                 RadialGrid  ... OptM3 with GC (2021)
Angular Grid (max. ang.)         AngularGrid ... 3 (Lebedev-194)
Angular grid pruning method      GridPruning ... 4 (adaptive)
Weight generation scheme         WeightScheme... Becke
Basis function cutoff            BFCut       ... 1.0000e-11
Integration weight cutoff        WCut        ... 1.0000e-14
Angular grids for H and He will be reduced by one unit
Partially contracted basis set               ... on
Rotationally invariant grid construction     ... off

Total number of grid points                  ...    19293
Total number of batches                      ...      306
Average number of points per batch           ...       63
Average number of grid points per atom       ...     2756
UseSFitting                                  ... on

Time for X-Grid setup             =    0.072 sec

--------------
SCF ITERATIONS
--------------
ITER       Energy         Delta-E        Max-DP      RMS-DP      [F,P]     Damp
               ***  Starting incremental Fock matrix formation  ***
  0   -153.2725784943   0.000000000000 0.11313616  0.00330085  0.3678459 0.7000
  1   -153.3996996815  -0.127121187226 0.06659960  0.00161236  0.0752373 0.7000
                               ***Turning on DIIS***
  2   -153.4051737577  -0.005474076141 0.01991507  0.00075216  0.1014446 0.7000
  3   -153.4342503051  -0.029076547414 0.04290672  0.00181954  0.0560805 0.0000
  4   -153.4913380852  -0.057087780140 0.01164626  0.00040087  0.0656923 0.0000
  5   -153.4956615316  -0.004323446358 0.00418748  0.00016690  0.0225650 0.0000
  6   -153.4962535666  -0.000592035000 0.00266777  0.00007375  0.0085602 0.0000
                      *** Initiating the SOSCF procedure ***
                           *** Shutting down DIIS ***
                      *** Re-Reading the Fockian *** 
                      *** Removing any level shift *** 
ITER      Energy       Delta-E        Grad      Rot      Max-DP    RMS-DP
  7   -153.49633252  -0.0000789533  0.001063  0.001063  0.000723  0.000038
               *** Restarting incremental Fock matrix formation ***
  8   -153.49634856  -0.0000160351  0.000578  0.004053  0.001280  0.000056
  9   -153.49635969  -0.0000111389  0.000253  0.007201  0.002449  0.000092
 10   -153.49635969   0.0000000046  0.000906  0.005616  0.001722  0.000063
 11   -153.49635764   0.0000020467  0.001083  0.004118  0.001200  0.000060
 12   -153.49636641  -0.0000087686  0.000308  0.001361  0.000429  0.000019
 13   -153.49636773  -0.0000013229  0.000099  0.001027  0.000323  0.000011
 14   -153.49636798  -0.0000002412  0.000041  0.000566  0.000178  0.000006
 15   -153.49636804  -0.0000000651  0.000037  0.000142  0.000046  0.000002
 16   -153.49636806  -0.0000000154  0.000004  0.000045  0.000013  0.000001
                 **** Energy Check signals convergence ****
              ***Rediagonalizing the Fockian in SOSCF/NRSCF***

               *****************************************************
               *                     SUCCESS                       *
               *           SCF CONVERGED AFTER  17 CYCLES          *
               *****************************************************

Old exchange energy                            =     -4.938171999 Eh
New exchange energy                            =     -4.938185420 Eh
Exchange energy change after final integration =     -0.000013421 Eh
Total energy after final integration           =   -153.496381477 Eh
Final COS-X integration done in                =     0.242 sec

----------------
TOTAL SCF ENERGY
----------------

Total Energy       :         -153.49638148 Eh           -4176.84889 eV

Components:
Nuclear Repulsion  :           66.01510868 Eh            1796.36243 eV
Electronic Energy  :         -219.51149015 Eh           -5973.21132 eV
One Electron Energy:         -338.89692004 Eh           -9221.85402 eV
Two Electron Energy:          119.38542989 Eh            3248.64271 eV
Max COSX asymmetry :            0.00000296 Eh               0.00008 eV

Virial components:
Potential Energy   :         -306.12422499 Eh           -8330.06365 eV
Kinetic Energy     :          152.62784351 Eh            4153.21477 eV
Virial Ratio       :            2.00569056


DFT components:
N(Alpha)           :       12.000003871079 electrons
N(Beta)            :       12.000003871079 electrons
N(Total)           :       24.000007742158 electrons
E(X)               :      -14.843355633677 Eh       
E(C)               :       -0.765545263756 Eh       
E(XC)              :      -15.608900897433 Eh       
DFET-embed. en.    :        0.000000000000 Eh       

---------------
SCF CONVERGENCE
---------------

  Last Energy change         ...   -3.9287e-10  Tolerance :   1.0000e-08
  Last MAX-Density change    ...    1.5543e-15  Tolerance :   1.0000e-07
  Last RMS-Density change    ...    2.7308e-17  Tolerance :   5.0000e-09
  Last Orbital Gradient      ...    1.1492e-06  Tolerance :   1.0000e-05
  Last Orbital Rotation      ...    4.5456e-06  Tolerance :   1.0000e-05

             **** THE GBW FILE WAS UPDATED (ox_gs_F_orca0005.gbw) ****
             **** DENSITY ox_gs_F_orca0005.scfp WAS UPDATED ****
             **** ENERGY FILE WAS UPDATED (ox_gs_F_orca0005.en.tmp) ****
             **** THE GBW FILE WAS UPDATED (ox_gs_F_orca0005.gbw) ****
             **** DENSITY ox_gs_F_orca0005.scfp WAS UPDATED ****
----------------
ORBITAL ENERGIES
----------------

  NO   OCC          E(Eh)            E(eV) 
   0   2.0000     -19.200809      -522.4806 
   1   2.0000     -10.331983      -281.1475 
   2   2.0000     -10.270912      -279.4857 
   3   2.0000      -0.960508       -26.1368 
   4   2.0000      -0.770295       -20.9608 
   5   2.0000      -0.637512       -17.3476 
   6   2.0000      -0.515409       -14.0250 
   7   2.0000      -0.472468       -12.8565 
   8   2.0000      -0.424543       -11.5524 
   9   2.0000      -0.377866       -10.2823 
  10   2.0000      -0.268130        -7.2962 
  11   2.0000      -0.257406        -7.0044 
  12   0.0000      -0.162077        -4.4103 
  13   0.0000       0.044744         1.2176 
  14   0.0000       0.079600         2.1660 
  15   0.0000       0.082486         2.2446 
  16   0.0000       0.102142         2.7794 
  17   0.0000       0.148380         4.0376 
  18   0.0000       0.185805         5.0560 
  19   0.0000       0.196803         5.3553 
  20   0.0000       0.227385         6.1875 
  21   0.0000       0.237310         6.4575 
  22   0.0000       0.265327         7.2199 
  23   0.0000       0.308233         8.3874 
  24   0.0000       0.328022         8.9259 
  25   0.0000       0.354641         9.6503 
  26   0.0000       0.398400        10.8410 
  27   0.0000       0.415976        11.3193 
  28   0.0000       0.446043        12.1375 
  29   0.0000       0.467299        12.7159 
  30   0.0000       0.516207        14.0467 
  31   0.0000       0.543041        14.7769 
  32   0.0000       0.555239        15.1088 
  33   0.0000       0.591294        16.0899 
  34   0.0000       0.681987        18.5578 
  35   0.0000       0.700135        19.0517 
  36   0.0000       0.772112        21.0102 
  37   0.0000       0.840376        22.8678 
  38   0.0000       0.888352        24.1733 
  39   0.0000       0.909074        24.7371 
  40   0.0000       0.937081        25.4993 
  41   0.0000       1.020477        27.7686 
  42   0.0000       1.069464        29.1016 
  43   0.0000       1.076142        29.2833 
  44   0.0000       1.152208        31.3532 
  45   0.0000       1.324370        36.0379 
  46   0.0000       1.404061        38.2064 
  47   0.0000       1.435251        39.0552 
  48   0.0000       1.497738        40.7555 
  49   0.0000       1.517835        41.3024 
  50   0.0000       1.568269        42.6748 
  51   0.0000       1.582953        43.0743 
  52   0.0000       1.607522        43.7429 
  53   0.0000       1.649468        44.8843 
  54   0.0000       1.714566        46.6557 
  55   0.0000       1.735398        47.2226 
  56   0.0000       1.799013        48.9536 
  57   0.0000       1.816727        49.4357 
  58   0.0000       1.865308        50.7576 
  59   0.0000       1.909169        51.9511 
  60   0.0000       1.989638        54.1408 
  61   0.0000       2.014514        54.8177 
  62   0.0000       2.110472        57.4289 
  63   0.0000       2.188575        59.5541 
  64   0.0000       2.308940        62.8295 
  65   0.0000       2.317908        63.0735 
  66   0.0000       2.341481        63.7149 
  67   0.0000       2.417356        65.7796 
  68   0.0000       2.456136        66.8349 
  69   0.0000       2.524667        68.6997 
  70   0.0000       2.550562        69.4043 
  71   0.0000       2.595223        70.6196 
  72   0.0000       2.609185        70.9995 
  73   0.0000       2.620956        71.3198 
  74   0.0000       2.734189        74.4011 
  75   0.0000       2.794449        76.0408 
  76   0.0000       2.884323        78.4864 
  77   0.0000       2.945888        80.1617 
  78   0.0000       2.962223        80.6062 
  79   0.0000       2.981333        81.1262 
  80   0.0000       3.063236        83.3549 
  81   0.0000       3.080788        83.8325 
  82   0.0000       3.101925        84.4077 
  83   0.0000       3.118258        84.8521 
  84   0.0000       3.182658        86.6045 
  85   0.0000       3.229372        87.8757 
  86   0.0000       3.281334        89.2896 
  87   0.0000       3.312056        90.1256 
  88   0.0000       3.386933        92.1631 
  89   0.0000       3.409864        92.7871 
  90   0.0000       3.476019        94.5873 
  91   0.0000       3.641099        99.0793 
  92   0.0000       3.708214       100.9056 
  93   0.0000       3.782496       102.9269 
  94   0.0000       3.997369       108.7739 
  95   0.0000       4.088704       111.2593 
  96   0.0000       4.102283       111.6288 
  97   0.0000       4.202807       114.3642 
  98   0.0000       4.358299       118.5953 
  99   0.0000       4.486723       122.0899 
 100   0.0000       4.565581       124.2358 
 101   0.0000       4.711934       128.2182 
 102   0.0000       5.195125       141.3665 
 103   0.0000       5.221724       142.0903 
 104   0.0000       5.320894       144.7889 
 105   0.0000       5.340660       145.3267 
 106   0.0000       5.594616       152.2372 
 107   0.0000       5.616697       152.8381 
 108   0.0000       5.805294       157.9701 
 109   0.0000       6.341356       172.5571 
 110   0.0000       6.350686       172.8110 
 111   0.0000       6.696505       182.2212 
 112   0.0000       6.732033       183.1879 
 113   0.0000       6.994438       190.3283 
 114   0.0000      21.936608       596.9255 
 115   0.0000      22.352663       608.2469 
 116   0.0000      43.682642      1188.6651 

                    ********************************
                    * MULLIKEN POPULATION ANALYSIS *
                    ********************************

-----------------------
MULLIKEN ATOMIC CHARGES
-----------------------
   0 O :   -0.394668
   1 C :   -0.087007
   2 C :   -0.141270
   3 H :    0.145098
   4 H :    0.142371
   5 H :    0.173512
   6 H :    0.161964
Sum of atomic charges:   -0.0000000

--------------------------------
MULLIKEN REDUCED ORBITAL CHARGES
--------------------------------
  0 O s       :     3.928946  s :     3.928946
      pz      :     1.947638  p :     4.447251
      px      :     1.147019
      py      :     1.352594
      dz2     :     0.002521  d :     0.017584
      dxz     :     0.000189
      dyz     :     0.003892
      dx2y2   :     0.006578
      dxy     :     0.004403
      f0      :     0.000103  f :     0.000888
      f+1     :     0.000056
      f-1     :     0.000208
      f+2     :     0.000100
      f-2     :     0.000030
      f+3     :     0.000215
      f-3     :     0.000176
  1 C s       :     3.207798  s :     3.207798
      pz      :     1.086820  p :     2.734730
      px      :     0.893283
      py      :     0.754627
      dz2     :     0.014452  d :     0.136493
      dxz     :     0.018366
      dyz     :     0.034491
      dx2y2   :     0.020684
      dxy     :     0.048499
      f0      :     0.001471  f :     0.007986
      f+1     :     0.001254
      f-1     :     0.000510
      f+2     :     0.001826
      f-2     :     0.000409
      f+3     :     0.002234
      f-3     :     0.000282
  2 C s       :     3.302598  s :     3.302598
      pz      :     1.052927  p :     2.789068
      px      :     1.008405
      py      :     0.727736
      dz2     :     0.003787  d :     0.045812
      dxz     :     0.021820
      dyz     :     0.004161
      dx2y2   :     0.004221
      dxy     :     0.011823
      f0      :     0.000337  f :     0.003792
      f+1     :     0.000917
      f-1     :     0.000135
      f+2     :     0.000592
      f-2     :     0.000249
      f+3     :     0.000623
      f-3     :     0.000939
  3 H s       :     0.829471  s :     0.829471
      pz      :     0.011141  p :     0.025431
      px      :     0.007456
      py      :     0.006835
  4 H s       :     0.836036  s :     0.836036
      pz      :     0.010717  p :     0.021593
      px      :     0.005835
      py      :     0.005041
  5 H s       :     0.806187  s :     0.806187
      pz      :     0.009626  p :     0.020301
      px      :     0.006512
      py      :     0.004162
  6 H s       :     0.814833  s :     0.814833
      pz      :     0.010521  p :     0.023203
      px      :     0.007467
      py      :     0.005215


                     *******************************
                     * LOEWDIN POPULATION ANALYSIS *
                     *******************************

----------------------
LOEWDIN ATOMIC CHARGES
----------------------
   0 O :   -0.135100
   1 C :   -0.356278
   2 C :   -0.020990
   3 H :    0.096821
   4 H :    0.137601
   5 H :    0.151913
   6 H :    0.126033

-------------------------------
LOEWDIN REDUCED ORBITAL CHARGES
-------------------------------
  0 O s       :     3.651281  s :     3.651281
      pz      :     1.891402  p :     4.441745
      px      :     1.118196
      py      :     1.432147
      dz2     :     0.005360  d :     0.039773
      dxz     :     0.000357
      dyz     :     0.010001
      dx2y2   :     0.014264
      dxy     :     0.009792
      f0      :     0.000234  f :     0.002301
      f+1     :     0.000079
      f-1     :     0.000389
      f+2     :     0.000374
      f-2     :     0.000079
      f+3     :     0.000577
      f-3     :     0.000568
  1 C s       :     2.845699  s :     2.845699
      pz      :     1.084022  p :     2.960858
      px      :     1.031524
      py      :     0.845312
      dz2     :     0.071890  d :     0.497576
      dxz     :     0.087385
      dyz     :     0.087373
      dx2y2   :     0.105668
      dxy     :     0.145260
      f0      :     0.008193  f :     0.052145
      f+1     :     0.006356
      f-1     :     0.005150
      f+2     :     0.009418
      f-2     :     0.002902
      f+3     :     0.015816
      f-3     :     0.004310
  2 C s       :     2.938787  s :     2.938787
      pz      :     1.088003  p :     2.861977
      px      :     1.107797
      py      :     0.666177
      dz2     :     0.024100  d :     0.200463
      dxz     :     0.097672
      dyz     :     0.012599
      dx2y2   :     0.031468
      dxy     :     0.034625
      f0      :     0.002241  f :     0.019762
      f+1     :     0.002697
      f-1     :     0.001145
      f+2     :     0.003264
      f-2     :     0.002626
      f+3     :     0.003532
      f-3     :     0.004257
  3 H s       :     0.820240  s :     0.820240
      pz      :     0.038149  p :     0.082939
      px      :     0.023981
      py      :     0.020810
  4 H s       :     0.802217  s :     0.802217
      pz      :     0.031011  p :     0.060182
      px      :     0.015807
      py      :     0.013364
  5 H s       :     0.791608  s :     0.791608
      pz      :     0.028565  p :     0.056479
      px      :     0.016594
      py      :     0.011321
  6 H s       :     0.804961  s :     0.804961
      pz      :     0.033309  p :     0.069006
      px      :     0.020594
      py      :     0.015104


                      *****************************
                      * MAYER POPULATION ANALYSIS *
                      *****************************

  NA   - Mulliken gross atomic population
  ZA   - Total nuclear charge
  QA   - Mulliken gross atomic charge
  VA   - Mayer's total valence
  BVA  - Mayer's bonded valence
  FA   - Mayer's free valence

  ATOM       NA         ZA         QA         VA         BVA        FA
  0 O      8.3947     8.0000    -0.3947     1.7243     1.7243    -0.0000
  1 C      6.0870     6.0000    -0.0870     3.9801     3.9801    -0.0000
  2 C      6.1413     6.0000    -0.1413     3.7777     3.7777     0.0000
  3 H      0.8549     1.0000     0.1451     0.9891     0.9891    -0.0000
  4 H      0.8576     1.0000     0.1424     0.9783     0.9783    -0.0000
  5 H      0.8265     1.0000     0.1735     0.9579     0.9579    -0.0000
  6 H      0.8380     1.0000     0.1620     0.9592     0.9592     0.0000

  Mayer bond orders larger than 0.100000
B(  0-O ,  1-C ) :   0.9070 B(  0-O ,  2-C ) :   0.8028 B(  1-C ,  2-C ) :   1.1011 
B(  1-C ,  3-H ) :   0.9835 B(  1-C ,  4-H ) :   0.9749 B(  2-C ,  5-H ) :   0.9387 
B(  2-C ,  6-H ) :   0.9455 

-------
TIMINGS
-------

Total SCF time: 0 days 0 hours 0 min 3 sec 

Total time                  ....       3.395 sec
Sum of individual times     ....       3.150 sec  ( 92.8%)

Fock matrix formation       ....       2.871 sec  ( 84.6%)
  Split-RI-J                ....       0.294 sec  ( 10.3% of F)
  Chain of spheres X        ....       1.996 sec  ( 69.5% of F)
  XC integration            ....       0.546 sec  ( 19.0% of F)
    Basis function eval.    ....       0.149 sec  ( 27.4% of XC)
    Density eval.           ....       0.111 sec  ( 20.4% of XC)
    XC-Functional eval.     ....       0.032 sec  (  5.8% of XC)
    XC-Potential eval.      ....       0.181 sec  ( 33.1% of XC)
Diagonalization             ....       0.018 sec  (  0.5%)
Density matrix formation    ....       0.002 sec  (  0.1%)
Population analysis         ....       0.003 sec  (  0.1%)
Initial guess               ....       0.017 sec  (  0.5%)
Orbital Transformation      ....       0.000 sec  (  0.0%)
Orbital Orthonormalization  ....       0.000 sec  (  0.0%)
DIIS solution               ....       0.015 sec  (  0.4%)
SOSCF solution              ....       0.021 sec  (  0.6%)
Grid generation             ....       0.204 sec  (  6.0%)

Maximum memory used throughout the entire SCF-calculation: 61.0 MB


-------------------------------------------------------------------------------
                          DFT DISPERSION CORRECTION                            
                                                                               
                              DFTD3 V3.1  Rev 1                                
                          USING Becke-Johnson damping                          
-------------------------------------------------------------------------------
The PBE0 functional is recognized
Active option DFTDOPT                   ...         4   

molecular C6(AA) [au] = 395.434859 


            DFT-D V3
 parameters
 s6 scaling factor         :     1.0000 
 a1 scaling factor         :     0.4145 
 s8 scaling factor         :     1.2177 
 a2 scaling factor         :     4.8593 
 ad hoc parameters k1-k3   :    16.0000     1.3333    -4.0000 

 Edisp/kcal,au: -1.630355120136  -0.002598135986 
 E6   /kcal   :  -1.063288343 
 E8   /kcal   :  -0.567066777 
 % E8         :  34.781795104 

-------------------------   ----------------
Dispersion correction           -0.002598136
-------------------------   ----------------


-------------------------   --------------------
FINAL SINGLE POINT ENERGY      -153.498979613201
-------------------------   --------------------



           ************************************************************
           *        Program running with 8 parallel MPI-processes     *
           *              working on a common directory               *
           ************************************************************
------------------------------------------------------------------------------
                         ORCA SCF GRADIENT CALCULATION
------------------------------------------------------------------------------

 ... reading COSX grid (gridx3)
Gradient of the Kohn-Sham DFT energy:
Kohn-Sham wavefunction type      ... RKS
Hartree-Fock exchange scaling    ...    0.250
Number of operators              ...    1
Number of atoms                  ...    7
Basis set dimensions             ...  117
Integral neglect threshold       ... 2.5e-11
Integral primitive cutoff        ... 2.5e-12
SHARK Integral package           ... ON

Nuc. rep. gradient       (SHARK) ... done (  0.0 sec)
HCore & Overlap gradient (SHARK) ... done (  0.0 sec)
RI-J gradient            (SHARK) ... done (  0.1 sec)
COSX-gradient                    ... done (  0.3 sec)
Exchange-correlation gradient    ... done
Dispersion correction            ... done

------------------
CARTESIAN GRADIENT
------------------

   1   O   :   -0.070656479    0.005080373   -0.000621992
   2   C   :   -0.025925600   -0.069029281    0.105517526
   3   C   :    0.053681322    0.040206783    0.022906273
   4   H   :    0.028940180    0.050921851   -0.075545055
   5   H   :   -0.012314336    0.032047740   -0.015607195
   6   H   :    0.028915331   -0.034443106   -0.021905204
   7   H   :   -0.002721141   -0.024575941   -0.014741308

Difference to translation invariance:
           :   -0.0000807217    0.0002084191    0.0000030443

Difference to rotation invariance:
           :    0.0000637929    0.0000741822   -0.0002905652

Norm of the cartesian gradient     ...    0.2012547833
RMS gradient                       ...    0.0439173942
MAX gradient                       ...    0.1055175255

-------
TIMINGS
-------

Total SCF gradient time            ...        0.660 sec

One electron gradient       ....       0.010 sec  (  1.4%)
RI-J Coulomb gradient       ....       0.076 sec  ( 11.5%)
COSX gradient               ....       0.291 sec  ( 44.0%)
XC gradient                 ....       0.147 sec  ( 22.2%)

Maximum memory used throughout the entire SCFGRAD-calculation: 35.8 MB

                            ***************************************
                            *     ORCA property calculations      *
                            ***************************************

                                    ---------------------
                                    Active property flags
                                    ---------------------
   (+) Dipole Moment


------------------------------------------------------------------------------
                       ORCA ELECTRIC PROPERTIES CALCULATION
------------------------------------------------------------------------------

Dipole Moment Calculation                       ... on
Quadrupole Moment Calculation                   ... off
Polarizability Calculation                      ... off
GBWName                                         ... ox_gs_F_orca0005.gbw
Electron density                                ... ox_gs_F_orca0005.scfp
The origin for moment calculation is the CENTER OF MASS  = (-0.867865,  0.109046  0.025082)

-------------
DIPOLE MOMENT
-------------
                                X             Y             Z
Electronic contribution:     -0.84459       1.47257       0.17321
Nuclear contribution   :      1.69538      -2.75426      -0.17540
                        -----------------------------------------
Total Dipole Moment    :      0.85079      -1.28169      -0.00220
                        -----------------------------------------
Magnitude (a.u.)       :      1.53836
Magnitude (Debye)      :      3.91021



--------------------
Rotational spectrum 
--------------------
 
Rotational constants in cm-1:     1.215048     0.347075     0.302092 
Rotational constants in MHz : 36426.217406 10405.048313  9056.492181 

 Dipole components along the rotational axes: 
x,y,z [a.u.] :    -1.427034    -0.574570     0.003242 
x,y,z [Debye]:    -3.627231    -1.460442     0.008241 

 

Timings for individual modules:

Sum of individual times         ...        4.719 sec (=   0.079 min)
GTO integral calculation        ...        0.288 sec (=   0.005 min)   6.1 %
SCF iterations                  ...        3.573 sec (=   0.060 min)  75.7 %
SCF Gradient evaluation         ...        0.858 sec (=   0.014 min)  18.2 %
                             ****ORCA TERMINATED NORMALLY****
TOTAL RUN TIME: 0 days 0 hours 0 minutes 4 seconds 966 msec
