
                                 *****************
                                 * O   R   C   A *
                                 *****************

                                            #,                                       
                                            ###                                      
                                            ####                                     
                                            #####                                    
                                            ######                                   
                                           ########,                                 
                                     ,,################,,,,,                         
                               ,,#################################,,                 
                          ,,##########################################,,             
                       ,#########################################, ''#####,          
                    ,#############################################,,   '####,        
                  ,##################################################,,,,####,       
                ,###########''''           ''''###############################       
              ,#####''   ,,,,##########,,,,          '''####'''          '####       
            ,##' ,,,,###########################,,,                        '##       
           ' ,,###''''                  '''############,,,                           
         ,,##''                                '''############,,,,        ,,,,,,###''
      ,#''                                            '''#######################'''  
     '                                                          ''''####''''         
             ,#######,   #######,   ,#######,      ##                                
            ,#'     '#,  ##    ##  ,#'     '#,    #''#        ######   ,####,        
            ##       ##  ##   ,#'  ##            #'  '#       #        #'  '#        
            ##       ##  #######   ##           ,######,      #####,   #    #        
            '#,     ,#'  ##    ##  '#,     ,#' ,#      #,         ##   #,  ,#        
             '#######'   ##     ##  '#######'  #'      '#     #####' # '####'        



                  #######################################################
                  #                        -***-                        #
                  #          Department of theory and spectroscopy      #
                  #    Directorship and core code : Frank Neese         #
                  #        Max Planck Institute fuer Kohlenforschung    #
                  #                Kaiser Wilhelm Platz 1               #
                  #                 D-45470 Muelheim/Ruhr               #
                  #                      Germany                        #
                  #                                                     #
                  #                  All rights reserved                #
                  #                        -***-                        #
                  #######################################################


                         Program Version 5.0.2 -  RELEASE  -


 With contributions from (in alphabetic order):
   Daniel Aravena         : Magnetic Suceptibility
   Michael Atanasov       : Ab Initio Ligand Field Theory (pilot matlab implementation)
   Alexander A. Auer      : GIAO ZORA, VPT2 properties, NMR spectrum
   Ute Becker             : Parallelization
   Giovanni Bistoni       : ED, misc. LED, open-shell LED, HFLD
   Martin Brehm           : Molecular dynamics
   Dmytro Bykov           : SCF Hessian
   Vijay G. Chilkuri      : MRCI spin determinant printing, contributions to CSF-ICE
   Dipayan Datta          : RHF DLPNO-CCSD density
   Achintya Kumar Dutta   : EOM-CC, STEOM-CC
   Dmitry Ganyushin       : Spin-Orbit,Spin-Spin,Magnetic field MRCI
   Miquel Garcia          : C-PCM and meta-GGA Hessian, CC/C-PCM, Gaussian charge scheme
   Yang Guo               : DLPNO-NEVPT2, F12-NEVPT2, CIM, IAO-localization
   Andreas Hansen         : Spin unrestricted coupled pair/coupled cluster methods
   Benjamin Helmich-Paris : MC-RPA, TRAH-SCF, COSX integrals
   Lee Huntington         : MR-EOM, pCC
   Robert Izsak           : Overlap fitted RIJCOSX, COSX-SCS-MP3, EOM
   Marcus Kettner         : VPT2
   Christian Kollmar      : KDIIS, OOCD, Brueckner-CCSD(T), CCSD density, CASPT2, CASPT2-K
   Simone Kossmann        : Meta GGA functionals, TD-DFT gradient, OOMP2, MP2 Hessian
   Martin Krupicka        : Initial AUTO-CI
   Lucas Lang             : DCDCAS
   Marvin Lechner         : AUTO-CI (C++ implementation), FIC-MRCC
   Dagmar Lenk            : GEPOL surface, SMD
   Dimitrios Liakos       : Extrapolation schemes; Compound Job, initial MDCI parallelization
   Dimitrios Manganas     : Further ROCIS development; embedding schemes
   Dimitrios Pantazis     : SARC Basis sets
   Anastasios Papadopoulos: AUTO-CI, single reference methods and gradients
   Taras Petrenko         : DFT Hessian,TD-DFT gradient, ASA, ECA, R-Raman, ABS, FL, XAS/XES, NRVS
   Peter Pinski           : DLPNO-MP2, DLPNO-MP2 Gradient
   Christoph Reimann      : Effective Core Potentials
   Marius Retegan         : Local ZFS, SOC
   Christoph Riplinger    : Optimizer, TS searches, QM/MM, DLPNO-CCSD(T), (RO)-DLPNO pert. Triples
   Tobias Risthaus        : Range-separated hybrids, TD-DFT gradient, RPA, STAB
   Michael Roemelt        : Original ROCIS implementation
   Masaaki Saitow         : Open-shell DLPNO-CCSD energy and density
   Barbara Sandhoefer     : DKH picture change effects
   Avijit Sen             : IP-ROCIS
   Kantharuban Sivalingam : CASSCF convergence, NEVPT2, FIC-MRCI
   Bernardo de Souza      : ESD, SOC TD-DFT
   Georgi Stoychev        : AutoAux, RI-MP2 NMR, DLPNO-MP2 response
   Willem Van den Heuvel  : Paramagnetic NMR
   Boris Wezisla          : Elementary symmetry handling
   Frank Wennmohs         : Technical directorship


 We gratefully acknowledge several colleagues who have allowed us to
 interface, adapt or use parts of their codes:
   Stefan Grimme, W. Hujo, H. Kruse, P. Pracht,  : VdW corrections, initial TS optimization,
                  C. Bannwarth, S. Ehlert          DFT functionals, gCP, sTDA/sTD-DF
   Ed Valeev, F. Pavosevic, A. Kumar             : LibInt (2-el integral package), F12 methods
   Garnet Chan, S. Sharma, J. Yang, R. Olivares  : DMRG
   Ulf Ekstrom                                   : XCFun DFT Library
   Mihaly Kallay                                 : mrcc  (arbitrary order and MRCC methods)
   Jiri Pittner, Ondrej Demel                    : Mk-CCSD
   Frank Weinhold                                : gennbo (NPA and NBO analysis)
   Christopher J. Cramer and Donald G. Truhlar   : smd solvation model
   Lars Goerigk                                  : TD-DFT with DH, B97 family of functionals
   V. Asgeirsson, H. Jonsson                     : NEB implementation
   FAccTs GmbH                                   : IRC, NEB, NEB-TS, DLPNO-Multilevel, CI-OPT
                                                   MM, QMMM, 2- and 3-layer-ONIOM, Crystal-QMMM,
                                                   LR-CPCM, SF, NACMEs, symmetry and pop. for TD-DFT,
                                                   nearIR, NL-DFT gradient (VV10), updates on ESD,
                                                   ML-optimized integration grids
   S Lehtola, MJT Oliveira, MAL Marques          : LibXC Library
   Liviu Ungur et al                             : ANISO software


 Your calculation uses the libint2 library for the computation of 2-el integrals
 For citations please refer to: http://libint.valeyev.net

 Your ORCA version has been built with support for libXC version: 5.1.0
 For citations please refer to: https://tddft.org/programs/libxc/

 This ORCA versions uses:
   CBLAS   interface :  Fast vector & matrix operations
   LAPACKE interface :  Fast linear algebra routines
   SCALAPACK package :  Parallel linear algebra routines
   Shared memory     :  Shared parallel matrices
   BLAS/LAPACK       :  OpenBLAS 0.3.15  USE64BITINT DYNAMIC_ARCH NO_AFFINITY SkylakeX SINGLE_THREADED
        Core in use  :  SkylakeX
   Copyright (c) 2011-2014, The OpenBLAS Project


Your calculation utilizes the atom-pairwise dispersion correction
with the Becke-Johnson damping scheme (D3BJ)
Cite in your paper:
S.Grimme, S.Ehrlich, L.Goerigk, J Comput Chem, (2011), 32, 1456–1465 
S.Grimme, J.Antony, S.Ehrlich and H.Krieg, J.Chem.Phys., 132, (2010), 154104 
   

================================================================================

----- Orbital basis set information -----
Your calculation utilizes the basis: def2-TZVP
   F. Weigend and R. Ahlrichs, Phys. Chem. Chem. Phys. 7, 3297 (2005).

----- AuxJ basis set information -----
Your calculation utilizes the auxiliary basis: def2/J
   F. Weigend, Phys. Chem. Chem. Phys. 8, 1057 (2006).

================================================================================
                                        WARNINGS
                       Please study these warnings very carefully!
================================================================================


INFO   : the flag for use of the SHARK integral package has been found!

================================================================================
                                       INPUT FILE
================================================================================
NAME = ox_gs_F_orca0007.inp
|  1> ! engrad PBE0 D3BJ def2-TZVP  
|  2> %pal nprocs 8 end
|  3> %maxcore 3000
|  4>  
|  5> *xyz 0 1 
|  6> O   -1.1943263217637248 0.8782137288777498 -0.010729227162163919
|  7> C   -0.7726197762703593 -0.4479510663438744 -0.02370386161290418
|  8> C   0.7716984366142912 -0.3962632396319452 -0.0459453527756492
|  9> H   -1.2489502701985797 -0.6238404833715246 0.9153735424681404
| 10> H   -1.2855125650964816 -0.5913713243061874 -0.9375781874226592
| 11> H   1.2132488612545225 -0.5834182581377498 -0.8917367918050217
| 12> H   1.311548423179055 -0.6102578042027206 0.9223090341756989
| 13> *
| 14> 
| 15>                          ****END OF INPUT****
================================================================================

                     *******************************
                     * Energy+Gradient Calculation *
                     *******************************

---------------------------------
CARTESIAN COORDINATES (ANGSTROEM)
---------------------------------
  O     -1.194326    0.878214   -0.010729
  C     -0.772620   -0.447951   -0.023704
  C      0.771698   -0.396263   -0.045945
  H     -1.248950   -0.623840    0.915374
  H     -1.285513   -0.591371   -0.937578
  H      1.213249   -0.583418   -0.891737
  H      1.311548   -0.610258    0.922309

----------------------------
CARTESIAN COORDINATES (A.U.)
----------------------------
  NO LB      ZA    FRAG     MASS         X           Y           Z
   0 O     8.0000    0    15.999   -2.256950    1.659583   -0.020275
   1 C     6.0000    0    12.011   -1.460040   -0.846505   -0.044794
   2 C     6.0000    0    12.011    1.458299   -0.748829   -0.086824
   3 H     1.0000    0     1.008   -2.360174   -1.178888    1.729805
   4 H     1.0000    0     1.008   -2.429267   -1.117530   -1.771766
   5 H     1.0000    0     1.008    2.292708   -1.102501   -1.685138
   6 H     1.0000    0     1.008    2.478467   -1.153220    1.742911

--------------------------------
INTERNAL COORDINATES (ANGSTROEM)
--------------------------------
 O      0   0   0     0.000000000000     0.00000000     0.00000000
 C      1   0   0     1.391660093463     0.00000000     0.00000000
 C      2   1   0     1.545343022764   105.72878017     0.00000000
 H      2   1   3     1.067564610374    90.77913614   119.07711356
 H      2   1   3     1.057730904625    89.44594485   240.49361557
 H      3   2   1     0.972294675902   117.38148787   256.15864879
 H      3   2   1     1.129047492141   117.33207535   103.04729820

---------------------------
INTERNAL COORDINATES (A.U.)
---------------------------
 O      0   0   0     0.000000000000     0.00000000     0.00000000
 C      1   0   0     2.629856448152     0.00000000     0.00000000
 C      2   1   0     2.920275095991   105.72878017     0.00000000
 H      2   1   3     2.017404743874    90.77913614   119.07711356
 H      2   1   3     1.998821733125    89.44594485   240.49361557
 H      3   2   1     1.837370658924   117.38148787   256.15864879
 H      3   2   1     2.133590552337   117.33207535   103.04729820

---------------------
BASIS SET INFORMATION
---------------------
There are 3 groups of distinct atoms

 Group   1 Type O   : 11s6p2d1f contracted to 5s3p2d1f pattern {62111/411/11/1}
 Group   2 Type C   : 11s6p2d1f contracted to 5s3p2d1f pattern {62111/411/11/1}
 Group   3 Type H   : 5s1p contracted to 3s1p pattern {311/1}

Atom   0O    basis set group =>   1
Atom   1C    basis set group =>   2
Atom   2C    basis set group =>   2
Atom   3H    basis set group =>   3
Atom   4H    basis set group =>   3
Atom   5H    basis set group =>   3
Atom   6H    basis set group =>   3
---------------------------------
AUXILIARY/J BASIS SET INFORMATION
---------------------------------
There are 3 groups of distinct atoms

 Group   1 Type O   : 12s5p4d2f1g contracted to 6s4p3d1f1g pattern {711111/2111/211/2/1}
 Group   2 Type C   : 12s5p4d2f1g contracted to 6s4p3d1f1g pattern {711111/2111/211/2/1}
 Group   3 Type H   : 5s2p1d contracted to 3s1p1d pattern {311/2/1}

Atom   0O    basis set group =>   1
Atom   1C    basis set group =>   2
Atom   2C    basis set group =>   2
Atom   3H    basis set group =>   3
Atom   4H    basis set group =>   3
Atom   5H    basis set group =>   3
Atom   6H    basis set group =>   3


           ************************************************************
           *        Program running with 8 parallel MPI-processes     *
           *              working on a common directory               *
           ************************************************************
------------------------------------------------------------------------------
                           ORCA GTO INTEGRAL CALCULATION
                           -- RI-GTO INTEGRALS CHOSEN --
------------------------------------------------------------------------------
------------------------------------------------------------------------------
                   ___                                                        
                  /   \      - P O W E R E D   B Y -                         
                 /     \                                                     
                 |  |  |   _    _      __       _____    __    __             
                 |  |  |  | |  | |    /  \     |  _  \  |  |  /  |          
                  \  \/   | |  | |   /    \    | | | |  |  | /  /          
                 / \  \   | |__| |  /  /\  \   | |_| |  |  |/  /          
                |  |  |   |  __  | /  /__\  \  |    /   |      \           
                |  |  |   | |  | | |   __   |  |    \   |  |\   \          
                \     /   | |  | | |  |  |  |  | |\  \  |  | \   \       
                 \___/    |_|  |_| |__|  |__|  |_| \__\ |__|  \__/        
                                                                              
                      - O R C A' S   B I G   F R I E N D -                    
                                      &                                       
                       - I N T E G R A L  F E E D E R -                       
                                                                              
 v1 FN, 2020, v2 2021                                                         
------------------------------------------------------------------------------


Reading SHARK input file ox_gs_F_orca0007.SHARKINP.tmp ... ok
----------------------
SHARK INTEGRAL PACKAGE
----------------------

Number of atoms                             ...      7
Number of basis functions                   ...    117
Number of shells                            ...     49
Maximum angular momentum                    ...      3
Integral batch strategy                     ... SHARK/LIBINT Hybrid
RI-J (if used) integral strategy            ... SPLIT-RIJ (Revised 2003 algorithm where possible)
Printlevel                                  ...      1
Contraction scheme used                     ... SEGMENTED contraction
Coulomb Range Separation                    ... NOT USED
Exchange Range Separation                   ... NOT USED
Finite Nucleus Model                        ... NOT USED
Auxiliary Coulomb fitting basis             ... AVAILABLE
   # of basis functions in Aux-J            ...    191
   # of shells in Aux-J                     ...     65
   Maximum angular momentum in Aux-J        ...      4
Auxiliary J/K fitting basis                 ... NOT available
Auxiliary Correlation fitting basis         ... NOT available
Auxiliary 'external' fitting basis          ... NOT available
Integral threshold                          ...     2.500000e-11
Primitive cut-off                           ...     2.500000e-12
Primitive pair pre-selection threshold      ...     2.500000e-12

Calculating pre-screening integrals         ... done (  0.0 sec) Dimension = 49
Organizing shell pair data                  ... done (  0.0 sec)
Shell pair information
Total number of shell pairs                 ...      1225
Shell pairs after pre-screening             ...      1213
Total number of primitive shell pairs       ...      3648
Primitive shell pairs kept                  ...      3080
          la=0 lb=0:    367 shell pairs
          la=1 lb=0:    351 shell pairs
          la=1 lb=1:     91 shell pairs
          la=2 lb=0:    161 shell pairs
          la=2 lb=1:     78 shell pairs
          la=2 lb=2:     21 shell pairs
          la=3 lb=0:     81 shell pairs
          la=3 lb=1:     39 shell pairs
          la=3 lb=2:     18 shell pairs
          la=3 lb=3:      6 shell pairs

Calculating one electron integrals          ... done (  0.0 sec)
Calculating RI/J V-Matrix + Cholesky decomp.... done (  0.0 sec)
Calculating Nuclear repulsion               ... done (  0.0 sec) ENN=     68.124346848183 Eh

SHARK setup successfully completed in   0.1 seconds

Maximum memory used throughout the entire GTOINT-calculation: 14.9 MB


           ************************************************************
           *        Program running with 8 parallel MPI-processes     *
           *              working on a common directory               *
           ************************************************************
-------------------------------------------------------------------------------
                                 ORCA SCF
-------------------------------------------------------------------------------

------------
SCF SETTINGS
------------
Hamiltonian:
 Density Functional     Method          .... DFT(GTOs)
 Exchange Functional    Exchange        .... PBE
   PBE kappa parameter   XKappa         ....  0.804000
   PBE mue parameter    XMuePBE         ....  0.219520
 Correlation Functional Correlation     .... PBE
   PBE beta parameter  CBetaPBE         ....  0.066725
 LDA part of GGA corr.  LDAOpt          .... PW91-LDA
 Gradients option       PostSCFGGA      .... off
 Hybrid DFT is turned on
   Fraction HF Exchange ScalHFX         ....  0.250000
   Scaling of DF-GGA-X  ScalDFX         ....  0.750000
   Scaling of DF-GGA-C  ScalDFC         ....  1.000000
   Scaling of DF-LDA-C  ScalLDAC        ....  1.000000
   Perturbative correction              ....  0.000000
   Density functional embedding theory  .... OFF
   NL short-range parameter             ....  6.900000
 RI-approximation to the Coulomb term is turned on
   Number of AuxJ basis functions       .... 191
   RIJ-COSX (HFX calculated with COS-X)).... on


General Settings:
 Integral files         IntName         .... ox_gs_F_orca0007
 Hartree-Fock type      HFTyp           .... RHF
 Total Charge           Charge          ....    0
 Multiplicity           Mult            ....    1
 Number of Electrons    NEL             ....   24
 Basis Dimension        Dim             ....  117
 Nuclear Repulsion      ENuc            ....     68.1243468482 Eh

Convergence Acceleration:
 DIIS                   CNVDIIS         .... on
   Start iteration      DIISMaxIt       ....    12
   Startup error        DIISStart       ....  0.200000
   # of expansion vecs  DIISMaxEq       ....     5
   Bias factor          DIISBfac        ....   1.050
   Max. coefficient     DIISMaxC        ....  10.000
 Trust-Rad. Augm. Hess. CNVTRAH         .... auto
   Auto Start mean grad. ratio tolernc. ....  1.125000
   Auto Start start iteration           ....    20
   Auto Start num. interpolation iter.  ....    10
   Max. Number of Micro iterations      ....    16
   Max. Number of Macro iterations      .... Maxiter - #DIIS iter
   Number of Davidson start vectors     ....     2
   Converg. threshold I  (grad. norm)   ....   1.000e-05
   Converg. threshold II (energy diff.) ....   1.000e-08
   Grad. Scal. Fac. for Micro threshold ....   0.100
   Minimum threshold for Micro iter.    ....   0.010
   NR start threshold (gradient norm)   ....   0.001
   Initial trust radius                 ....   0.400
   Minimum AH scaling param. (alpha)    ....   1.000
   Maximum AH scaling param. (alpha)    .... 1000.000
   Orbital update algorithm             .... Taylor
   White noise on init. David. guess    .... on
   Maximum white noise                  ....   0.010
   Quad. conv. algorithm                .... NR
 SOSCF                  CNVSOSCF        .... on
   Start iteration      SOSCFMaxIt      ....   150
   Startup grad/error   SOSCFStart      ....  0.003300
 Level Shifting         CNVShift        .... on
   Level shift para.    LevelShift      ....    0.2500
   Turn off err/grad.   ShiftErr        ....    0.0010
 Zerner damping         CNVZerner       .... off
 Static damping         CNVDamp         .... on
   Fraction old density DampFac         ....    0.7000
   Max. Damping (<1)    DampMax         ....    0.9800
   Min. Damping (>=0)   DampMin         ....    0.0000
   Turn off err/grad.   DampErr         ....    0.1000
 Fernandez-Rico         CNVRico         .... off

SCF Procedure:
 Maximum # iterations   MaxIter         ....   125
 SCF integral mode      SCFMode         .... Direct
   Integral package                     .... SHARK and LIBINT hybrid scheme
 Reset frequency        DirectResetFreq ....    20
 Integral Threshold     Thresh          ....  2.500e-11 Eh
 Primitive CutOff       TCut            ....  2.500e-12 Eh

Convergence Tolerance:
 Convergence Check Mode ConvCheckMode   .... Total+1el-Energy
 Convergence forced     ConvForced      .... 0
 Energy Change          TolE            ....  1.000e-08 Eh
 1-El. energy change                    ....  1.000e-05 Eh
 Orbital Gradient       TolG            ....  1.000e-05
 Orbital Rotation angle TolX            ....  1.000e-05
 DIIS Error             TolErr          ....  5.000e-07


Diagonalization of the overlap matrix:
Smallest eigenvalue                        ... 7.568e-04
Time for diagonalization                   ...    0.001 sec
Threshold for overlap eigenvalues          ... 1.000e-08
Number of eigenvalues below threshold      ... 0
Time for construction of square roots      ...    0.001 sec
Total time needed                          ...    0.003 sec

Time for model grid setup =    0.023 sec

------------------------------
INITIAL GUESS: MODEL POTENTIAL
------------------------------
Loading Hartree-Fock densities                     ... done
Calculating cut-offs                               ... done
Initializing the effective Hamiltonian             ... done
Setting up the integral package (SHARK)            ... done
Starting the Coulomb interaction                   ... done (   0.0 sec)
Reading the grid                                   ... done
Mapping shells                                     ... done
Starting the XC term evaluation                    ... done (   0.0 sec)
  promolecular density results
     # of electrons  =     23.997906420
     EX              =    -19.470524552
     EC              =     -0.766399545
     EX+EC           =    -20.236924097
Transforming the Hamiltonian                       ... done (   0.0 sec)
Diagonalizing the Hamiltonian                      ... done (   0.0 sec)
Back transforming the eigenvectors                 ... done (   0.0 sec)
Now organizing SCF variables                       ... done
                      ------------------
                      INITIAL GUESS DONE (   0.0 sec)
                      ------------------
-------------------
DFT GRID GENERATION
-------------------

General Integration Accuracy     IntAcc      ... 4.388
Radial Grid Type                 RadialGrid  ... OptM3 with GC (2021)
Angular Grid (max. ang.)         AngularGrid ... 4 (Lebedev-302)
Angular grid pruning method      GridPruning ... 4 (adaptive)
Weight generation scheme         WeightScheme... Becke
Basis function cutoff            BFCut       ... 1.0000e-11
Integration weight cutoff        WCut        ... 1.0000e-14
Angular grids for H and He will be reduced by one unit
Partially contracted basis set               ... off
Rotationally invariant grid construction     ... off

Total number of grid points                  ...    31325
Total number of batches                      ...      492
Average number of points per batch           ...       63
Average number of grid points per atom       ...     4475
Time for grid setup =    0.109 sec

--------------------
COSX GRID GENERATION
--------------------

GRIDX 1
-------
General Integration Accuracy     IntAcc      ... 3.816
Radial Grid Type                 RadialGrid  ... OptM3 with GC (2021)
Angular Grid (max. ang.)         AngularGrid ... 1 (Lebedev-50)
Angular grid pruning method      GridPruning ... 4 (adaptive)
Weight generation scheme         WeightScheme... Becke
Basis function cutoff            BFCut       ... 1.0000e-11
Integration weight cutoff        WCut        ... 1.0000e-14
Angular grids for H and He will be reduced by one unit
Partially contracted basis set               ... on
Rotationally invariant grid construction     ... off

Total number of grid points                  ...     4041
Total number of batches                      ...       67
Average number of points per batch           ...       60
Average number of grid points per atom       ...      577
UseSFitting                                  ... on

GRIDX 2
-------
General Integration Accuracy     IntAcc      ... 4.020
Radial Grid Type                 RadialGrid  ... OptM3 with GC (2021)
Angular Grid (max. ang.)         AngularGrid ... 2 (Lebedev-110)
Angular grid pruning method      GridPruning ... 4 (adaptive)
Weight generation scheme         WeightScheme... Becke
Basis function cutoff            BFCut       ... 1.0000e-11
Integration weight cutoff        WCut        ... 1.0000e-14
Angular grids for H and He will be reduced by one unit
Partially contracted basis set               ... on
Rotationally invariant grid construction     ... off

Total number of grid points                  ...     8745
Total number of batches                      ...      141
Average number of points per batch           ...       62
Average number of grid points per atom       ...     1249
UseSFitting                                  ... on

GRIDX 3
-------
General Integration Accuracy     IntAcc      ... 4.338
Radial Grid Type                 RadialGrid  ... OptM3 with GC (2021)
Angular Grid (max. ang.)         AngularGrid ... 3 (Lebedev-194)
Angular grid pruning method      GridPruning ... 4 (adaptive)
Weight generation scheme         WeightScheme... Becke
Basis function cutoff            BFCut       ... 1.0000e-11
Integration weight cutoff        WCut        ... 1.0000e-14
Angular grids for H and He will be reduced by one unit
Partially contracted basis set               ... on
Rotationally invariant grid construction     ... off

Total number of grid points                  ...    19265
Total number of batches                      ...      305
Average number of points per batch           ...       63
Average number of grid points per atom       ...     2752
UseSFitting                                  ... on

Time for X-Grid setup             =    0.073 sec

--------------
SCF ITERATIONS
--------------
ITER       Energy         Delta-E        Max-DP      RMS-DP      [F,P]     Damp
               ***  Starting incremental Fock matrix formation  ***
  0   -153.2342504195   0.000000000000 0.12284580  0.00378630  0.3890904 0.7000
  1   -153.3771587498  -0.142908330310 0.07241573  0.00179858  0.0833082 0.7000
                               ***Turning on DIIS***
  2   -153.3811563056  -0.003997555724 0.07915091  0.00294500  0.0990463 0.0000
  3   -153.4767991860  -0.095642880451 0.02800895  0.00114132  0.0637611 0.0000
  4   -153.4848725464  -0.008073360401 0.01011036  0.00036710  0.0457368 0.0000
  5   -153.4873012594  -0.002428713012 0.00487182  0.00018580  0.0180794 0.0000
  6   -153.4877613608  -0.000460101364 0.00131683  0.00006069  0.0035321 0.0000
                      *** Initiating the SOSCF procedure ***
                           *** Shutting down DIIS ***
                      *** Re-Reading the Fockian *** 
                      *** Removing any level shift *** 
ITER      Energy       Delta-E        Grad      Rot      Max-DP    RMS-DP
  7   -153.48778609  -0.0000247314  0.000675  0.000675  0.000670  0.000032
               *** Restarting incremental Fock matrix formation ***
  8   -153.48779682  -0.0000107302  0.000448  0.001968  0.000721  0.000034
  9   -153.48779990  -0.0000030738  0.000144  0.001368  0.000628  0.000025
 10   -153.48780027  -0.0000003751  0.000094  0.000300  0.000202  0.000007
 11   -153.48780039  -0.0000001226  0.000146  0.000935  0.000295  0.000013
 12   -153.48779990   0.0000004985  0.000252  0.000636  0.000235  0.000010
 13   -153.48780053  -0.0000006334  0.000011  0.000141  0.000042  0.000002
 14   -153.48780053  -0.0000000062  0.000009  0.000191  0.000058  0.000002
 15   -153.48780054  -0.0000000067  0.000007  0.000650  0.000196  0.000006
 16   -153.48780055  -0.0000000101  0.000003  0.000097  0.000029  0.000001
                  ***Gradient check signals convergence***
              ***Rediagonalizing the Fockian in SOSCF/NRSCF***

               *****************************************************
               *                     SUCCESS                       *
               *           SCF CONVERGED AFTER  17 CYCLES          *
               *****************************************************

Old exchange energy                            =     -4.962965787 Eh
New exchange energy                            =     -4.962981434 Eh
Exchange energy change after final integration =     -0.000015647 Eh
Total energy after final integration           =   -153.487816200 Eh
Final COS-X integration done in                =     0.247 sec

----------------
TOTAL SCF ENERGY
----------------

Total Energy       :         -153.48781620 Eh           -4176.61581 eV

Components:
Nuclear Repulsion  :           68.12434685 Eh            1853.75772 eV
Electronic Energy  :         -221.61216305 Eh           -6030.37353 eV
One Electron Energy:         -342.95718130 Eh           -9332.33935 eV
Two Electron Energy:          121.34501825 Eh            3301.96582 eV
Max COSX asymmetry :            0.00000499 Eh               0.00014 eV

Virial components:
Potential Energy   :         -306.46844990 Eh           -8339.43049 eV
Kinetic Energy     :          152.98063370 Eh            4162.81468 eV
Virial Ratio       :            2.00331534


DFT components:
N(Alpha)           :       12.000002297256 electrons
N(Beta)            :       12.000002297256 electrons
N(Total)           :       24.000004594512 electrons
E(X)               :      -14.908020231355 Eh       
E(C)               :       -0.771316019748 Eh       
E(XC)              :      -15.679336251102 Eh       
DFET-embed. en.    :        0.000000000000 Eh       

---------------
SCF CONVERGENCE
---------------

  Last Energy change         ...   -9.4784e-10  Tolerance :   1.0000e-08
  Last MAX-Density change    ...    7.7716e-16  Tolerance :   1.0000e-07
  Last RMS-Density change    ...    1.8455e-17  Tolerance :   5.0000e-09
  Last Orbital Gradient      ...    1.6323e-06  Tolerance :   1.0000e-05
  Last Orbital Rotation      ...    7.5661e-06  Tolerance :   1.0000e-05

             **** THE GBW FILE WAS UPDATED (ox_gs_F_orca0007.gbw) ****
             **** DENSITY ox_gs_F_orca0007.scfp WAS UPDATED ****
             **** ENERGY FILE WAS UPDATED (ox_gs_F_orca0007.en.tmp) ****
             **** THE GBW FILE WAS UPDATED (ox_gs_F_orca0007.gbw) ****
             **** DENSITY ox_gs_F_orca0007.scfp WAS UPDATED ****
----------------
ORBITAL ENERGIES
----------------

  NO   OCC          E(Eh)            E(eV) 
   0   2.0000     -19.188669      -522.1502 
   1   2.0000     -10.324234      -280.9367 
   2   2.0000     -10.265327      -279.3337 
   3   2.0000      -1.003912       -27.3178 
   4   2.0000      -0.774394       -21.0723 
   5   2.0000      -0.625362       -17.0170 
   6   2.0000      -0.533068       -14.5055 
   7   2.0000      -0.473270       -12.8783 
   8   2.0000      -0.453436       -12.3386 
   9   2.0000      -0.391383       -10.6501 
  10   2.0000      -0.257575        -7.0090 
  11   2.0000      -0.243841        -6.6352 
  12   0.0000      -0.164123        -4.4660 
  13   0.0000       0.051296         1.3958 
  14   0.0000       0.082783         2.2526 
  15   0.0000       0.094475         2.5708 
  16   0.0000       0.135653         3.6913 
  17   0.0000       0.147564         4.0154 
  18   0.0000       0.178132         4.8472 
  19   0.0000       0.199777         5.4362 
  20   0.0000       0.231059         6.2874 
  21   0.0000       0.242465         6.5978 
  22   0.0000       0.249896         6.8000 
  23   0.0000       0.328816         8.9475 
  24   0.0000       0.358722         9.7613 
  25   0.0000       0.367035         9.9875 
  26   0.0000       0.404283        11.0011 
  27   0.0000       0.424224        11.5437 
  28   0.0000       0.454018        12.3545 
  29   0.0000       0.468067        12.7367 
  30   0.0000       0.518632        14.1127 
  31   0.0000       0.554597        15.0913 
  32   0.0000       0.567774        15.4499 
  33   0.0000       0.604268        16.4430 
  34   0.0000       0.691495        18.8165 
  35   0.0000       0.719612        19.5816 
  36   0.0000       0.787647        21.4330 
  37   0.0000       0.823344        22.4043 
  38   0.0000       0.897882        24.4326 
  39   0.0000       0.917286        24.9606 
  40   0.0000       0.926316        25.2063 
  41   0.0000       1.015899        27.6440 
  42   0.0000       1.041846        28.3501 
  43   0.0000       1.090344        29.6698 
  44   0.0000       1.178773        32.0761 
  45   0.0000       1.322435        35.9853 
  46   0.0000       1.411155        38.3995 
  47   0.0000       1.435930        39.0736 
  48   0.0000       1.485921        40.4340 
  49   0.0000       1.512520        41.1578 
  50   0.0000       1.558078        42.3975 
  51   0.0000       1.601777        43.5866 
  52   0.0000       1.625148        44.2225 
  53   0.0000       1.668374        45.3988 
  54   0.0000       1.736752        47.2594 
  55   0.0000       1.774823        48.2954 
  56   0.0000       1.781336        48.4726 
  57   0.0000       1.869916        50.8830 
  58   0.0000       1.884083        51.2685 
  59   0.0000       1.901798        51.7506 
  60   0.0000       1.991358        54.1876 
  61   0.0000       2.059407        56.0393 
  62   0.0000       2.138665        58.1960 
  63   0.0000       2.230096        60.6840 
  64   0.0000       2.313523        62.9542 
  65   0.0000       2.353790        64.0499 
  66   0.0000       2.397466        65.2384 
  67   0.0000       2.466053        67.1047 
  68   0.0000       2.518126        68.5217 
  69   0.0000       2.552391        69.4541 
  70   0.0000       2.576440        70.1085 
  71   0.0000       2.598695        70.7141 
  72   0.0000       2.631166        71.5977 
  73   0.0000       2.702216        73.5310 
  74   0.0000       2.763242        75.1916 
  75   0.0000       2.786072        75.8129 
  76   0.0000       2.882723        78.4429 
  77   0.0000       2.999280        81.6146 
  78   0.0000       3.010722        81.9259 
  79   0.0000       3.045698        82.8776 
  80   0.0000       3.062479        83.3343 
  81   0.0000       3.108484        84.5861 
  82   0.0000       3.117798        84.8396 
  83   0.0000       3.146279        85.6146 
  84   0.0000       3.231635        87.9373 
  85   0.0000       3.285397        89.4002 
  86   0.0000       3.340652        90.9038 
  87   0.0000       3.363183        91.5168 
  88   0.0000       3.420108        93.0659 
  89   0.0000       3.484694        94.8233 
  90   0.0000       3.490061        94.9694 
  91   0.0000       3.614470        98.3547 
  92   0.0000       3.685152       100.2781 
  93   0.0000       3.800677       103.4217 
  94   0.0000       3.984640       108.4276 
  95   0.0000       4.033213       109.7493 
  96   0.0000       4.070978       110.7769 
  97   0.0000       4.273786       116.2956 
  98   0.0000       4.437367       120.7469 
  99   0.0000       4.544062       123.6502 
 100   0.0000       4.593769       125.0028 
 101   0.0000       4.748638       129.2170 
 102   0.0000       5.192374       141.2917 
 103   0.0000       5.225439       142.1914 
 104   0.0000       5.433365       147.8494 
 105   0.0000       5.436461       147.9336 
 106   0.0000       5.813475       158.1927 
 107   0.0000       5.827509       158.5746 
 108   0.0000       5.992536       163.0652 
 109   0.0000       6.370914       173.3614 
 110   0.0000       6.376321       173.5085 
 111   0.0000       6.813468       185.4039 
 112   0.0000       6.835590       186.0059 
 113   0.0000       6.958087       189.3392 
 114   0.0000      22.081232       600.8609 
 115   0.0000      22.491858       612.0346 
 116   0.0000      43.817168      1192.3258 

                    ********************************
                    * MULLIKEN POPULATION ANALYSIS *
                    ********************************

-----------------------
MULLIKEN ATOMIC CHARGES
-----------------------
   0 O :   -0.391983
   1 C :   -0.085085
   2 C :   -0.125068
   3 H :    0.127348
   4 H :    0.132358
   5 H :    0.167216
   6 H :    0.175214
Sum of atomic charges:   -0.0000000

--------------------------------
MULLIKEN REDUCED ORBITAL CHARGES
--------------------------------
  0 O s       :     3.899539  s :     3.899539
      pz      :     1.931538  p :     4.465817
      px      :     1.146679
      py      :     1.387601
      dz2     :     0.003167  d :     0.025311
      dxz     :     0.000340
      dyz     :     0.006284
      dx2y2   :     0.008632
      dxy     :     0.006888
      f0      :     0.000165  f :     0.001316
      f+1     :     0.000081
      f-1     :     0.000269
      f+2     :     0.000184
      f-2     :     0.000048
      f+3     :     0.000302
      f-3     :     0.000268
  1 C s       :     3.216727  s :     3.216727
      pz      :     1.080940  p :     2.697704
      px      :     0.861656
      py      :     0.755108
      dz2     :     0.016047  d :     0.160477
      dxz     :     0.016527
      dyz     :     0.047308
      dx2y2   :     0.024014
      dxy     :     0.056580
      f0      :     0.002134  f :     0.010176
      f+1     :     0.001339
      f-1     :     0.000560
      f+2     :     0.002401
      f-2     :     0.000776
      f+3     :     0.002643
      f-3     :     0.000325
  2 C s       :     3.294805  s :     3.294805
      pz      :     1.061051  p :     2.784799
      px      :     1.020590
      py      :     0.703158
      dz2     :     0.005836  d :     0.041550
      dxz     :     0.020361
      dyz     :     0.002046
      dx2y2   :     0.003993
      dxy     :     0.009313
      f0      :     0.000506  f :     0.003915
      f+1     :     0.001126
      f-1     :     0.000088
      f+2     :     0.000535
      f-2     :     0.000155
      f+3     :     0.000631
      f-3     :     0.000874
  3 H s       :     0.848674  s :     0.848674
      pz      :     0.011279  p :     0.023978
      px      :     0.006209
      py      :     0.006490
  4 H s       :     0.842916  s :     0.842916
      pz      :     0.011024  p :     0.024726
      px      :     0.006747
      py      :     0.006954
  5 H s       :     0.806665  s :     0.806665
      pz      :     0.011974  p :     0.026119
      px      :     0.008272
      py      :     0.005873
  6 H s       :     0.803212  s :     0.803212
      pz      :     0.011132  p :     0.021574
      px      :     0.006444
      py      :     0.003998


                     *******************************
                     * LOEWDIN POPULATION ANALYSIS *
                     *******************************

----------------------
LOEWDIN ATOMIC CHARGES
----------------------
   0 O :   -0.053620
   1 C :   -0.462900
   2 C :    0.043351
   3 H :    0.119809
   4 H :    0.119350
   5 H :    0.086638
   6 H :    0.147372

-------------------------------
LOEWDIN REDUCED ORBITAL CHARGES
-------------------------------
  0 O s       :     3.549499  s :     3.549499
      pz      :     1.846641  p :     4.437691
      px      :     1.106493
      py      :     1.484557
      dz2     :     0.006566  d :     0.062238
      dxz     :     0.000905
      dyz     :     0.019793
      dx2y2   :     0.019485
      dxy     :     0.015488
      f0      :     0.000533  f :     0.004191
      f+1     :     0.000130
      f-1     :     0.000555
      f+2     :     0.000791
      f-2     :     0.000228
      f+3     :     0.000906
      f-3     :     0.001049
  1 C s       :     2.835783  s :     2.835783
      pz      :     1.069785  p :     2.962416
      px      :     0.995527
      py      :     0.897104
      dz2     :     0.084604  d :     0.592652
      dxz     :     0.078589
      dyz     :     0.126547
      dx2y2   :     0.122361
      dxy     :     0.180551
      f0      :     0.012847  f :     0.072048
      f+1     :     0.007299
      f-1     :     0.006719
      f+2     :     0.013516
      f-2     :     0.005739
      f+3     :     0.020910
      f-3     :     0.005019
  2 C s       :     2.921899  s :     2.921899
      pz      :     1.094960  p :     2.833088
      px      :     1.103482
      py      :     0.634646
      dz2     :     0.029897  d :     0.183093
      dxz     :     0.087963
      dyz     :     0.006421
      dx2y2   :     0.029368
      dxy     :     0.029444
      f0      :     0.002958  f :     0.018569
      f+1     :     0.003202
      f-1     :     0.000896
      f+2     :     0.003098
      f-2     :     0.001222
      f+3     :     0.003235
      f-3     :     0.003958
  3 H s       :     0.811899  s :     0.811899
      pz      :     0.033014  p :     0.068292
      px      :     0.017485
      py      :     0.017793
  4 H s       :     0.809337  s :     0.809337
      pz      :     0.032811  p :     0.071313
      px      :     0.019237
      py      :     0.019266
  5 H s       :     0.824777  s :     0.824777
      pz      :     0.042960  p :     0.088585
      px      :     0.027323
      py      :     0.018303
  6 H s       :     0.791659  s :     0.791659
      pz      :     0.032622  p :     0.060969
      px      :     0.017618
      py      :     0.010729


                      *****************************
                      * MAYER POPULATION ANALYSIS *
                      *****************************

  NA   - Mulliken gross atomic population
  ZA   - Total nuclear charge
  QA   - Mulliken gross atomic charge
  VA   - Mayer's total valence
  BVA  - Mayer's bonded valence
  FA   - Mayer's free valence

  ATOM       NA         ZA         QA         VA         BVA        FA
  0 O      8.3920     8.0000    -0.3920     1.7600     1.7600    -0.0000
  1 C      6.0851     6.0000    -0.0851     4.0095     4.0095     0.0000
  2 C      6.1251     6.0000    -0.1251     3.6896     3.6896     0.0000
  3 H      0.8727     1.0000     0.1273     0.9874     0.9874     0.0000
  4 H      0.8676     1.0000     0.1324     0.9918     0.9918     0.0000
  5 H      0.8328     1.0000     0.1672     0.9644     0.9644    -0.0000
  6 H      0.8248     1.0000     0.1752     0.9623     0.9623     0.0000

  Mayer bond orders larger than 0.100000
B(  0-O ,  1-C ) :   0.9932 B(  0-O ,  2-C ) :   0.7836 B(  1-C ,  2-C ) :   1.0164 
B(  1-C ,  3-H ) :   0.9950 B(  1-C ,  4-H ) :   0.9980 B(  2-C ,  5-H ) :   0.9525 
B(  2-C ,  6-H ) :   0.9467 

-------
TIMINGS
-------

Total SCF time: 0 days 0 hours 0 min 29 sec 

Total time                  ....      29.945 sec
Sum of individual times     ....       3.213 sec  ( 10.7%)

Fock matrix formation       ....       2.933 sec  (  9.8%)
  Split-RI-J                ....       0.295 sec  ( 10.1% of F)
  Chain of spheres X        ....       2.010 sec  ( 68.5% of F)
  XC integration            ....       0.553 sec  ( 18.8% of F)
    Basis function eval.    ....       0.156 sec  ( 28.2% of XC)
    Density eval.           ....       0.114 sec  ( 20.6% of XC)
    XC-Functional eval.     ....       0.033 sec  (  6.0% of XC)
    XC-Potential eval.      ....       0.185 sec  ( 33.6% of XC)
Diagonalization             ....       0.018 sec  (  0.1%)
Density matrix formation    ....       0.002 sec  (  0.0%)
Population analysis         ....       0.003 sec  (  0.0%)
Initial guess               ....       0.016 sec  (  0.1%)
Orbital Transformation      ....       0.000 sec  (  0.0%)
Orbital Orthonormalization  ....       0.000 sec  (  0.0%)
DIIS solution               ....       0.015 sec  (  0.1%)
SOSCF solution              ....       0.021 sec  (  0.1%)
Grid generation             ....       0.205 sec  (  0.7%)

Maximum memory used throughout the entire SCF-calculation: 61.0 MB


-------------------------------------------------------------------------------
                          DFT DISPERSION CORRECTION                            
                                                                               
                              DFTD3 V3.1  Rev 1                                
                          USING Becke-Johnson damping                          
-------------------------------------------------------------------------------
The PBE0 functional is recognized
Active option DFTDOPT                   ...         4   

molecular C6(AA) [au] = 394.806556 


            DFT-D V3
 parameters
 s6 scaling factor         :     1.0000 
 a1 scaling factor         :     0.4145 
 s8 scaling factor         :     1.2177 
 a2 scaling factor         :     4.8593 
 ad hoc parameters k1-k3   :    16.0000     1.3333    -4.0000 

 Edisp/kcal,au: -1.639580497260  -0.002612837559 
 E6   /kcal   :  -1.069616933 
 E8   /kcal   :  -0.569963564 
 % E8         :  34.762767992 

-------------------------   ----------------
Dispersion correction           -0.002612838
-------------------------   ----------------


-------------------------   --------------------
FINAL SINGLE POINT ENERGY      -153.490429037253
-------------------------   --------------------



           ************************************************************
           *        Program running with 8 parallel MPI-processes     *
           *              working on a common directory               *
           ************************************************************
------------------------------------------------------------------------------
                         ORCA SCF GRADIENT CALCULATION
------------------------------------------------------------------------------

 ... reading COSX grid (gridx3)
Gradient of the Kohn-Sham DFT energy:
Kohn-Sham wavefunction type      ... RKS
Hartree-Fock exchange scaling    ...    0.250
Number of operators              ...    1
Number of atoms                  ...    7
Basis set dimensions             ...  117
Integral neglect threshold       ... 2.5e-11
Integral primitive cutoff        ... 2.5e-12
SHARK Integral package           ... ON

Nuc. rep. gradient       (SHARK) ... done (  0.0 sec)
HCore & Overlap gradient (SHARK) ... done (  0.0 sec)
RI-J gradient            (SHARK) ... done (  0.1 sec)
COSX-gradient                    ... done (  0.3 sec)
Exchange-correlation gradient    ... done
Dispersion correction            ... done

------------------
CARTESIAN GRADIENT
------------------

   1   O   :   -0.068035481   -0.070494108   -0.001008126
   2   C   :    0.000075328   -0.016243217   -0.008668465
   3   C   :    0.111346982    0.002809418   -0.116882254
   4   H   :   -0.004888660    0.054053933   -0.012739228
   5   H   :   -0.002117869    0.057958883    0.021830755
   6   H   :   -0.049911400   -0.002550578    0.096031104
   7   H   :    0.013523469   -0.025074162    0.021406455

Difference to translation invariance:
           :   -0.0000076313    0.0004601682   -0.0000297585

Difference to rotation invariance:
           :   -0.0000716617   -0.0000606897   -0.0006607366

Norm of the cartesian gradient     ...    0.2365238497
RMS gradient                       ...    0.0516137355
MAX gradient                       ...    0.1168822543

-------
TIMINGS
-------

Total SCF gradient time            ...        0.681 sec

One electron gradient       ....       0.009 sec  (  1.4%)
RI-J Coulomb gradient       ....       0.076 sec  ( 11.1%)
COSX gradient               ....       0.307 sec  ( 45.1%)
XC gradient                 ....       0.150 sec  ( 22.0%)

Maximum memory used throughout the entire SCFGRAD-calculation: 35.9 MB

                            ***************************************
                            *     ORCA property calculations      *
                            ***************************************

                                    ---------------------
                                    Active property flags
                                    ---------------------
   (+) Dipole Moment


------------------------------------------------------------------------------
                       ORCA ELECTRIC PROPERTIES CALCULATION
------------------------------------------------------------------------------

Dipole Moment Calculation                       ... on
Quadrupole Moment Calculation                   ... off
Polarizability Calculation                      ... off
GBWName                                         ... ox_gs_F_orca0007.gbw
Electron density                                ... ox_gs_F_orca0007.scfp
The origin for moment calculation is the CENTER OF MASS  = (-0.820563,  0.063595 -0.042887)

-------------
DIPOLE MOMENT
-------------
                                X             Y             Z
Electronic contribution:     -0.65183       1.25592      -0.10036
Nuclear contribution   :      1.60920      -2.37376       0.09319
                        -----------------------------------------
Total Dipole Moment    :      0.95738      -1.11785      -0.00716
                        -----------------------------------------
Magnitude (a.u.)       :      1.47180
Magnitude (Debye)      :      3.74102



--------------------
Rotational spectrum 
--------------------
 
Rotational constants in cm-1:     1.378749     0.351821     0.316014 
Rotational constants in MHz : 41333.861991 10547.340862  9473.860807 

 Dipole components along the rotational axes: 
x,y,z [a.u.] :    -1.392702    -0.475978     0.004798 
x,y,z [Debye]:    -3.539966    -1.209841     0.012195 

 

Timings for individual modules:

Sum of individual times         ...       31.319 sec (=   0.522 min)
GTO integral calculation        ...        0.287 sec (=   0.005 min)   0.9 %
SCF iterations                  ...       30.110 sec (=   0.502 min)  96.1 %
SCF Gradient evaluation         ...        0.922 sec (=   0.015 min)   2.9 %
                             ****ORCA TERMINATED NORMALLY****
TOTAL RUN TIME: 0 days 0 hours 0 minutes 31 seconds 575 msec
