
                                 *****************
                                 * O   R   C   A *
                                 *****************

                                            #,                                       
                                            ###                                      
                                            ####                                     
                                            #####                                    
                                            ######                                   
                                           ########,                                 
                                     ,,################,,,,,                         
                               ,,#################################,,                 
                          ,,##########################################,,             
                       ,#########################################, ''#####,          
                    ,#############################################,,   '####,        
                  ,##################################################,,,,####,       
                ,###########''''           ''''###############################       
              ,#####''   ,,,,##########,,,,          '''####'''          '####       
            ,##' ,,,,###########################,,,                        '##       
           ' ,,###''''                  '''############,,,                           
         ,,##''                                '''############,,,,        ,,,,,,###''
      ,#''                                            '''#######################'''  
     '                                                          ''''####''''         
             ,#######,   #######,   ,#######,      ##                                
            ,#'     '#,  ##    ##  ,#'     '#,    #''#        ######   ,####,        
            ##       ##  ##   ,#'  ##            #'  '#       #        #'  '#        
            ##       ##  #######   ##           ,######,      #####,   #    #        
            '#,     ,#'  ##    ##  '#,     ,#' ,#      #,         ##   #,  ,#        
             '#######'   ##     ##  '#######'  #'      '#     #####' # '####'        



                  #######################################################
                  #                        -***-                        #
                  #          Department of theory and spectroscopy      #
                  #    Directorship and core code : Frank Neese         #
                  #        Max Planck Institute fuer Kohlenforschung    #
                  #                Kaiser Wilhelm Platz 1               #
                  #                 D-45470 Muelheim/Ruhr               #
                  #                      Germany                        #
                  #                                                     #
                  #                  All rights reserved                #
                  #                        -***-                        #
                  #######################################################


                         Program Version 5.0.2 -  RELEASE  -


 With contributions from (in alphabetic order):
   Daniel Aravena         : Magnetic Suceptibility
   Michael Atanasov       : Ab Initio Ligand Field Theory (pilot matlab implementation)
   Alexander A. Auer      : GIAO ZORA, VPT2 properties, NMR spectrum
   Ute Becker             : Parallelization
   Giovanni Bistoni       : ED, misc. LED, open-shell LED, HFLD
   Martin Brehm           : Molecular dynamics
   Dmytro Bykov           : SCF Hessian
   Vijay G. Chilkuri      : MRCI spin determinant printing, contributions to CSF-ICE
   Dipayan Datta          : RHF DLPNO-CCSD density
   Achintya Kumar Dutta   : EOM-CC, STEOM-CC
   Dmitry Ganyushin       : Spin-Orbit,Spin-Spin,Magnetic field MRCI
   Miquel Garcia          : C-PCM and meta-GGA Hessian, CC/C-PCM, Gaussian charge scheme
   Yang Guo               : DLPNO-NEVPT2, F12-NEVPT2, CIM, IAO-localization
   Andreas Hansen         : Spin unrestricted coupled pair/coupled cluster methods
   Benjamin Helmich-Paris : MC-RPA, TRAH-SCF, COSX integrals
   Lee Huntington         : MR-EOM, pCC
   Robert Izsak           : Overlap fitted RIJCOSX, COSX-SCS-MP3, EOM
   Marcus Kettner         : VPT2
   Christian Kollmar      : KDIIS, OOCD, Brueckner-CCSD(T), CCSD density, CASPT2, CASPT2-K
   Simone Kossmann        : Meta GGA functionals, TD-DFT gradient, OOMP2, MP2 Hessian
   Martin Krupicka        : Initial AUTO-CI
   Lucas Lang             : DCDCAS
   Marvin Lechner         : AUTO-CI (C++ implementation), FIC-MRCC
   Dagmar Lenk            : GEPOL surface, SMD
   Dimitrios Liakos       : Extrapolation schemes; Compound Job, initial MDCI parallelization
   Dimitrios Manganas     : Further ROCIS development; embedding schemes
   Dimitrios Pantazis     : SARC Basis sets
   Anastasios Papadopoulos: AUTO-CI, single reference methods and gradients
   Taras Petrenko         : DFT Hessian,TD-DFT gradient, ASA, ECA, R-Raman, ABS, FL, XAS/XES, NRVS
   Peter Pinski           : DLPNO-MP2, DLPNO-MP2 Gradient
   Christoph Reimann      : Effective Core Potentials
   Marius Retegan         : Local ZFS, SOC
   Christoph Riplinger    : Optimizer, TS searches, QM/MM, DLPNO-CCSD(T), (RO)-DLPNO pert. Triples
   Tobias Risthaus        : Range-separated hybrids, TD-DFT gradient, RPA, STAB
   Michael Roemelt        : Original ROCIS implementation
   Masaaki Saitow         : Open-shell DLPNO-CCSD energy and density
   Barbara Sandhoefer     : DKH picture change effects
   Avijit Sen             : IP-ROCIS
   Kantharuban Sivalingam : CASSCF convergence, NEVPT2, FIC-MRCI
   Bernardo de Souza      : ESD, SOC TD-DFT
   Georgi Stoychev        : AutoAux, RI-MP2 NMR, DLPNO-MP2 response
   Willem Van den Heuvel  : Paramagnetic NMR
   Boris Wezisla          : Elementary symmetry handling
   Frank Wennmohs         : Technical directorship


 We gratefully acknowledge several colleagues who have allowed us to
 interface, adapt or use parts of their codes:
   Stefan Grimme, W. Hujo, H. Kruse, P. Pracht,  : VdW corrections, initial TS optimization,
                  C. Bannwarth, S. Ehlert          DFT functionals, gCP, sTDA/sTD-DF
   Ed Valeev, F. Pavosevic, A. Kumar             : LibInt (2-el integral package), F12 methods
   Garnet Chan, S. Sharma, J. Yang, R. Olivares  : DMRG
   Ulf Ekstrom                                   : XCFun DFT Library
   Mihaly Kallay                                 : mrcc  (arbitrary order and MRCC methods)
   Jiri Pittner, Ondrej Demel                    : Mk-CCSD
   Frank Weinhold                                : gennbo (NPA and NBO analysis)
   Christopher J. Cramer and Donald G. Truhlar   : smd solvation model
   Lars Goerigk                                  : TD-DFT with DH, B97 family of functionals
   V. Asgeirsson, H. Jonsson                     : NEB implementation
   FAccTs GmbH                                   : IRC, NEB, NEB-TS, DLPNO-Multilevel, CI-OPT
                                                   MM, QMMM, 2- and 3-layer-ONIOM, Crystal-QMMM,
                                                   LR-CPCM, SF, NACMEs, symmetry and pop. for TD-DFT,
                                                   nearIR, NL-DFT gradient (VV10), updates on ESD,
                                                   ML-optimized integration grids
   S Lehtola, MJT Oliveira, MAL Marques          : LibXC Library
   Liviu Ungur et al                             : ANISO software


 Your calculation uses the libint2 library for the computation of 2-el integrals
 For citations please refer to: http://libint.valeyev.net

 Your ORCA version has been built with support for libXC version: 5.1.0
 For citations please refer to: https://tddft.org/programs/libxc/

 This ORCA versions uses:
   CBLAS   interface :  Fast vector & matrix operations
   LAPACKE interface :  Fast linear algebra routines
   SCALAPACK package :  Parallel linear algebra routines
   Shared memory     :  Shared parallel matrices
   BLAS/LAPACK       :  OpenBLAS 0.3.15  USE64BITINT DYNAMIC_ARCH NO_AFFINITY SkylakeX SINGLE_THREADED
        Core in use  :  SkylakeX
   Copyright (c) 2011-2014, The OpenBLAS Project


Your calculation utilizes the atom-pairwise dispersion correction
with the Becke-Johnson damping scheme (D3BJ)
Cite in your paper:
S.Grimme, S.Ehrlich, L.Goerigk, J Comput Chem, (2011), 32, 1456–1465 
S.Grimme, J.Antony, S.Ehrlich and H.Krieg, J.Chem.Phys., 132, (2010), 154104 
   

================================================================================

----- Orbital basis set information -----
Your calculation utilizes the basis: def2-TZVP
   F. Weigend and R. Ahlrichs, Phys. Chem. Chem. Phys. 7, 3297 (2005).

----- AuxJ basis set information -----
Your calculation utilizes the auxiliary basis: def2/J
   F. Weigend, Phys. Chem. Chem. Phys. 8, 1057 (2006).

================================================================================
                                        WARNINGS
                       Please study these warnings very carefully!
================================================================================


INFO   : the flag for use of the SHARK integral package has been found!

================================================================================
                                       INPUT FILE
================================================================================
NAME = ox_gs_E_orca0000.inp
|  1> ! engrad PBE0 D3BJ def2-TZVP  
|  2> %pal nprocs 8 end
|  3> %maxcore 3000
|  4>  
|  5> *xyz 0 1 
|  6> O   -0.9549162619797115 0.9847495780422006 -0.031207506539685764
|  7> C   -0.7496650426604363 -0.49679394886319084 -0.04515430197081374
|  8> C   0.7197923794266049 -0.3835178869057127 0.02969649081179378
|  9> H   -1.2508513680854763 -0.6991780249405557 0.9711677653607499
| 10> H   -1.227030635057177 -0.6999282366608344 -0.8753924982456718
| 11> H   1.2760534352974782 -0.7015759021961445 -0.9578682474025333
| 12> H   1.310961489701088 -0.6569575663971532 0.895622416413539
| 13> *
| 14> 
| 15>                          ****END OF INPUT****
================================================================================

                     *******************************
                     * Energy+Gradient Calculation *
                     *******************************

---------------------------------
CARTESIAN COORDINATES (ANGSTROEM)
---------------------------------
  O     -0.954916    0.984750   -0.031208
  C     -0.749665   -0.496794   -0.045154
  C      0.719792   -0.383518    0.029696
  H     -1.250851   -0.699178    0.971168
  H     -1.227031   -0.699928   -0.875392
  H      1.276053   -0.701576   -0.957868
  H      1.310961   -0.656958    0.895622

----------------------------
CARTESIAN COORDINATES (A.U.)
----------------------------
  NO LB      ZA    FRAG     MASS         X           Y           Z
   0 O     8.0000    0    15.999   -1.804530    1.860907   -0.058974
   1 C     6.0000    0    12.011   -1.416662   -0.938805   -0.085329
   2 C     6.0000    0    12.011    1.360210   -0.724744    0.056118
   3 H     1.0000    0     1.008   -2.363767   -1.321255    1.835241
   4 H     1.0000    0     1.008   -2.318752   -1.322673   -1.654252
   5 H     1.0000    0     1.008    2.411392   -1.325786   -1.810109
   6 H     1.0000    0     1.008    2.477358   -1.241470    1.692481

--------------------------------
INTERNAL COORDINATES (ANGSTROEM)
--------------------------------
 O      0   0   0     0.000000000000     0.00000000     0.00000000
 C      1   0   0     1.495758602934     0.00000000     0.00000000
 C      2   1   0     1.475716511637    93.44765673     0.00000000
 H      2   1   3     1.151111459237    96.09442477   114.31244610
 H      2   1   3     0.978997911253    98.42514354   235.92060727
 H      3   2   1     1.177230383372   114.03058033   249.73435838
 H      3   2   1     1.083548745508   124.36312068   110.11920415

---------------------------
INTERNAL COORDINATES (A.U.)
---------------------------
 O      0   0   0     0.000000000000     0.00000000     0.00000000
 C      1   0   0     2.826574122001     0.00000000     0.00000000
 C      2   1   0     2.788700058300    93.44765673     0.00000000
 H      2   1   3     2.175285407577    96.09442477   114.31244610
 H      2   1   3     1.850037937948    98.42514354   235.92060727
 H      3   2   1     2.224643021104   114.03058033   249.73435838
 H      3   2   1     2.047610381764   124.36312068   110.11920415

---------------------
BASIS SET INFORMATION
---------------------
There are 3 groups of distinct atoms

 Group   1 Type O   : 11s6p2d1f contracted to 5s3p2d1f pattern {62111/411/11/1}
 Group   2 Type C   : 11s6p2d1f contracted to 5s3p2d1f pattern {62111/411/11/1}
 Group   3 Type H   : 5s1p contracted to 3s1p pattern {311/1}

Atom   0O    basis set group =>   1
Atom   1C    basis set group =>   2
Atom   2C    basis set group =>   2
Atom   3H    basis set group =>   3
Atom   4H    basis set group =>   3
Atom   5H    basis set group =>   3
Atom   6H    basis set group =>   3
---------------------------------
AUXILIARY/J BASIS SET INFORMATION
---------------------------------
There are 3 groups of distinct atoms

 Group   1 Type O   : 12s5p4d2f1g contracted to 6s4p3d1f1g pattern {711111/2111/211/2/1}
 Group   2 Type C   : 12s5p4d2f1g contracted to 6s4p3d1f1g pattern {711111/2111/211/2/1}
 Group   3 Type H   : 5s2p1d contracted to 3s1p1d pattern {311/2/1}

Atom   0O    basis set group =>   1
Atom   1C    basis set group =>   2
Atom   2C    basis set group =>   2
Atom   3H    basis set group =>   3
Atom   4H    basis set group =>   3
Atom   5H    basis set group =>   3
Atom   6H    basis set group =>   3


           ************************************************************
           *        Program running with 8 parallel MPI-processes     *
           *              working on a common directory               *
           ************************************************************
------------------------------------------------------------------------------
                           ORCA GTO INTEGRAL CALCULATION
                           -- RI-GTO INTEGRALS CHOSEN --
------------------------------------------------------------------------------
------------------------------------------------------------------------------
                   ___                                                        
                  /   \      - P O W E R E D   B Y -                         
                 /     \                                                     
                 |  |  |   _    _      __       _____    __    __             
                 |  |  |  | |  | |    /  \     |  _  \  |  |  /  |          
                  \  \/   | |  | |   /    \    | | | |  |  | /  /          
                 / \  \   | |__| |  /  /\  \   | |_| |  |  |/  /          
                |  |  |   |  __  | /  /__\  \  |    /   |      \           
                |  |  |   | |  | | |   __   |  |    \   |  |\   \          
                \     /   | |  | | |  |  |  |  | |\  \  |  | \   \       
                 \___/    |_|  |_| |__|  |__|  |_| \__\ |__|  \__/        
                                                                              
                      - O R C A' S   B I G   F R I E N D -                    
                                      &                                       
                       - I N T E G R A L  F E E D E R -                       
                                                                              
 v1 FN, 2020, v2 2021                                                         
------------------------------------------------------------------------------


Reading SHARK input file ox_gs_E_orca0000.SHARKINP.tmp ... ok
----------------------
SHARK INTEGRAL PACKAGE
----------------------

Number of atoms                             ...      7
Number of basis functions                   ...    117
Number of shells                            ...     49
Maximum angular momentum                    ...      3
Integral batch strategy                     ... SHARK/LIBINT Hybrid
RI-J (if used) integral strategy            ... SPLIT-RIJ (Revised 2003 algorithm where possible)
Printlevel                                  ...      1
Contraction scheme used                     ... SEGMENTED contraction
Coulomb Range Separation                    ... NOT USED
Exchange Range Separation                   ... NOT USED
Finite Nucleus Model                        ... NOT USED
Auxiliary Coulomb fitting basis             ... AVAILABLE
   # of basis functions in Aux-J            ...    191
   # of shells in Aux-J                     ...     65
   Maximum angular momentum in Aux-J        ...      4
Auxiliary J/K fitting basis                 ... NOT available
Auxiliary Correlation fitting basis         ... NOT available
Auxiliary 'external' fitting basis          ... NOT available
Integral threshold                          ...     2.500000e-11
Primitive cut-off                           ...     2.500000e-12
Primitive pair pre-selection threshold      ...     2.500000e-12

Calculating pre-screening integrals         ... done (  0.0 sec) Dimension = 49
Organizing shell pair data                  ... done (  0.0 sec)
Shell pair information
Total number of shell pairs                 ...      1225
Shell pairs after pre-screening             ...      1213
Total number of primitive shell pairs       ...      3648
Primitive shell pairs kept                  ...      3076
          la=0 lb=0:    367 shell pairs
          la=1 lb=0:    351 shell pairs
          la=1 lb=1:     91 shell pairs
          la=2 lb=0:    161 shell pairs
          la=2 lb=1:     78 shell pairs
          la=2 lb=2:     21 shell pairs
          la=3 lb=0:     81 shell pairs
          la=3 lb=1:     39 shell pairs
          la=3 lb=2:     18 shell pairs
          la=3 lb=3:      6 shell pairs

Calculating one electron integrals          ... done (  0.0 sec)
Calculating RI/J V-Matrix + Cholesky decomp.... done (  0.0 sec)
Calculating Nuclear repulsion               ... done (  0.0 sec) ENN=     67.543334851954 Eh

SHARK setup successfully completed in   0.1 seconds

Maximum memory used throughout the entire GTOINT-calculation: 14.9 MB


           ************************************************************
           *        Program running with 8 parallel MPI-processes     *
           *              working on a common directory               *
           ************************************************************
-------------------------------------------------------------------------------
                                 ORCA SCF
-------------------------------------------------------------------------------

------------
SCF SETTINGS
------------
Hamiltonian:
 Density Functional     Method          .... DFT(GTOs)
 Exchange Functional    Exchange        .... PBE
   PBE kappa parameter   XKappa         ....  0.804000
   PBE mue parameter    XMuePBE         ....  0.219520
 Correlation Functional Correlation     .... PBE
   PBE beta parameter  CBetaPBE         ....  0.066725
 LDA part of GGA corr.  LDAOpt          .... PW91-LDA
 Gradients option       PostSCFGGA      .... off
 Hybrid DFT is turned on
   Fraction HF Exchange ScalHFX         ....  0.250000
   Scaling of DF-GGA-X  ScalDFX         ....  0.750000
   Scaling of DF-GGA-C  ScalDFC         ....  1.000000
   Scaling of DF-LDA-C  ScalLDAC        ....  1.000000
   Perturbative correction              ....  0.000000
   Density functional embedding theory  .... OFF
   NL short-range parameter             ....  6.900000
 RI-approximation to the Coulomb term is turned on
   Number of AuxJ basis functions       .... 191
   RIJ-COSX (HFX calculated with COS-X)).... on


General Settings:
 Integral files         IntName         .... ox_gs_E_orca0000
 Hartree-Fock type      HFTyp           .... RHF
 Total Charge           Charge          ....    0
 Multiplicity           Mult            ....    1
 Number of Electrons    NEL             ....   24
 Basis Dimension        Dim             ....  117
 Nuclear Repulsion      ENuc            ....     67.5433348520 Eh

Convergence Acceleration:
 DIIS                   CNVDIIS         .... on
   Start iteration      DIISMaxIt       ....    12
   Startup error        DIISStart       ....  0.200000
   # of expansion vecs  DIISMaxEq       ....     5
   Bias factor          DIISBfac        ....   1.050
   Max. coefficient     DIISMaxC        ....  10.000
 Trust-Rad. Augm. Hess. CNVTRAH         .... auto
   Auto Start mean grad. ratio tolernc. ....  1.125000
   Auto Start start iteration           ....    20
   Auto Start num. interpolation iter.  ....    10
   Max. Number of Micro iterations      ....    16
   Max. Number of Macro iterations      .... Maxiter - #DIIS iter
   Number of Davidson start vectors     ....     2
   Converg. threshold I  (grad. norm)   ....   1.000e-05
   Converg. threshold II (energy diff.) ....   1.000e-08
   Grad. Scal. Fac. for Micro threshold ....   0.100
   Minimum threshold for Micro iter.    ....   0.010
   NR start threshold (gradient norm)   ....   0.001
   Initial trust radius                 ....   0.400
   Minimum AH scaling param. (alpha)    ....   1.000
   Maximum AH scaling param. (alpha)    .... 1000.000
   Orbital update algorithm             .... Taylor
   White noise on init. David. guess    .... on
   Maximum white noise                  ....   0.010
   Quad. conv. algorithm                .... NR
 SOSCF                  CNVSOSCF        .... on
   Start iteration      SOSCFMaxIt      ....   150
   Startup grad/error   SOSCFStart      ....  0.003300
 Level Shifting         CNVShift        .... on
   Level shift para.    LevelShift      ....    0.2500
   Turn off err/grad.   ShiftErr        ....    0.0010
 Zerner damping         CNVZerner       .... off
 Static damping         CNVDamp         .... on
   Fraction old density DampFac         ....    0.7000
   Max. Damping (<1)    DampMax         ....    0.9800
   Min. Damping (>=0)   DampMin         ....    0.0000
   Turn off err/grad.   DampErr         ....    0.1000
 Fernandez-Rico         CNVRico         .... off

SCF Procedure:
 Maximum # iterations   MaxIter         ....   125
 SCF integral mode      SCFMode         .... Direct
   Integral package                     .... SHARK and LIBINT hybrid scheme
 Reset frequency        DirectResetFreq ....    20
 Integral Threshold     Thresh          ....  2.500e-11 Eh
 Primitive CutOff       TCut            ....  2.500e-12 Eh

Convergence Tolerance:
 Convergence Check Mode ConvCheckMode   .... Total+1el-Energy
 Convergence forced     ConvForced      .... 0
 Energy Change          TolE            ....  1.000e-08 Eh
 1-El. energy change                    ....  1.000e-05 Eh
 Orbital Gradient       TolG            ....  1.000e-05
 Orbital Rotation angle TolX            ....  1.000e-05
 DIIS Error             TolErr          ....  5.000e-07


Diagonalization of the overlap matrix:
Smallest eigenvalue                        ... 5.071e-04
Time for diagonalization                   ...    0.001 sec
Threshold for overlap eigenvalues          ... 1.000e-08
Number of eigenvalues below threshold      ... 0
Time for construction of square roots      ...    0.001 sec
Total time needed                          ...    0.003 sec

Time for model grid setup =    0.022 sec

------------------------------
INITIAL GUESS: MODEL POTENTIAL
------------------------------
Loading Hartree-Fock densities                     ... done
Calculating cut-offs                               ... done
Initializing the effective Hamiltonian             ... done
Setting up the integral package (SHARK)            ... done
Starting the Coulomb interaction                   ... done (   0.0 sec)
Reading the grid                                   ... done
Mapping shells                                     ... done
Starting the XC term evaluation                    ... done (   0.0 sec)
  promolecular density results
     # of electrons  =     23.998091437
     EX              =    -19.432279935
     EC              =     -0.762147541
     EX+EC           =    -20.194427476
Transforming the Hamiltonian                       ... done (   0.0 sec)
Diagonalizing the Hamiltonian                      ... done (   0.0 sec)
Back transforming the eigenvectors                 ... done (   0.0 sec)
Now organizing SCF variables                       ... done
                      ------------------
                      INITIAL GUESS DONE (   0.0 sec)
                      ------------------
-------------------
DFT GRID GENERATION
-------------------

General Integration Accuracy     IntAcc      ... 4.388
Radial Grid Type                 RadialGrid  ... OptM3 with GC (2021)
Angular Grid (max. ang.)         AngularGrid ... 4 (Lebedev-302)
Angular grid pruning method      GridPruning ... 4 (adaptive)
Weight generation scheme         WeightScheme... Becke
Basis function cutoff            BFCut       ... 1.0000e-11
Integration weight cutoff        WCut        ... 1.0000e-14
Angular grids for H and He will be reduced by one unit
Partially contracted basis set               ... off
Rotationally invariant grid construction     ... off

Total number of grid points                  ...    31328
Total number of batches                      ...      493
Average number of points per batch           ...       63
Average number of grid points per atom       ...     4475
Time for grid setup =    0.110 sec

--------------------
COSX GRID GENERATION
--------------------

GRIDX 1
-------
General Integration Accuracy     IntAcc      ... 3.816
Radial Grid Type                 RadialGrid  ... OptM3 with GC (2021)
Angular Grid (max. ang.)         AngularGrid ... 1 (Lebedev-50)
Angular grid pruning method      GridPruning ... 4 (adaptive)
Weight generation scheme         WeightScheme... Becke
Basis function cutoff            BFCut       ... 1.0000e-11
Integration weight cutoff        WCut        ... 1.0000e-14
Angular grids for H and He will be reduced by one unit
Partially contracted basis set               ... on
Rotationally invariant grid construction     ... off

Total number of grid points                  ...     4038
Total number of batches                      ...       67
Average number of points per batch           ...       60
Average number of grid points per atom       ...      577
UseSFitting                                  ... on

GRIDX 2
-------
General Integration Accuracy     IntAcc      ... 4.020
Radial Grid Type                 RadialGrid  ... OptM3 with GC (2021)
Angular Grid (max. ang.)         AngularGrid ... 2 (Lebedev-110)
Angular grid pruning method      GridPruning ... 4 (adaptive)
Weight generation scheme         WeightScheme... Becke
Basis function cutoff            BFCut       ... 1.0000e-11
Integration weight cutoff        WCut        ... 1.0000e-14
Angular grids for H and He will be reduced by one unit
Partially contracted basis set               ... on
Rotationally invariant grid construction     ... off

Total number of grid points                  ...     8734
Total number of batches                      ...      139
Average number of points per batch           ...       62
Average number of grid points per atom       ...     1248
UseSFitting                                  ... on

GRIDX 3
-------
General Integration Accuracy     IntAcc      ... 4.338
Radial Grid Type                 RadialGrid  ... OptM3 with GC (2021)
Angular Grid (max. ang.)         AngularGrid ... 3 (Lebedev-194)
Angular grid pruning method      GridPruning ... 4 (adaptive)
Weight generation scheme         WeightScheme... Becke
Basis function cutoff            BFCut       ... 1.0000e-11
Integration weight cutoff        WCut        ... 1.0000e-14
Angular grids for H and He will be reduced by one unit
Partially contracted basis set               ... on
Rotationally invariant grid construction     ... off

Total number of grid points                  ...    19287
Total number of batches                      ...      304
Average number of points per batch           ...       63
Average number of grid points per atom       ...     2755
UseSFitting                                  ... on

Time for X-Grid setup             =    0.073 sec

--------------
SCF ITERATIONS
--------------
ITER       Energy         Delta-E        Max-DP      RMS-DP      [F,P]     Damp
               ***  Starting incremental Fock matrix formation  ***
  0   -153.3669029536   0.000000000000 0.08933777  0.00239321  0.3232080 0.7000
  1   -153.4577318970  -0.090828943433 0.05265829  0.00130206  0.0823596 0.7000
                               ***Turning on DIIS***
  2   -153.4704210842  -0.012689187252 0.04530608  0.00172305  0.0683995 0.0000
  3   -153.5262805011  -0.055859416861 0.02130576  0.00099469  0.0380718 0.0000
  4   -153.5287894633  -0.002508962153 0.00976914  0.00032658  0.0479047 0.0000
  5   -153.5311851656  -0.002395702319 0.00342842  0.00010671  0.0119618 0.0000
  6   -153.5313547314  -0.000169565804 0.00146911  0.00004268  0.0045745 0.0000
                      *** Initiating the SOSCF procedure ***
                           *** Shutting down DIIS ***
                      *** Re-Reading the Fockian *** 
                      *** Removing any level shift *** 
ITER      Energy       Delta-E        Grad      Rot      Max-DP    RMS-DP
  7   -153.53137524  -0.0000205092  0.000329  0.000329  0.000776  0.000040
               *** Restarting incremental Fock matrix formation ***
  8   -153.53137502   0.0000002156  0.000366  0.002505  0.001189  0.000036
  9   -153.53136548   0.0000095430  0.001430  0.001968  0.001163  0.000026
 10   -153.53137688  -0.0000113940  0.000131  0.000627  0.000209  0.000010
 11   -153.53137693  -0.0000000502  0.000154  0.000371  0.000125  0.000006
 12   -153.53137730  -0.0000003727  0.000025  0.000328  0.000110  0.000003
 13   -153.53137732  -0.0000000255  0.000008  0.000162  0.000055  0.000002
 14   -153.53137733  -0.0000000027  0.000004  0.000007  0.000007  0.000000
                  ***Gradient check signals convergence***
              ***Rediagonalizing the Fockian in SOSCF/NRSCF***

               *****************************************************
               *                     SUCCESS                       *
               *           SCF CONVERGED AFTER  15 CYCLES          *
               *****************************************************

Old exchange energy                            =     -4.943917584 Eh
New exchange energy                            =     -4.943924949 Eh
Exchange energy change after final integration =     -0.000007365 Eh
Total energy after final integration           =   -153.531384692 Eh
Final COS-X integration done in                =     0.313 sec

----------------
TOTAL SCF ENERGY
----------------

Total Energy       :         -153.53138469 Eh           -4177.80137 eV

Components:
Nuclear Repulsion  :           67.54333485 Eh            1837.94758 eV
Electronic Energy  :         -221.07471954 Eh           -6015.74895 eV
One Electron Energy:         -341.94500984 Eh           -9304.79676 eV
Two Electron Energy:          120.87029030 Eh            3289.04781 eV
Max COSX asymmetry :            0.00000124 Eh               0.00003 eV

Virial components:
Potential Energy   :         -306.15323184 Eh           -8330.85297 eV
Kinetic Energy     :          152.62184714 Eh            4153.05160 eV
Virial Ratio       :            2.00595942


DFT components:
N(Alpha)           :       11.999999382580 electrons
N(Beta)            :       11.999999382580 electrons
N(Total)           :       23.999998765159 electrons
E(X)               :      -14.850481606328 Eh       
E(C)               :       -0.768817191707 Eh       
E(XC)              :      -15.619298798035 Eh       
DFET-embed. en.    :        0.000000000000 Eh       

---------------
SCF CONVERGENCE
---------------

  Last Energy change         ...    2.0634e-11  Tolerance :   1.0000e-08
  Last MAX-Density change    ...    1.1102e-15  Tolerance :   1.0000e-07
  Last RMS-Density change    ...    2.3285e-17  Tolerance :   5.0000e-09
  Last Orbital Gradient      ...    1.7261e-06  Tolerance :   1.0000e-05
  Last Orbital Rotation      ...    1.5975e-05  Tolerance :   1.0000e-05

             **** THE GBW FILE WAS UPDATED (ox_gs_E_orca0000.gbw) ****
             **** DENSITY ox_gs_E_orca0000.scfp WAS UPDATED ****
             **** ENERGY FILE WAS UPDATED (ox_gs_E_orca0000.en.tmp) ****
             **** THE GBW FILE WAS UPDATED (ox_gs_E_orca0000.gbw) ****
             **** DENSITY ox_gs_E_orca0000.scfp WAS UPDATED ****
----------------
ORBITAL ENERGIES
----------------

  NO   OCC          E(Eh)            E(eV) 
   0   2.0000     -19.207248      -522.6558 
   1   2.0000     -10.325720      -280.9771 
   2   2.0000     -10.271698      -279.5071 
   3   2.0000      -0.977619       -26.6024 
   4   2.0000      -0.765316       -20.8253 
   5   2.0000      -0.636061       -17.3081 
   6   2.0000      -0.512482       -13.9454 
   7   2.0000      -0.484160       -13.1747 
   8   2.0000      -0.412018       -11.2116 
   9   2.0000      -0.386054       -10.5051 
  10   2.0000      -0.282114        -7.6767 
  11   2.0000      -0.263247        -7.1633 
  12   0.0000      -0.135729        -3.6934 
  13   0.0000       0.048138         1.3099 
  14   0.0000       0.073114         1.9895 
  15   0.0000       0.085823         2.3354 
  16   0.0000       0.107166         2.9161 
  17   0.0000       0.147291         4.0080 
  18   0.0000       0.189979         5.1696 
  19   0.0000       0.190471         5.1830 
  20   0.0000       0.231826         6.3083 
  21   0.0000       0.249247         6.7823 
  22   0.0000       0.267195         7.2707 
  23   0.0000       0.314062         8.5461 
  24   0.0000       0.346278         9.4227 
  25   0.0000       0.368009        10.0140 
  26   0.0000       0.406091        11.0503 
  27   0.0000       0.413623        11.2553 
  28   0.0000       0.426240        11.5986 
  29   0.0000       0.483758        13.1637 
  30   0.0000       0.507715        13.8156 
  31   0.0000       0.541171        14.7260 
  32   0.0000       0.568258        15.4631 
  33   0.0000       0.606544        16.5049 
  34   0.0000       0.676747        18.4152 
  35   0.0000       0.722035        19.6476 
  36   0.0000       0.782228        21.2855 
  37   0.0000       0.859339        23.3838 
  38   0.0000       0.870870        23.6976 
  39   0.0000       0.921904        25.0863 
  40   0.0000       0.927136        25.2287 
  41   0.0000       1.033036        28.1103 
  42   0.0000       1.070480        29.1293 
  43   0.0000       1.075760        29.2729 
  44   0.0000       1.162788        31.6411 
  45   0.0000       1.316311        35.8187 
  46   0.0000       1.400759        38.1166 
  47   0.0000       1.432071        38.9686 
  48   0.0000       1.507375        41.0178 
  49   0.0000       1.525005        41.4975 
  50   0.0000       1.570865        42.7454 
  51   0.0000       1.598215        43.4896 
  52   0.0000       1.619590        44.0713 
  53   0.0000       1.677187        45.6386 
  54   0.0000       1.711923        46.5838 
  55   0.0000       1.753115        47.7047 
  56   0.0000       1.800876        49.0043 
  57   0.0000       1.809700        49.2445 
  58   0.0000       1.878434        51.1148 
  59   0.0000       1.896604        51.6092 
  60   0.0000       2.010673        54.7132 
  61   0.0000       2.045170        55.6519 
  62   0.0000       2.095791        57.0294 
  63   0.0000       2.206973        60.0548 
  64   0.0000       2.324448        63.2515 
  65   0.0000       2.351582        63.9898 
  66   0.0000       2.363044        64.3017 
  67   0.0000       2.414759        65.7089 
  68   0.0000       2.458310        66.8940 
  69   0.0000       2.532856        68.9225 
  70   0.0000       2.533778        68.9476 
  71   0.0000       2.615426        71.1694 
  72   0.0000       2.629965        71.5650 
  73   0.0000       2.655672        72.2645 
  74   0.0000       2.751507        74.8723 
  75   0.0000       2.812357        76.5281 
  76   0.0000       2.880698        78.3878 
  77   0.0000       2.924929        79.5914 
  78   0.0000       2.955108        80.4126 
  79   0.0000       2.964853        80.6778 
  80   0.0000       3.047647        82.9307 
  81   0.0000       3.084089        83.9223 
  82   0.0000       3.093655        84.1826 
  83   0.0000       3.140560        85.4590 
  84   0.0000       3.163511        86.0835 
  85   0.0000       3.196436        86.9795 
  86   0.0000       3.316912        90.2578 
  87   0.0000       3.333355        90.7052 
  88   0.0000       3.415725        92.9466 
  89   0.0000       3.461579        94.1943 
  90   0.0000       3.530856        96.0795 
  91   0.0000       3.647576        99.2556 
  92   0.0000       3.713628       101.0530 
  93   0.0000       3.815207       103.8171 
  94   0.0000       3.970827       108.0517 
  95   0.0000       4.076297       110.9217 
  96   0.0000       4.097086       111.4874 
  97   0.0000       4.274514       116.3154 
  98   0.0000       4.343712       118.1984 
  99   0.0000       4.522176       123.0547 
 100   0.0000       4.562251       124.1452 
 101   0.0000       4.735873       128.8697 
 102   0.0000       5.201434       141.5382 
 103   0.0000       5.243102       142.6721 
 104   0.0000       5.331715       145.0833 
 105   0.0000       5.346915       145.4970 
 106   0.0000       5.643559       153.5690 
 107   0.0000       5.675966       154.4509 
 108   0.0000       5.847353       159.1146 
 109   0.0000       6.353590       172.8900 
 110   0.0000       6.404108       174.2646 
 111   0.0000       6.744964       183.5398 
 112   0.0000       6.753928       183.7837 
 113   0.0000       6.983537       190.0317 
 114   0.0000      21.975482       597.9833 
 115   0.0000      22.395739       609.4190 
 116   0.0000      43.688760      1188.8316 

                    ********************************
                    * MULLIKEN POPULATION ANALYSIS *
                    ********************************

-----------------------
MULLIKEN ATOMIC CHARGES
-----------------------
   0 O :   -0.383857
   1 C :   -0.048551
   2 C :   -0.147534
   3 H :    0.121530
   4 H :    0.134891
   5 H :    0.154903
   6 H :    0.168618
Sum of atomic charges:   -0.0000000

--------------------------------
MULLIKEN REDUCED ORBITAL CHARGES
--------------------------------
  0 O s       :     3.924920  s :     3.924920
      pz      :     1.934391  p :     4.438098
      px      :     1.217384
      py      :     1.286323
      dz2     :     0.002864  d :     0.019828
      dxz     :     0.000177
      dyz     :     0.004202
      dx2y2   :     0.007597
      dxy     :     0.004987
      f0      :     0.000115  f :     0.001011
      f+1     :     0.000056
      f-1     :     0.000252
      f+2     :     0.000118
      f-2     :     0.000020
      f+3     :     0.000201
      f-3     :     0.000248
  1 C s       :     3.188881  s :     3.188881
      pz      :     1.071685  p :     2.709555
      px      :     0.903268
      py      :     0.734602
      dz2     :     0.013153  d :     0.141315
      dxz     :     0.017742
      dyz     :     0.040069
      dx2y2   :     0.021636
      dxy     :     0.048715
      f0      :     0.001631  f :     0.008801
      f+1     :     0.001170
      f-1     :     0.000648
      f+2     :     0.002317
      f-2     :     0.000191
      f+3     :     0.002260
      f-3     :     0.000583
  2 C s       :     3.305662  s :     3.305662
      pz      :     1.042305  p :     2.785969
      px      :     0.994479
      py      :     0.749185
      dz2     :     0.004788  d :     0.051412
      dxz     :     0.022619
      dyz     :     0.005087
      dx2y2   :     0.005296
      dxy     :     0.013622
      f0      :     0.000432  f :     0.004491
      f+1     :     0.000981
      f-1     :     0.000133
      f+2     :     0.000710
      f-2     :     0.000293
      f+3     :     0.000775
      f-3     :     0.001167
  3 H s       :     0.859194  s :     0.859194
      pz      :     0.010423  p :     0.019276
      px      :     0.004980
      py      :     0.003873
  4 H s       :     0.840442  s :     0.840442
      pz      :     0.011095  p :     0.024667
      px      :     0.007325
      py      :     0.006246
  5 H s       :     0.825572  s :     0.825572
      pz      :     0.009915  p :     0.019525
      px      :     0.005722
      py      :     0.003889
  6 H s       :     0.808321  s :     0.808321
      pz      :     0.010409  p :     0.023061
      px      :     0.007840
      py      :     0.004811


                     *******************************
                     * LOEWDIN POPULATION ANALYSIS *
                     *******************************

----------------------
LOEWDIN ATOMIC CHARGES
----------------------
   0 O :   -0.101008
   1 C :   -0.370753
   2 C :   -0.038410
   3 H :    0.138619
   4 H :    0.090619
   5 H :    0.153241
   6 H :    0.127692

-------------------------------
LOEWDIN REDUCED ORBITAL CHARGES
-------------------------------
  0 O s       :     3.620803  s :     3.620803
      pz      :     1.871883  p :     4.433863
      px      :     1.179017
      py      :     1.382964
      dz2     :     0.006036  d :     0.043686
      dxz     :     0.000171
      dyz     :     0.010728
      dx2y2   :     0.015540
      dxy     :     0.011211
      f0      :     0.000259  f :     0.002656
      f+1     :     0.000080
      f-1     :     0.000459
      f+2     :     0.000492
      f-2     :     0.000023
      f+3     :     0.000726
      f-3     :     0.000617
  1 C s       :     2.834829  s :     2.834829
      pz      :     1.066562  p :     2.943430
      px      :     1.046310
      py      :     0.830558
      dz2     :     0.070041  d :     0.532345
      dxz     :     0.092969
      dyz     :     0.103046
      dx2y2   :     0.119164
      dxy     :     0.147124
      f0      :     0.009363  f :     0.060150
      f+1     :     0.005949
      f-1     :     0.006142
      f+2     :     0.012242
      f-2     :     0.001878
      f+3     :     0.015515
      f-3     :     0.009061
  2 C s       :     2.926375  s :     2.926375
      pz      :     1.074866  p :     2.866367
      px      :     1.103149
      py      :     0.688351
      dz2     :     0.027037  d :     0.222851
      dxz     :     0.104878
      dyz     :     0.013563
      dx2y2   :     0.036156
      dxy     :     0.041217
      f0      :     0.002752  f :     0.022817
      f+1     :     0.003008
      f-1     :     0.001166
      f+2     :     0.003852
      f-2     :     0.002353
      f+3     :     0.004253
      f-3     :     0.005433
  3 H s       :     0.809502  s :     0.809502
      pz      :     0.028857  p :     0.051879
      px      :     0.013046
      py      :     0.009976
  4 H s       :     0.827633  s :     0.827633
      pz      :     0.038451  p :     0.081749
      px      :     0.023885
      py      :     0.019413
  5 H s       :     0.794018  s :     0.794018
      pz      :     0.028271  p :     0.052740
      px      :     0.014200
      py      :     0.010269
  6 H s       :     0.804321  s :     0.804321
      pz      :     0.032874  p :     0.067988
      px      :     0.021311
      py      :     0.013802


                      *****************************
                      * MAYER POPULATION ANALYSIS *
                      *****************************

  NA   - Mulliken gross atomic population
  ZA   - Total nuclear charge
  QA   - Mulliken gross atomic charge
  VA   - Mayer's total valence
  BVA  - Mayer's bonded valence
  FA   - Mayer's free valence

  ATOM       NA         ZA         QA         VA         BVA        FA
  0 O      8.3839     8.0000    -0.3839     1.7918     1.7918    -0.0000
  1 C      6.0486     6.0000    -0.0486     3.9923     3.9923    -0.0000
  2 C      6.1475     6.0000    -0.1475     3.8187     3.8187    -0.0000
  3 H      0.8785     1.0000     0.1215     0.9718     0.9718    -0.0000
  4 H      0.8651     1.0000     0.1349     0.9774     0.9774    -0.0000
  5 H      0.8451     1.0000     0.1549     0.9602     0.9602    -0.0000
  6 H      0.8314     1.0000     0.1686     0.9563     0.9563    -0.0000

  Mayer bond orders larger than 0.100000
B(  0-O ,  1-C ) :   0.9375 B(  0-O ,  2-C ) :   0.8451 B(  1-C ,  2-C ) :   1.0970 
B(  1-C ,  3-H ) :   0.9650 B(  1-C ,  4-H ) :   0.9782 B(  2-C ,  5-H ) :   0.9419 
B(  2-C ,  6-H ) :   0.9384 

-------
TIMINGS
-------

Total SCF time: 0 days 0 hours 0 min 3 sec 

Total time                  ....       3.632 sec
Sum of individual times     ....       3.312 sec  ( 91.2%)

Fock matrix formation       ....       3.032 sec  ( 83.5%)
  Split-RI-J                ....       0.311 sec  ( 10.2% of F)
  Chain of spheres X        ....       2.092 sec  ( 69.0% of F)
  XC integration            ....       0.554 sec  ( 18.3% of F)
    Basis function eval.    ....       0.158 sec  ( 28.5% of XC)
    Density eval.           ....       0.115 sec  ( 20.8% of XC)
    XC-Functional eval.     ....       0.033 sec  (  6.0% of XC)
    XC-Potential eval.      ....       0.191 sec  ( 34.4% of XC)
Diagonalization             ....       0.018 sec  (  0.5%)
Density matrix formation    ....       0.002 sec  (  0.1%)
Population analysis         ....       0.003 sec  (  0.1%)
Initial guess               ....       0.016 sec  (  0.4%)
Orbital Transformation      ....       0.000 sec  (  0.0%)
Orbital Orthonormalization  ....       0.000 sec  (  0.0%)
DIIS solution               ....       0.015 sec  (  0.4%)
SOSCF solution              ....       0.021 sec  (  0.6%)
Grid generation             ....       0.204 sec  (  5.6%)

Maximum memory used throughout the entire SCF-calculation: 61.0 MB


-------------------------------------------------------------------------------
                          DFT DISPERSION CORRECTION                            
                                                                               
                              DFTD3 V3.1  Rev 1                                
                          USING Becke-Johnson damping                          
-------------------------------------------------------------------------------
The PBE0 functional is recognized
Active option DFTDOPT                   ...         4   

molecular C6(AA) [au] = 394.861073 


            DFT-D V3
 parameters
 s6 scaling factor         :     1.0000 
 a1 scaling factor         :     0.4145 
 s8 scaling factor         :     1.2177 
 a2 scaling factor         :     4.8593 
 ad hoc parameters k1-k3   :    16.0000     1.3333    -4.0000 

 Edisp/kcal,au: -1.646002171677  -0.002623071147 
 E6   /kcal   :  -1.073904353 
 E8   /kcal   :  -0.572097819 
 % E8         :  34.756808270 

-------------------------   ----------------
Dispersion correction           -0.002623071
-------------------------   ----------------


-------------------------   --------------------
FINAL SINGLE POINT ENERGY      -153.534007762814
-------------------------   --------------------



           ************************************************************
           *        Program running with 8 parallel MPI-processes     *
           *              working on a common directory               *
           ************************************************************
------------------------------------------------------------------------------
                         ORCA SCF GRADIENT CALCULATION
------------------------------------------------------------------------------

 ... reading COSX grid (gridx3)
Gradient of the Kohn-Sham DFT energy:
Kohn-Sham wavefunction type      ... RKS
Hartree-Fock exchange scaling    ...    0.250
Number of operators              ...    1
Number of atoms                  ...    7
Basis set dimensions             ...  117
Integral neglect threshold       ... 2.5e-11
Integral primitive cutoff        ... 2.5e-12
SHARK Integral package           ... ON

Nuc. rep. gradient       (SHARK) ... done (  0.0 sec)
HCore & Overlap gradient (SHARK) ... done (  0.0 sec)
RI-J gradient            (SHARK) ... done (  0.1 sec)
COSX-gradient                    ... done (  0.4 sec)
Exchange-correlation gradient    ... done
Dispersion correction            ... done

------------------
CARTESIAN GRADIENT
------------------

   1   O   :   -0.075213693    0.026117480    0.001114715
   2   C   :   -0.013970798   -0.066686692   -0.132987192
   3   C   :    0.035956735    0.025666661    0.061106344
   4   H   :   -0.013825847    0.021455507    0.034472656
   5   H   :    0.038578051    0.050053791    0.080552637
   6   H   :    0.020758060   -0.034803375   -0.033510520
   7   H   :    0.007744630   -0.021842311   -0.010706953

Difference to translation invariance:
           :    0.0000271382   -0.0000389372    0.0000416848

Difference to rotation invariance:
           :    0.0000700390    0.0000823109    0.0002442389

Norm of the cartesian gradient     ...    0.2238148113
RMS gradient                       ...    0.0488403959
MAX gradient                       ...    0.1329871923

-------
TIMINGS
-------

Total SCF gradient time            ...        0.775 sec

One electron gradient       ....       0.010 sec  (  1.3%)
RI-J Coulomb gradient       ....       0.084 sec  ( 10.9%)
COSX gradient               ....       0.357 sec  ( 46.0%)
XC gradient                 ....       0.174 sec  ( 22.4%)

Maximum memory used throughout the entire SCFGRAD-calculation: 35.9 MB

                            ***************************************
                            *     ORCA property calculations      *
                            ***************************************

                                    ---------------------
                                    Active property flags
                                    ---------------------
   (+) Dipole Moment


------------------------------------------------------------------------------
                       ORCA ELECTRIC PROPERTIES CALCULATION
------------------------------------------------------------------------------

Dipole Moment Calculation                       ... on
Quadrupole Moment Calculation                   ... off
Polarizability Calculation                      ... off
GBWName                                         ... ox_gs_E_orca0000.gbw
Electron density                                ... ox_gs_E_orca0000.scfp
The origin for moment calculation is the CENTER OF MASS  = (-0.666035,  0.103033 -0.027932)

-------------
DIPOLE MOMENT
-------------
                                X             Y             Z
Electronic contribution:     -0.74365       1.53020      -0.08510
Nuclear contribution   :      1.41612      -2.77800       0.08668
                        -----------------------------------------
Total Dipole Moment    :      0.67247      -1.24780       0.00158
                        -----------------------------------------
Magnitude (a.u.)       :      1.41747
Magnitude (Debye)      :      3.60292



--------------------
Rotational spectrum 
--------------------
 
Rotational constants in cm-1:     1.100972     0.398967     0.333077 
Rotational constants in MHz : 33006.312470 11960.722615  9985.401294 

 Dipole components along the rotational axes: 
x,y,z [a.u.] :    -1.297665    -0.570204    -0.012449 
x,y,z [Debye]:    -3.298402    -1.449342    -0.031643 

 

Timings for individual modules:

Sum of individual times         ...        5.050 sec (=   0.084 min)
GTO integral calculation        ...        0.290 sec (=   0.005 min)   5.7 %
SCF iterations                  ...        3.794 sec (=   0.063 min)  75.1 %
SCF Gradient evaluation         ...        0.966 sec (=   0.016 min)  19.1 %
                             ****ORCA TERMINATED NORMALLY****
TOTAL RUN TIME: 0 days 0 hours 0 minutes 5 seconds 387 msec
