
                                 *****************
                                 * O   R   C   A *
                                 *****************

                                            #,                                       
                                            ###                                      
                                            ####                                     
                                            #####                                    
                                            ######                                   
                                           ########,                                 
                                     ,,################,,,,,                         
                               ,,#################################,,                 
                          ,,##########################################,,             
                       ,#########################################, ''#####,          
                    ,#############################################,,   '####,        
                  ,##################################################,,,,####,       
                ,###########''''           ''''###############################       
              ,#####''   ,,,,##########,,,,          '''####'''          '####       
            ,##' ,,,,###########################,,,                        '##       
           ' ,,###''''                  '''############,,,                           
         ,,##''                                '''############,,,,        ,,,,,,###''
      ,#''                                            '''#######################'''  
     '                                                          ''''####''''         
             ,#######,   #######,   ,#######,      ##                                
            ,#'     '#,  ##    ##  ,#'     '#,    #''#        ######   ,####,        
            ##       ##  ##   ,#'  ##            #'  '#       #        #'  '#        
            ##       ##  #######   ##           ,######,      #####,   #    #        
            '#,     ,#'  ##    ##  '#,     ,#' ,#      #,         ##   #,  ,#        
             '#######'   ##     ##  '#######'  #'      '#     #####' # '####'        



                  #######################################################
                  #                        -***-                        #
                  #          Department of theory and spectroscopy      #
                  #    Directorship and core code : Frank Neese         #
                  #        Max Planck Institute fuer Kohlenforschung    #
                  #                Kaiser Wilhelm Platz 1               #
                  #                 D-45470 Muelheim/Ruhr               #
                  #                      Germany                        #
                  #                                                     #
                  #                  All rights reserved                #
                  #                        -***-                        #
                  #######################################################


                         Program Version 5.0.2 -  RELEASE  -


 With contributions from (in alphabetic order):
   Daniel Aravena         : Magnetic Suceptibility
   Michael Atanasov       : Ab Initio Ligand Field Theory (pilot matlab implementation)
   Alexander A. Auer      : GIAO ZORA, VPT2 properties, NMR spectrum
   Ute Becker             : Parallelization
   Giovanni Bistoni       : ED, misc. LED, open-shell LED, HFLD
   Martin Brehm           : Molecular dynamics
   Dmytro Bykov           : SCF Hessian
   Vijay G. Chilkuri      : MRCI spin determinant printing, contributions to CSF-ICE
   Dipayan Datta          : RHF DLPNO-CCSD density
   Achintya Kumar Dutta   : EOM-CC, STEOM-CC
   Dmitry Ganyushin       : Spin-Orbit,Spin-Spin,Magnetic field MRCI
   Miquel Garcia          : C-PCM and meta-GGA Hessian, CC/C-PCM, Gaussian charge scheme
   Yang Guo               : DLPNO-NEVPT2, F12-NEVPT2, CIM, IAO-localization
   Andreas Hansen         : Spin unrestricted coupled pair/coupled cluster methods
   Benjamin Helmich-Paris : MC-RPA, TRAH-SCF, COSX integrals
   Lee Huntington         : MR-EOM, pCC
   Robert Izsak           : Overlap fitted RIJCOSX, COSX-SCS-MP3, EOM
   Marcus Kettner         : VPT2
   Christian Kollmar      : KDIIS, OOCD, Brueckner-CCSD(T), CCSD density, CASPT2, CASPT2-K
   Simone Kossmann        : Meta GGA functionals, TD-DFT gradient, OOMP2, MP2 Hessian
   Martin Krupicka        : Initial AUTO-CI
   Lucas Lang             : DCDCAS
   Marvin Lechner         : AUTO-CI (C++ implementation), FIC-MRCC
   Dagmar Lenk            : GEPOL surface, SMD
   Dimitrios Liakos       : Extrapolation schemes; Compound Job, initial MDCI parallelization
   Dimitrios Manganas     : Further ROCIS development; embedding schemes
   Dimitrios Pantazis     : SARC Basis sets
   Anastasios Papadopoulos: AUTO-CI, single reference methods and gradients
   Taras Petrenko         : DFT Hessian,TD-DFT gradient, ASA, ECA, R-Raman, ABS, FL, XAS/XES, NRVS
   Peter Pinski           : DLPNO-MP2, DLPNO-MP2 Gradient
   Christoph Reimann      : Effective Core Potentials
   Marius Retegan         : Local ZFS, SOC
   Christoph Riplinger    : Optimizer, TS searches, QM/MM, DLPNO-CCSD(T), (RO)-DLPNO pert. Triples
   Tobias Risthaus        : Range-separated hybrids, TD-DFT gradient, RPA, STAB
   Michael Roemelt        : Original ROCIS implementation
   Masaaki Saitow         : Open-shell DLPNO-CCSD energy and density
   Barbara Sandhoefer     : DKH picture change effects
   Avijit Sen             : IP-ROCIS
   Kantharuban Sivalingam : CASSCF convergence, NEVPT2, FIC-MRCI
   Bernardo de Souza      : ESD, SOC TD-DFT
   Georgi Stoychev        : AutoAux, RI-MP2 NMR, DLPNO-MP2 response
   Willem Van den Heuvel  : Paramagnetic NMR
   Boris Wezisla          : Elementary symmetry handling
   Frank Wennmohs         : Technical directorship


 We gratefully acknowledge several colleagues who have allowed us to
 interface, adapt or use parts of their codes:
   Stefan Grimme, W. Hujo, H. Kruse, P. Pracht,  : VdW corrections, initial TS optimization,
                  C. Bannwarth, S. Ehlert          DFT functionals, gCP, sTDA/sTD-DF
   Ed Valeev, F. Pavosevic, A. Kumar             : LibInt (2-el integral package), F12 methods
   Garnet Chan, S. Sharma, J. Yang, R. Olivares  : DMRG
   Ulf Ekstrom                                   : XCFun DFT Library
   Mihaly Kallay                                 : mrcc  (arbitrary order and MRCC methods)
   Jiri Pittner, Ondrej Demel                    : Mk-CCSD
   Frank Weinhold                                : gennbo (NPA and NBO analysis)
   Christopher J. Cramer and Donald G. Truhlar   : smd solvation model
   Lars Goerigk                                  : TD-DFT with DH, B97 family of functionals
   V. Asgeirsson, H. Jonsson                     : NEB implementation
   FAccTs GmbH                                   : IRC, NEB, NEB-TS, DLPNO-Multilevel, CI-OPT
                                                   MM, QMMM, 2- and 3-layer-ONIOM, Crystal-QMMM,
                                                   LR-CPCM, SF, NACMEs, symmetry and pop. for TD-DFT,
                                                   nearIR, NL-DFT gradient (VV10), updates on ESD,
                                                   ML-optimized integration grids
   S Lehtola, MJT Oliveira, MAL Marques          : LibXC Library
   Liviu Ungur et al                             : ANISO software


 Your calculation uses the libint2 library for the computation of 2-el integrals
 For citations please refer to: http://libint.valeyev.net

 Your ORCA version has been built with support for libXC version: 5.1.0
 For citations please refer to: https://tddft.org/programs/libxc/

 This ORCA versions uses:
   CBLAS   interface :  Fast vector & matrix operations
   LAPACKE interface :  Fast linear algebra routines
   SCALAPACK package :  Parallel linear algebra routines
   Shared memory     :  Shared parallel matrices
   BLAS/LAPACK       :  OpenBLAS 0.3.15  USE64BITINT DYNAMIC_ARCH NO_AFFINITY SkylakeX SINGLE_THREADED
        Core in use  :  SkylakeX
   Copyright (c) 2011-2014, The OpenBLAS Project


Your calculation utilizes the atom-pairwise dispersion correction
with the Becke-Johnson damping scheme (D3BJ)
Cite in your paper:
S.Grimme, S.Ehrlich, L.Goerigk, J Comput Chem, (2011), 32, 1456–1465 
S.Grimme, J.Antony, S.Ehrlich and H.Krieg, J.Chem.Phys., 132, (2010), 154104 
   

================================================================================

----- Orbital basis set information -----
Your calculation utilizes the basis: def2-TZVP
   F. Weigend and R. Ahlrichs, Phys. Chem. Chem. Phys. 7, 3297 (2005).

----- AuxJ basis set information -----
Your calculation utilizes the auxiliary basis: def2/J
   F. Weigend, Phys. Chem. Chem. Phys. 8, 1057 (2006).

================================================================================
                                        WARNINGS
                       Please study these warnings very carefully!
================================================================================


INFO   : the flag for use of the SHARK integral package has been found!

================================================================================
                                       INPUT FILE
================================================================================
NAME = ox_gs_A_orca0043.inp
|  1> ! engrad PBE0 D3BJ def2-TZVP  
|  2> %pal nprocs 8 end
|  3> %maxcore 3000
|  4>  
|  5> *xyz 0 1 
|  6> O   0.06392264313036494 0.7764792634009953 0.0023219374078074406
|  7> C   -0.796882397048996 -0.40970781169863896 0.03227420905705377
|  8> C   0.837052276165273 -0.46240940174765005 0.010957516383196949
|  9> H   -1.2513537458144621 -0.5893981460118263 0.9152114433806524
| 10> H   -1.249871693711483 -0.6378760845141731 -0.9106457638421821
| 11> H   1.2415011392724735 -0.6585663603550846 -0.8662946325070114
| 12> H   1.212497105029447 -0.6616223262926562 0.8849701292530413
| 13> *
| 14> 
| 15>                          ****END OF INPUT****
================================================================================

                     *******************************
                     * Energy+Gradient Calculation *
                     *******************************

---------------------------------
CARTESIAN COORDINATES (ANGSTROEM)
---------------------------------
  O      0.063923    0.776479    0.002322
  C     -0.796882   -0.409708    0.032274
  C      0.837052   -0.462409    0.010958
  H     -1.251354   -0.589398    0.915211
  H     -1.249872   -0.637876   -0.910646
  H      1.241501   -0.658566   -0.866295
  H      1.212497   -0.661622    0.884970

----------------------------
CARTESIAN COORDINATES (A.U.)
----------------------------
  NO LB      ZA    FRAG     MASS         X           Y           Z
   0 O     8.0000    0    15.999    0.120796    1.467333    0.004388
   1 C     6.0000    0    12.011   -1.505889   -0.774236    0.060989
   2 C     6.0000    0    12.011    1.581800   -0.873827    0.020707
   3 H     1.0000    0     1.008   -2.364716   -1.113801    1.729499
   4 H     1.0000    0     1.008   -2.361915   -1.205411   -1.720871
   5 H     1.0000    0     1.008    2.346097   -1.244510   -1.637060
   6 H     1.0000    0     1.008    2.291287   -1.250285    1.672351

--------------------------------
INTERNAL COORDINATES (ANGSTROEM)
--------------------------------
 O      0   0   0     0.000000000000     0.00000000     0.00000000
 C      1   0   0     1.465920268264     0.00000000     0.00000000
 C      1   2   0     1.460359245985    67.93209509     0.00000000
 H      2   1   3     1.009163506499   115.23962513   106.80752726
 H      2   1   3     1.070681156509   113.75872766   256.37737350
 H      3   1   2     0.985711807787   112.38209964   106.34523384
 H      3   1   2     0.971875844068   112.56467603   257.39386590

---------------------------
INTERNAL COORDINATES (A.U.)
---------------------------
 O      0   0   0     0.000000000000     0.00000000     0.00000000
 C      1   0   0     2.770187841184     0.00000000     0.00000000
 C      1   2   0     2.759679032052    67.93209509     0.00000000
 H      2   1   3     1.907042651631   115.23962513   106.80752726
 H      2   1   3     2.023294162551   113.75872766   256.37737350
 H      3   1   2     1.862725363690   112.38209964   106.34523384
 H      3   1   2     1.836579181461   112.56467603   257.39386590

---------------------
BASIS SET INFORMATION
---------------------
There are 3 groups of distinct atoms

 Group   1 Type O   : 11s6p2d1f contracted to 5s3p2d1f pattern {62111/411/11/1}
 Group   2 Type C   : 11s6p2d1f contracted to 5s3p2d1f pattern {62111/411/11/1}
 Group   3 Type H   : 5s1p contracted to 3s1p pattern {311/1}

Atom   0O    basis set group =>   1
Atom   1C    basis set group =>   2
Atom   2C    basis set group =>   2
Atom   3H    basis set group =>   3
Atom   4H    basis set group =>   3
Atom   5H    basis set group =>   3
Atom   6H    basis set group =>   3
---------------------------------
AUXILIARY/J BASIS SET INFORMATION
---------------------------------
There are 3 groups of distinct atoms

 Group   1 Type O   : 12s5p4d2f1g contracted to 6s4p3d1f1g pattern {711111/2111/211/2/1}
 Group   2 Type C   : 12s5p4d2f1g contracted to 6s4p3d1f1g pattern {711111/2111/211/2/1}
 Group   3 Type H   : 5s2p1d contracted to 3s1p1d pattern {311/2/1}

Atom   0O    basis set group =>   1
Atom   1C    basis set group =>   2
Atom   2C    basis set group =>   2
Atom   3H    basis set group =>   3
Atom   4H    basis set group =>   3
Atom   5H    basis set group =>   3
Atom   6H    basis set group =>   3


           ************************************************************
           *        Program running with 8 parallel MPI-processes     *
           *              working on a common directory               *
           ************************************************************
------------------------------------------------------------------------------
                           ORCA GTO INTEGRAL CALCULATION
                           -- RI-GTO INTEGRALS CHOSEN --
------------------------------------------------------------------------------
------------------------------------------------------------------------------
                   ___                                                        
                  /   \      - P O W E R E D   B Y -                         
                 /     \                                                     
                 |  |  |   _    _      __       _____    __    __             
                 |  |  |  | |  | |    /  \     |  _  \  |  |  /  |          
                  \  \/   | |  | |   /    \    | | | |  |  | /  /          
                 / \  \   | |__| |  /  /\  \   | |_| |  |  |/  /          
                |  |  |   |  __  | /  /__\  \  |    /   |      \           
                |  |  |   | |  | | |   __   |  |    \   |  |\   \          
                \     /   | |  | | |  |  |  |  | |\  \  |  | \   \       
                 \___/    |_|  |_| |__|  |__|  |_| \__\ |__|  \__/        
                                                                              
                      - O R C A' S   B I G   F R I E N D -                    
                                      &                                       
                       - I N T E G R A L  F E E D E R -                       
                                                                              
 v1 FN, 2020, v2 2021                                                         
------------------------------------------------------------------------------


Reading SHARK input file ox_gs_A_orca0043.SHARKINP.tmp ... ok
----------------------
SHARK INTEGRAL PACKAGE
----------------------

Number of atoms                             ...      7
Number of basis functions                   ...    117
Number of shells                            ...     49
Maximum angular momentum                    ...      3
Integral batch strategy                     ... SHARK/LIBINT Hybrid
RI-J (if used) integral strategy            ... SPLIT-RIJ (Revised 2003 algorithm where possible)
Printlevel                                  ...      1
Contraction scheme used                     ... SEGMENTED contraction
Coulomb Range Separation                    ... NOT USED
Exchange Range Separation                   ... NOT USED
Finite Nucleus Model                        ... NOT USED
Auxiliary Coulomb fitting basis             ... AVAILABLE
   # of basis functions in Aux-J            ...    191
   # of shells in Aux-J                     ...     65
   Maximum angular momentum in Aux-J        ...      4
Auxiliary J/K fitting basis                 ... NOT available
Auxiliary Correlation fitting basis         ... NOT available
Auxiliary 'external' fitting basis          ... NOT available
Integral threshold                          ...     2.500000e-11
Primitive cut-off                           ...     2.500000e-12
Primitive pair pre-selection threshold      ...     2.500000e-12

Calculating pre-screening integrals         ... done (  0.0 sec) Dimension = 49
Organizing shell pair data                  ... done (  0.0 sec)
Shell pair information
Total number of shell pairs                 ...      1225
Shell pairs after pre-screening             ...      1220
Total number of primitive shell pairs       ...      3648
Primitive shell pairs kept                  ...      3145
          la=0 lb=0:    373 shell pairs
          la=1 lb=0:    351 shell pairs
          la=1 lb=1:     91 shell pairs
          la=2 lb=0:    162 shell pairs
          la=2 lb=1:     78 shell pairs
          la=2 lb=2:     21 shell pairs
          la=3 lb=0:     81 shell pairs
          la=3 lb=1:     39 shell pairs
          la=3 lb=2:     18 shell pairs
          la=3 lb=3:      6 shell pairs

Calculating one electron integrals          ... done (  0.0 sec)
Calculating RI/J V-Matrix + Cholesky decomp.... done (  0.0 sec)
Calculating Nuclear repulsion               ... done (  0.0 sec) ENN=     74.113481174973 Eh

SHARK setup successfully completed in   0.1 seconds

Maximum memory used throughout the entire GTOINT-calculation: 14.9 MB


           ************************************************************
           *        Program running with 8 parallel MPI-processes     *
           *              working on a common directory               *
           ************************************************************
-------------------------------------------------------------------------------
                                 ORCA SCF
-------------------------------------------------------------------------------

------------
SCF SETTINGS
------------
Hamiltonian:
 Density Functional     Method          .... DFT(GTOs)
 Exchange Functional    Exchange        .... PBE
   PBE kappa parameter   XKappa         ....  0.804000
   PBE mue parameter    XMuePBE         ....  0.219520
 Correlation Functional Correlation     .... PBE
   PBE beta parameter  CBetaPBE         ....  0.066725
 LDA part of GGA corr.  LDAOpt          .... PW91-LDA
 Gradients option       PostSCFGGA      .... off
 Hybrid DFT is turned on
   Fraction HF Exchange ScalHFX         ....  0.250000
   Scaling of DF-GGA-X  ScalDFX         ....  0.750000
   Scaling of DF-GGA-C  ScalDFC         ....  1.000000
   Scaling of DF-LDA-C  ScalLDAC        ....  1.000000
   Perturbative correction              ....  0.000000
   Density functional embedding theory  .... OFF
   NL short-range parameter             ....  6.900000
 RI-approximation to the Coulomb term is turned on
   Number of AuxJ basis functions       .... 191
   RIJ-COSX (HFX calculated with COS-X)).... on


General Settings:
 Integral files         IntName         .... ox_gs_A_orca0043
 Hartree-Fock type      HFTyp           .... RHF
 Total Charge           Charge          ....    0
 Multiplicity           Mult            ....    1
 Number of Electrons    NEL             ....   24
 Basis Dimension        Dim             ....  117
 Nuclear Repulsion      ENuc            ....     74.1134811750 Eh

Convergence Acceleration:
 DIIS                   CNVDIIS         .... on
   Start iteration      DIISMaxIt       ....    12
   Startup error        DIISStart       ....  0.200000
   # of expansion vecs  DIISMaxEq       ....     5
   Bias factor          DIISBfac        ....   1.050
   Max. coefficient     DIISMaxC        ....  10.000
 Trust-Rad. Augm. Hess. CNVTRAH         .... auto
   Auto Start mean grad. ratio tolernc. ....  1.125000
   Auto Start start iteration           ....    20
   Auto Start num. interpolation iter.  ....    10
   Max. Number of Micro iterations      ....    16
   Max. Number of Macro iterations      .... Maxiter - #DIIS iter
   Number of Davidson start vectors     ....     2
   Converg. threshold I  (grad. norm)   ....   1.000e-05
   Converg. threshold II (energy diff.) ....   1.000e-08
   Grad. Scal. Fac. for Micro threshold ....   0.100
   Minimum threshold for Micro iter.    ....   0.010
   NR start threshold (gradient norm)   ....   0.001
   Initial trust radius                 ....   0.400
   Minimum AH scaling param. (alpha)    ....   1.000
   Maximum AH scaling param. (alpha)    .... 1000.000
   Orbital update algorithm             .... Taylor
   White noise on init. David. guess    .... on
   Maximum white noise                  ....   0.010
   Quad. conv. algorithm                .... NR
 SOSCF                  CNVSOSCF        .... on
   Start iteration      SOSCFMaxIt      ....   150
   Startup grad/error   SOSCFStart      ....  0.003300
 Level Shifting         CNVShift        .... on
   Level shift para.    LevelShift      ....    0.2500
   Turn off err/grad.   ShiftErr        ....    0.0010
 Zerner damping         CNVZerner       .... off
 Static damping         CNVDamp         .... on
   Fraction old density DampFac         ....    0.7000
   Max. Damping (<1)    DampMax         ....    0.9800
   Min. Damping (>=0)   DampMin         ....    0.0000
   Turn off err/grad.   DampErr         ....    0.1000
 Fernandez-Rico         CNVRico         .... off

SCF Procedure:
 Maximum # iterations   MaxIter         ....   125
 SCF integral mode      SCFMode         .... Direct
   Integral package                     .... SHARK and LIBINT hybrid scheme
 Reset frequency        DirectResetFreq ....    20
 Integral Threshold     Thresh          ....  2.500e-11 Eh
 Primitive CutOff       TCut            ....  2.500e-12 Eh

Convergence Tolerance:
 Convergence Check Mode ConvCheckMode   .... Total+1el-Energy
 Convergence forced     ConvForced      .... 0
 Energy Change          TolE            ....  1.000e-08 Eh
 1-El. energy change                    ....  1.000e-05 Eh
 Orbital Gradient       TolG            ....  1.000e-05
 Orbital Rotation angle TolX            ....  1.000e-05
 DIIS Error             TolErr          ....  5.000e-07


Diagonalization of the overlap matrix:
Smallest eigenvalue                        ... 8.710e-04
Time for diagonalization                   ...    0.001 sec
Threshold for overlap eigenvalues          ... 1.000e-08
Number of eigenvalues below threshold      ... 0
Time for construction of square roots      ...    0.001 sec
Total time needed                          ...    0.003 sec

Time for model grid setup =    0.024 sec

------------------------------
INITIAL GUESS: MODEL POTENTIAL
------------------------------
Loading Hartree-Fock densities                     ... done
Calculating cut-offs                               ... done
Initializing the effective Hamiltonian             ... done
Setting up the integral package (SHARK)            ... done
Starting the Coulomb interaction                   ... done (   0.0 sec)
Reading the grid                                   ... done
Mapping shells                                     ... done
Starting the XC term evaluation                    ... done (   0.0 sec)
  promolecular density results
     # of electrons  =     23.997351439
     EX              =    -19.540852931
     EC              =     -0.780001006
     EX+EC           =    -20.320853937
Transforming the Hamiltonian                       ... done (   0.0 sec)
Diagonalizing the Hamiltonian                      ... done (   0.0 sec)
Back transforming the eigenvectors                 ... done (   0.0 sec)
Now organizing SCF variables                       ... done
                      ------------------
                      INITIAL GUESS DONE (   0.0 sec)
                      ------------------
-------------------
DFT GRID GENERATION
-------------------

General Integration Accuracy     IntAcc      ... 4.388
Radial Grid Type                 RadialGrid  ... OptM3 with GC (2021)
Angular Grid (max. ang.)         AngularGrid ... 4 (Lebedev-302)
Angular grid pruning method      GridPruning ... 4 (adaptive)
Weight generation scheme         WeightScheme... Becke
Basis function cutoff            BFCut       ... 1.0000e-11
Integration weight cutoff        WCut        ... 1.0000e-14
Angular grids for H and He will be reduced by one unit
Partially contracted basis set               ... off
Rotationally invariant grid construction     ... off

Total number of grid points                  ...    31298
Total number of batches                      ...      492
Average number of points per batch           ...       63
Average number of grid points per atom       ...     4471
Time for grid setup =    0.108 sec

--------------------
COSX GRID GENERATION
--------------------

GRIDX 1
-------
General Integration Accuracy     IntAcc      ... 3.816
Radial Grid Type                 RadialGrid  ... OptM3 with GC (2021)
Angular Grid (max. ang.)         AngularGrid ... 1 (Lebedev-50)
Angular grid pruning method      GridPruning ... 4 (adaptive)
Weight generation scheme         WeightScheme... Becke
Basis function cutoff            BFCut       ... 1.0000e-11
Integration weight cutoff        WCut        ... 1.0000e-14
Angular grids for H and He will be reduced by one unit
Partially contracted basis set               ... on
Rotationally invariant grid construction     ... off

Total number of grid points                  ...     4034
Total number of batches                      ...       67
Average number of points per batch           ...       60
Average number of grid points per atom       ...      576
UseSFitting                                  ... on

GRIDX 2
-------
General Integration Accuracy     IntAcc      ... 4.020
Radial Grid Type                 RadialGrid  ... OptM3 with GC (2021)
Angular Grid (max. ang.)         AngularGrid ... 2 (Lebedev-110)
Angular grid pruning method      GridPruning ... 4 (adaptive)
Weight generation scheme         WeightScheme... Becke
Basis function cutoff            BFCut       ... 1.0000e-11
Integration weight cutoff        WCut        ... 1.0000e-14
Angular grids for H and He will be reduced by one unit
Partially contracted basis set               ... on
Rotationally invariant grid construction     ... off

Total number of grid points                  ...     8709
Total number of batches                      ...      139
Average number of points per batch           ...       62
Average number of grid points per atom       ...     1244
UseSFitting                                  ... on

GRIDX 3
-------
General Integration Accuracy     IntAcc      ... 4.338
Radial Grid Type                 RadialGrid  ... OptM3 with GC (2021)
Angular Grid (max. ang.)         AngularGrid ... 3 (Lebedev-194)
Angular grid pruning method      GridPruning ... 4 (adaptive)
Weight generation scheme         WeightScheme... Becke
Basis function cutoff            BFCut       ... 1.0000e-11
Integration weight cutoff        WCut        ... 1.0000e-14
Angular grids for H and He will be reduced by one unit
Partially contracted basis set               ... on
Rotationally invariant grid construction     ... off

Total number of grid points                  ...    19261
Total number of batches                      ...      305
Average number of points per batch           ...       63
Average number of grid points per atom       ...     2752
UseSFitting                                  ... on

Time for X-Grid setup             =    0.072 sec

--------------
SCF ITERATIONS
--------------
ITER       Energy         Delta-E        Max-DP      RMS-DP      [F,P]     Damp
               ***  Starting incremental Fock matrix formation  ***
  0   -153.5752805696   0.000000000000 0.03029760  0.00107392  0.1669208 0.7000
  1   -153.6011848611  -0.025904291471 0.01663557  0.00080060  0.0727047 0.7000
                               ***Turning on DIIS***
  2   -153.6126794640  -0.011494602981 0.02626343  0.00142516  0.0347275 0.0000
  3   -153.6317057872  -0.019026323133 0.01348099  0.00059332  0.0371507 0.0000
  4   -153.6347185340  -0.003012746795 0.00395792  0.00015120  0.0091420 0.0000
  5   -153.6348942519  -0.000175717967 0.00122445  0.00005068  0.0035248 0.0000
                      *** Initiating the SOSCF procedure ***
                           *** Shutting down DIIS ***
                      *** Re-Reading the Fockian *** 
                      *** Removing any level shift *** 
ITER      Energy       Delta-E        Grad      Rot      Max-DP    RMS-DP
  6   -153.63491469  -0.0000204402  0.000081  0.000081  0.000626  0.000022
               *** Restarting incremental Fock matrix formation ***
  7   -153.63489174   0.0000229477  0.000095  0.000270  0.000150  0.000006
  8   -153.63489164   0.0000001080  0.000149  0.000165  0.000095  0.000004
  9   -153.63489183  -0.0000001959  0.000005  0.000009  0.000013  0.000000
 10   -153.63489183   0.0000000016  0.000009  0.000007  0.000008  0.000000
                  ***Gradient check signals convergence***
              ***Rediagonalizing the Fockian in SOSCF/NRSCF***

               *****************************************************
               *                     SUCCESS                       *
               *           SCF CONVERGED AFTER  11 CYCLES          *
               *****************************************************

Old exchange energy                            =     -5.004640508 Eh
New exchange energy                            =     -5.004652063 Eh
Exchange energy change after final integration =     -0.000011555 Eh
Total energy after final integration           =   -153.634903387 Eh
Final COS-X integration done in                =     0.260 sec

----------------
TOTAL SCF ENERGY
----------------

Total Energy       :         -153.63490339 Eh           -4180.61826 eV

Components:
Nuclear Repulsion  :           74.11348117 Eh            2016.73035 eV
Electronic Energy  :         -227.74838456 Eh           -6197.34861 eV
One Electron Energy:         -354.87032499 Eh           -9656.51247 eV
Two Electron Energy:          127.12194043 Eh            3459.16386 eV
Max COSX asymmetry :            0.00000164 Eh               0.00004 eV

Virial components:
Potential Energy   :         -306.76933452 Eh           -8347.61798 eV
Kinetic Energy     :          153.13443113 Eh            4166.99972 eV
Virial Ratio       :            2.00326819


DFT components:
N(Alpha)           :       12.000000514324 electrons
N(Beta)            :       12.000000514324 electrons
N(Total)           :       24.000001028648 electrons
E(X)               :      -14.986819198347 Eh       
E(C)               :       -0.787845083694 Eh       
E(XC)              :      -15.774664282041 Eh       
DFET-embed. en.    :        0.000000000000 Eh       

---------------
SCF CONVERGENCE
---------------

  Last Energy change         ...   -1.2546e-09  Tolerance :   1.0000e-08
  Last MAX-Density change    ...    1.9984e-15  Tolerance :   1.0000e-07
  Last RMS-Density change    ...    2.5970e-17  Tolerance :   5.0000e-09
  Last Orbital Gradient      ...    8.2520e-07  Tolerance :   1.0000e-05
  Last Orbital Rotation      ...    1.0167e-06  Tolerance :   1.0000e-05

             **** THE GBW FILE WAS UPDATED (ox_gs_A_orca0043.gbw) ****
             **** DENSITY ox_gs_A_orca0043.scfp WAS UPDATED ****
             **** ENERGY FILE WAS UPDATED (ox_gs_A_orca0043.en.tmp) ****
             **** THE GBW FILE WAS UPDATED (ox_gs_A_orca0043.gbw) ****
             **** DENSITY ox_gs_A_orca0043.scfp WAS UPDATED ****
----------------
ORBITAL ENERGIES
----------------

  NO   OCC          E(Eh)            E(eV) 
   0   2.0000     -19.221186      -523.0351 
   1   2.0000     -10.276057      -279.6257 
   2   2.0000     -10.263376      -279.2807 
   3   2.0000      -1.072858       -29.1940 
   4   2.0000      -0.699371       -19.0309 
   5   2.0000      -0.677162       -18.4265 
   6   2.0000      -0.543120       -14.7790 
   7   2.0000      -0.478544       -13.0218 
   8   2.0000      -0.442064       -12.0292 
   9   2.0000      -0.417882       -11.3711 
  10   2.0000      -0.298612        -8.1256 
  11   2.0000      -0.291725        -7.9382 
  12   0.0000       0.052945         1.4407 
  13   0.0000       0.071582         1.9478 
  14   0.0000       0.078805         2.1444 
  15   0.0000       0.109729         2.9859 
  16   0.0000       0.114435         3.1139 
  17   0.0000       0.157126         4.2756 
  18   0.0000       0.191403         5.2084 
  19   0.0000       0.194878         5.3029 
  20   0.0000       0.265628         7.2281 
  21   0.0000       0.273694         7.4476 
  22   0.0000       0.304340         8.2815 
  23   0.0000       0.320136         8.7114 
  24   0.0000       0.349475         9.5097 
  25   0.0000       0.389859        10.6086 
  26   0.0000       0.402845        10.9620 
  27   0.0000       0.440138        11.9768 
  28   0.0000       0.458040        12.4639 
  29   0.0000       0.484026        13.1710 
  30   0.0000       0.519788        14.1442 
  31   0.0000       0.534144        14.5348 
  32   0.0000       0.571613        15.5544 
  33   0.0000       0.706117        19.2144 
  34   0.0000       0.710194        19.3254 
  35   0.0000       0.716495        19.4968 
  36   0.0000       0.825847        22.4725 
  37   0.0000       0.865495        23.5513 
  38   0.0000       0.905771        24.6473 
  39   0.0000       0.933042        25.3894 
  40   0.0000       0.994441        27.0601 
  41   0.0000       1.004796        27.3419 
  42   0.0000       1.010753        27.5040 
  43   0.0000       1.067313        29.0431 
  44   0.0000       1.135790        30.9064 
  45   0.0000       1.343687        36.5636 
  46   0.0000       1.441132        39.2152 
  47   0.0000       1.445942        39.3461 
  48   0.0000       1.494796        40.6755 
  49   0.0000       1.504473        40.9388 
  50   0.0000       1.617729        44.0206 
  51   0.0000       1.668653        45.4064 
  52   0.0000       1.689258        45.9671 
  53   0.0000       1.723934        46.9106 
  54   0.0000       1.817406        49.4541 
  55   0.0000       1.841299        50.1043 
  56   0.0000       1.850230        50.3473 
  57   0.0000       1.892679        51.5024 
  58   0.0000       1.912159        52.0325 
  59   0.0000       1.927602        52.4527 
  60   0.0000       2.154176        58.6181 
  61   0.0000       2.162437        58.8429 
  62   0.0000       2.191211        59.6259 
  63   0.0000       2.221597        60.4527 
  64   0.0000       2.268710        61.7348 
  65   0.0000       2.456415        66.8424 
  66   0.0000       2.511834        68.3505 
  67   0.0000       2.529621        68.8345 
  68   0.0000       2.564411        69.7812 
  69   0.0000       2.650208        72.1158 
  70   0.0000       2.654561        72.2343 
  71   0.0000       2.682382        72.9913 
  72   0.0000       2.727564        74.2208 
  73   0.0000       2.743499        74.6544 
  74   0.0000       2.757156        75.0260 
  75   0.0000       2.827201        76.9320 
  76   0.0000       2.850609        77.5690 
  77   0.0000       2.967278        80.7437 
  78   0.0000       3.005012        81.7705 
  79   0.0000       3.027514        82.3828 
  80   0.0000       3.056827        83.1805 
  81   0.0000       3.144909        85.5773 
  82   0.0000       3.176520        86.4375 
  83   0.0000       3.183200        86.6193 
  84   0.0000       3.296408        89.6998 
  85   0.0000       3.329252        90.5936 
  86   0.0000       3.363570        91.5274 
  87   0.0000       3.383585        92.0720 
  88   0.0000       3.558359        96.8279 
  89   0.0000       3.605022        98.0976 
  90   0.0000       3.662099        99.6508 
  91   0.0000       3.697515       100.6145 
  92   0.0000       3.757212       102.2389 
  93   0.0000       3.866405       105.2102 
  94   0.0000       3.991722       108.6203 
  95   0.0000       4.087783       111.2342 
  96   0.0000       4.286318       116.6367 
  97   0.0000       4.351199       118.4021 
  98   0.0000       4.492678       122.2520 
  99   0.0000       4.588577       124.8615 
 100   0.0000       4.794565       130.4668 
 101   0.0000       4.825650       131.3126 
 102   0.0000       5.297497       144.1522 
 103   0.0000       5.463542       148.6705 
 104   0.0000       5.665184       154.1575 
 105   0.0000       5.728545       155.8816 
 106   0.0000       5.751070       156.4946 
 107   0.0000       5.859219       159.4374 
 108   0.0000       6.012687       163.6135 
 109   0.0000       6.637035       180.6029 
 110   0.0000       6.655243       181.0984 
 111   0.0000       6.760259       183.9560 
 112   0.0000       6.943426       188.9402 
 113   0.0000       7.204383       196.0412 
 114   0.0000      22.334559       607.7542 
 115   0.0000      22.513496       612.6234 
 116   0.0000      43.843677      1193.0471 

                    ********************************
                    * MULLIKEN POPULATION ANALYSIS *
                    ********************************

-----------------------
MULLIKEN ATOMIC CHARGES
-----------------------
   0 O :   -0.313929
   1 C :   -0.097772
   2 C :   -0.089052
   3 H :    0.127594
   4 H :    0.122424
   5 H :    0.126476
   6 H :    0.124259
Sum of atomic charges:    0.0000000

--------------------------------
MULLIKEN REDUCED ORBITAL CHARGES
--------------------------------
  0 O s       :     3.853427  s :     3.853427
      pz      :     1.868082  p :     4.418935
      px      :     1.275334
      py      :     1.275519
      dz2     :     0.005408  d :     0.039692
      dxz     :     0.002557
      dyz     :     0.005462
      dx2y2   :     0.011218
      dxy     :     0.015047
      f0      :     0.000215  f :     0.001875
      f+1     :     0.000212
      f-1     :     0.000414
      f+2     :     0.000046
      f-2     :     0.000198
      f+3     :     0.000292
      f-3     :     0.000498
  1 C s       :     3.238600  s :     3.238600
      pz      :     1.046778  p :     2.752672
      px      :     0.878654
      py      :     0.827240
      dz2     :     0.007610  d :     0.096371
      dxz     :     0.022274
      dyz     :     0.025756
      dx2y2   :     0.023901
      dxy     :     0.016829
      f0      :     0.001482  f :     0.010130
      f+1     :     0.001448
      f-1     :     0.000491
      f+2     :     0.000711
      f-2     :     0.001648
      f+3     :     0.002180
      f-3     :     0.002169
  2 C s       :     3.220300  s :     3.220300
      pz      :     1.061421  p :     2.761284
      px      :     0.894517
      py      :     0.805347
      dz2     :     0.008267  d :     0.097155
      dxz     :     0.019566
      dyz     :     0.027979
      dx2y2   :     0.024708
      dxy     :     0.016636
      f0      :     0.001733  f :     0.010312
      f+1     :     0.001365
      f-1     :     0.000555
      f+2     :     0.000804
      f-2     :     0.001533
      f+3     :     0.002060
      f-3     :     0.002261
  3 H s       :     0.848483  s :     0.848483
      pz      :     0.011734  p :     0.023924
      px      :     0.006852
      py      :     0.005338
  4 H s       :     0.855265  s :     0.855265
      pz      :     0.011640  p :     0.022311
      px      :     0.005943
      py      :     0.004727
  5 H s       :     0.849089  s :     0.849089
      pz      :     0.011890  p :     0.024434
      px      :     0.006855
      py      :     0.005689
  6 H s       :     0.850848  s :     0.850848
      pz      :     0.011920  p :     0.024893
      px      :     0.006971
      py      :     0.006002


                     *******************************
                     * LOEWDIN POPULATION ANALYSIS *
                     *******************************

----------------------
LOEWDIN ATOMIC CHARGES
----------------------
   0 O :    0.075095
   1 C :   -0.230775
   2 C :   -0.210880
   3 H :    0.089634
   4 H :    0.110124
   5 H :    0.085947
   6 H :    0.080855

-------------------------------
LOEWDIN REDUCED ORBITAL CHARGES
-------------------------------
  0 O s       :     3.411095  s :     3.411095
      pz      :     1.758522  p :     4.419764
      px      :     1.277640
      py      :     1.383603
      dz2     :     0.010928  d :     0.088302
      dxz     :     0.007801
      dyz     :     0.012380
      dx2y2   :     0.030106
      dxy     :     0.027088
      f0      :     0.000532  f :     0.005744
      f+1     :     0.000288
      f-1     :     0.000723
      f+2     :     0.000098
      f-2     :     0.000903
      f+3     :     0.001088
      f-3     :     0.002111
  1 C s       :     2.850749  s :     2.850749
      pz      :     1.082161  p :     2.929896
      px      :     0.968867
      py      :     0.878867
      dz2     :     0.055405  d :     0.393090
      dxz     :     0.098506
      dyz     :     0.072048
      dx2y2   :     0.085797
      dxy     :     0.081335
      f0      :     0.008506  f :     0.057040
      f+1     :     0.005374
      f-1     :     0.004709
      f+2     :     0.004156
      f-2     :     0.007308
      f+3     :     0.013938
      f-3     :     0.013048
  2 C s       :     2.825649  s :     2.825649
      pz      :     1.091142  p :     2.929406
      px      :     0.977420
      py      :     0.860844
      dz2     :     0.059861  d :     0.396359
      dxz     :     0.087811
      dyz     :     0.078505
      dx2y2   :     0.090634
      dxy     :     0.079548
      f0      :     0.009596  f :     0.059466
      f+1     :     0.005417
      f-1     :     0.005421
      f+2     :     0.004938
      f-2     :     0.006628
      f+3     :     0.013371
      f-3     :     0.014095
  3 H s       :     0.832540  s :     0.832540
      pz      :     0.039112  p :     0.077825
      px      :     0.021334
      py      :     0.017380
  4 H s       :     0.823217  s :     0.823217
      pz      :     0.035391  p :     0.066659
      px      :     0.017011
      py      :     0.014257
  5 H s       :     0.832683  s :     0.832683
      pz      :     0.040361  p :     0.081371
      px      :     0.022075
      py      :     0.018936
  6 H s       :     0.834692  s :     0.834692
      pz      :     0.041519  p :     0.084453
      px      :     0.022778
      py      :     0.020156


                      *****************************
                      * MAYER POPULATION ANALYSIS *
                      *****************************

  NA   - Mulliken gross atomic population
  ZA   - Total nuclear charge
  QA   - Mulliken gross atomic charge
  VA   - Mayer's total valence
  BVA  - Mayer's bonded valence
  FA   - Mayer's free valence

  ATOM       NA         ZA         QA         VA         BVA        FA
  0 O      8.3139     8.0000    -0.3139     1.9724     1.9724     0.0000
  1 C      6.0978     6.0000    -0.0978     3.9494     3.9494    -0.0000
  2 C      6.0891     6.0000    -0.0891     3.9686     3.9686     0.0000
  3 H      0.8724     1.0000     0.1276     0.9599     0.9599    -0.0000
  4 H      0.8776     1.0000     0.1224     0.9621     0.9621    -0.0000
  5 H      0.8735     1.0000     0.1265     0.9627     0.9627     0.0000
  6 H      0.8757     1.0000     0.1243     0.9615     0.9615     0.0000

  Mayer bond orders larger than 0.100000
B(  0-O ,  1-C ) :   0.9927 B(  0-O ,  2-C ) :   0.9860 B(  1-C ,  2-C ) :   1.0321 
B(  1-C ,  3-H ) :   0.9604 B(  1-C ,  4-H ) :   0.9592 B(  2-C ,  5-H ) :   0.9696 
B(  2-C ,  6-H ) :   0.9707 

-------
TIMINGS
-------

Total SCF time: 0 days 0 hours 0 min 2 sec 

Total time                  ....       2.524 sec
Sum of individual times     ....       2.331 sec  ( 92.3%)

Fock matrix formation       ....       2.064 sec  ( 81.8%)
  Split-RI-J                ....       0.230 sec  ( 11.1% of F)
  Chain of spheres X        ....       1.417 sec  ( 68.7% of F)
  XC integration            ....       0.395 sec  ( 19.2% of F)
    Basis function eval.    ....       0.105 sec  ( 26.5% of XC)
    Density eval.           ....       0.081 sec  ( 20.4% of XC)
    XC-Functional eval.     ....       0.022 sec  (  5.6% of XC)
    XC-Potential eval.      ....       0.138 sec  ( 34.8% of XC)
Diagonalization             ....       0.016 sec  (  0.6%)
Density matrix formation    ....       0.001 sec  (  0.1%)
Population analysis         ....       0.004 sec  (  0.2%)
Initial guess               ....       0.017 sec  (  0.7%)
Orbital Transformation      ....       0.000 sec  (  0.0%)
Orbital Orthonormalization  ....       0.000 sec  (  0.0%)
DIIS solution               ....       0.013 sec  (  0.5%)
SOSCF solution              ....       0.011 sec  (  0.4%)
Grid generation             ....       0.204 sec  (  8.1%)

Maximum memory used throughout the entire SCF-calculation: 61.1 MB


-------------------------------------------------------------------------------
                          DFT DISPERSION CORRECTION                            
                                                                               
                              DFTD3 V3.1  Rev 1                                
                          USING Becke-Johnson damping                          
-------------------------------------------------------------------------------
The PBE0 functional is recognized
Active option DFTDOPT                   ...         4   

molecular C6(AA) [au] = 350.956871 


            DFT-D V3
 parameters
 s6 scaling factor         :     1.0000 
 a1 scaling factor         :     0.4145 
 s8 scaling factor         :     1.2177 
 a2 scaling factor         :     4.8593 
 ad hoc parameters k1-k3   :    16.0000     1.3333    -4.0000 

 Edisp/kcal,au: -1.514278265964  -0.002413155764 
 E6   /kcal   :  -0.993056164 
 E8   /kcal   :  -0.521222102 
 % E8         :  34.420496804 

-------------------------   ----------------
Dispersion correction           -0.002413156
-------------------------   ----------------


-------------------------   --------------------
FINAL SINGLE POINT ENERGY      -153.637316542352
-------------------------   --------------------



           ************************************************************
           *        Program running with 8 parallel MPI-processes     *
           *              working on a common directory               *
           ************************************************************
------------------------------------------------------------------------------
                         ORCA SCF GRADIENT CALCULATION
------------------------------------------------------------------------------

 ... reading COSX grid (gridx3)
Gradient of the Kohn-Sham DFT energy:
Kohn-Sham wavefunction type      ... RKS
Hartree-Fock exchange scaling    ...    0.250
Number of operators              ...    1
Number of atoms                  ...    7
Basis set dimensions             ...  117
Integral neglect threshold       ... 2.5e-11
Integral primitive cutoff        ... 2.5e-12
SHARK Integral package           ... ON

Nuc. rep. gradient       (SHARK) ... done (  0.0 sec)
HCore & Overlap gradient (SHARK) ... done (  0.0 sec)
RI-J gradient            (SHARK) ... done (  0.1 sec)
COSX-gradient                    ... done (  0.3 sec)
Exchange-correlation gradient    ... done
Dispersion correction            ... done

------------------
CARTESIAN GRADIENT
------------------

   1   O   :    0.007488882    0.032281233   -0.002524417
   2   C   :   -0.121241302   -0.029090385    0.054736528
   3   C   :    0.166266657   -0.059444447    0.011586381
   4   H   :    0.029908665    0.010662959   -0.053387887
   5   H   :    0.008494098    0.000935334    0.005176450
   6   H   :   -0.041344321    0.021556466    0.074160090
   7   H   :   -0.049638751    0.023000484   -0.089813480

Difference to translation invariance:
           :   -0.0000660716   -0.0000983561   -0.0000663340

Difference to rotation invariance:
           :   -0.0001286110    0.0000463602   -0.0000071257

Norm of the cartesian gradient     ...    0.2713860147
RMS gradient                       ...    0.0592212836
MAX gradient                       ...    0.1662666569

-------
TIMINGS
-------

Total SCF gradient time            ...        0.702 sec

One electron gradient       ....       0.010 sec  (  1.4%)
RI-J Coulomb gradient       ....       0.079 sec  ( 11.3%)
COSX gradient               ....       0.310 sec  ( 44.2%)
XC gradient                 ....       0.156 sec  ( 22.2%)

Maximum memory used throughout the entire SCFGRAD-calculation: 35.9 MB

                            ***************************************
                            *     ORCA property calculations      *
                            ***************************************

                                    ---------------------
                                    Active property flags
                                    ---------------------
   (+) Dipole Moment


------------------------------------------------------------------------------
                       ORCA ELECTRIC PROPERTIES CALCULATION
------------------------------------------------------------------------------

Dipole Moment Calculation                       ... on
Quadrupole Moment Calculation                   ... off
Polarizability Calculation                      ... off
GBWName                                         ... ox_gs_A_orca0043.gbw
Electron density                                ... ox_gs_A_orca0043.scfp
The origin for moment calculation is the CENTER OF MASS  = ( 0.062525, -0.026594  0.024873)

-------------
DIPOLE MOMENT
-------------
                                X             Y             Z
Electronic contribution:      0.15447       1.58091       0.04461
Nuclear contribution   :     -0.16802      -2.32547      -0.02775
                        -----------------------------------------
Total Dipole Moment    :     -0.01354      -0.74455       0.01687
                        -----------------------------------------
Magnitude (a.u.)       :      0.74487
Magnitude (Debye)      :      1.89330



--------------------
Rotational spectrum 
--------------------
 
Rotational constants in cm-1:     0.883043     0.661623     0.442298 
Rotational constants in MHz : 26472.973836 19834.946464 13259.768847 

 Dipole components along the rotational axes: 
x,y,z [a.u.] :    -0.014120     0.744695     0.007509 
x,y,z [Debye]:    -0.035891     1.892864     0.019087 

 

Timings for individual modules:

Sum of individual times         ...        3.958 sec (=   0.066 min)
GTO integral calculation        ...        0.302 sec (=   0.005 min)   7.6 %
SCF iterations                  ...        2.727 sec (=   0.045 min)  68.9 %
SCF Gradient evaluation         ...        0.929 sec (=   0.015 min)  23.5 %
                             ****ORCA TERMINATED NORMALLY****
TOTAL RUN TIME: 0 days 0 hours 0 minutes 4 seconds 231 msec
