
                                 *****************
                                 * O   R   C   A *
                                 *****************

                                            #,                                       
                                            ###                                      
                                            ####                                     
                                            #####                                    
                                            ######                                   
                                           ########,                                 
                                     ,,################,,,,,                         
                               ,,#################################,,                 
                          ,,##########################################,,             
                       ,#########################################, ''#####,          
                    ,#############################################,,   '####,        
                  ,##################################################,,,,####,       
                ,###########''''           ''''###############################       
              ,#####''   ,,,,##########,,,,          '''####'''          '####       
            ,##' ,,,,###########################,,,                        '##       
           ' ,,###''''                  '''############,,,                           
         ,,##''                                '''############,,,,        ,,,,,,###''
      ,#''                                            '''#######################'''  
     '                                                          ''''####''''         
             ,#######,   #######,   ,#######,      ##                                
            ,#'     '#,  ##    ##  ,#'     '#,    #''#        ######   ,####,        
            ##       ##  ##   ,#'  ##            #'  '#       #        #'  '#        
            ##       ##  #######   ##           ,######,      #####,   #    #        
            '#,     ,#'  ##    ##  '#,     ,#' ,#      #,         ##   #,  ,#        
             '#######'   ##     ##  '#######'  #'      '#     #####' # '####'        



                  #######################################################
                  #                        -***-                        #
                  #          Department of theory and spectroscopy      #
                  #    Directorship and core code : Frank Neese         #
                  #        Max Planck Institute fuer Kohlenforschung    #
                  #                Kaiser Wilhelm Platz 1               #
                  #                 D-45470 Muelheim/Ruhr               #
                  #                      Germany                        #
                  #                                                     #
                  #                  All rights reserved                #
                  #                        -***-                        #
                  #######################################################


                         Program Version 5.0.2 -  RELEASE  -


 With contributions from (in alphabetic order):
   Daniel Aravena         : Magnetic Suceptibility
   Michael Atanasov       : Ab Initio Ligand Field Theory (pilot matlab implementation)
   Alexander A. Auer      : GIAO ZORA, VPT2 properties, NMR spectrum
   Ute Becker             : Parallelization
   Giovanni Bistoni       : ED, misc. LED, open-shell LED, HFLD
   Martin Brehm           : Molecular dynamics
   Dmytro Bykov           : SCF Hessian
   Vijay G. Chilkuri      : MRCI spin determinant printing, contributions to CSF-ICE
   Dipayan Datta          : RHF DLPNO-CCSD density
   Achintya Kumar Dutta   : EOM-CC, STEOM-CC
   Dmitry Ganyushin       : Spin-Orbit,Spin-Spin,Magnetic field MRCI
   Miquel Garcia          : C-PCM and meta-GGA Hessian, CC/C-PCM, Gaussian charge scheme
   Yang Guo               : DLPNO-NEVPT2, F12-NEVPT2, CIM, IAO-localization
   Andreas Hansen         : Spin unrestricted coupled pair/coupled cluster methods
   Benjamin Helmich-Paris : MC-RPA, TRAH-SCF, COSX integrals
   Lee Huntington         : MR-EOM, pCC
   Robert Izsak           : Overlap fitted RIJCOSX, COSX-SCS-MP3, EOM
   Marcus Kettner         : VPT2
   Christian Kollmar      : KDIIS, OOCD, Brueckner-CCSD(T), CCSD density, CASPT2, CASPT2-K
   Simone Kossmann        : Meta GGA functionals, TD-DFT gradient, OOMP2, MP2 Hessian
   Martin Krupicka        : Initial AUTO-CI
   Lucas Lang             : DCDCAS
   Marvin Lechner         : AUTO-CI (C++ implementation), FIC-MRCC
   Dagmar Lenk            : GEPOL surface, SMD
   Dimitrios Liakos       : Extrapolation schemes; Compound Job, initial MDCI parallelization
   Dimitrios Manganas     : Further ROCIS development; embedding schemes
   Dimitrios Pantazis     : SARC Basis sets
   Anastasios Papadopoulos: AUTO-CI, single reference methods and gradients
   Taras Petrenko         : DFT Hessian,TD-DFT gradient, ASA, ECA, R-Raman, ABS, FL, XAS/XES, NRVS
   Peter Pinski           : DLPNO-MP2, DLPNO-MP2 Gradient
   Christoph Reimann      : Effective Core Potentials
   Marius Retegan         : Local ZFS, SOC
   Christoph Riplinger    : Optimizer, TS searches, QM/MM, DLPNO-CCSD(T), (RO)-DLPNO pert. Triples
   Tobias Risthaus        : Range-separated hybrids, TD-DFT gradient, RPA, STAB
   Michael Roemelt        : Original ROCIS implementation
   Masaaki Saitow         : Open-shell DLPNO-CCSD energy and density
   Barbara Sandhoefer     : DKH picture change effects
   Avijit Sen             : IP-ROCIS
   Kantharuban Sivalingam : CASSCF convergence, NEVPT2, FIC-MRCI
   Bernardo de Souza      : ESD, SOC TD-DFT
   Georgi Stoychev        : AutoAux, RI-MP2 NMR, DLPNO-MP2 response
   Willem Van den Heuvel  : Paramagnetic NMR
   Boris Wezisla          : Elementary symmetry handling
   Frank Wennmohs         : Technical directorship


 We gratefully acknowledge several colleagues who have allowed us to
 interface, adapt or use parts of their codes:
   Stefan Grimme, W. Hujo, H. Kruse, P. Pracht,  : VdW corrections, initial TS optimization,
                  C. Bannwarth, S. Ehlert          DFT functionals, gCP, sTDA/sTD-DF
   Ed Valeev, F. Pavosevic, A. Kumar             : LibInt (2-el integral package), F12 methods
   Garnet Chan, S. Sharma, J. Yang, R. Olivares  : DMRG
   Ulf Ekstrom                                   : XCFun DFT Library
   Mihaly Kallay                                 : mrcc  (arbitrary order and MRCC methods)
   Jiri Pittner, Ondrej Demel                    : Mk-CCSD
   Frank Weinhold                                : gennbo (NPA and NBO analysis)
   Christopher J. Cramer and Donald G. Truhlar   : smd solvation model
   Lars Goerigk                                  : TD-DFT with DH, B97 family of functionals
   V. Asgeirsson, H. Jonsson                     : NEB implementation
   FAccTs GmbH                                   : IRC, NEB, NEB-TS, DLPNO-Multilevel, CI-OPT
                                                   MM, QMMM, 2- and 3-layer-ONIOM, Crystal-QMMM,
                                                   LR-CPCM, SF, NACMEs, symmetry and pop. for TD-DFT,
                                                   nearIR, NL-DFT gradient (VV10), updates on ESD,
                                                   ML-optimized integration grids
   S Lehtola, MJT Oliveira, MAL Marques          : LibXC Library
   Liviu Ungur et al                             : ANISO software


 Your calculation uses the libint2 library for the computation of 2-el integrals
 For citations please refer to: http://libint.valeyev.net

 Your ORCA version has been built with support for libXC version: 5.1.0
 For citations please refer to: https://tddft.org/programs/libxc/

 This ORCA versions uses:
   CBLAS   interface :  Fast vector & matrix operations
   LAPACKE interface :  Fast linear algebra routines
   SCALAPACK package :  Parallel linear algebra routines
   Shared memory     :  Shared parallel matrices
   BLAS/LAPACK       :  OpenBLAS 0.3.15  USE64BITINT DYNAMIC_ARCH NO_AFFINITY SkylakeX SINGLE_THREADED
        Core in use  :  SkylakeX
   Copyright (c) 2011-2014, The OpenBLAS Project


Your calculation utilizes the atom-pairwise dispersion correction
with the Becke-Johnson damping scheme (D3BJ)
Cite in your paper:
S.Grimme, S.Ehrlich, L.Goerigk, J Comput Chem, (2011), 32, 1456–1465 
S.Grimme, J.Antony, S.Ehrlich and H.Krieg, J.Chem.Phys., 132, (2010), 154104 
   

================================================================================

----- Orbital basis set information -----
Your calculation utilizes the basis: def2-TZVP
   F. Weigend and R. Ahlrichs, Phys. Chem. Chem. Phys. 7, 3297 (2005).

----- AuxJ basis set information -----
Your calculation utilizes the auxiliary basis: def2/J
   F. Weigend, Phys. Chem. Chem. Phys. 8, 1057 (2006).

================================================================================
                                        WARNINGS
                       Please study these warnings very carefully!
================================================================================


INFO   : the flag for use of the SHARK integral package has been found!

================================================================================
                                       INPUT FILE
================================================================================
NAME = ox_gs_A_orca0045.inp
|  1> ! engrad PBE0 D3BJ def2-TZVP  
|  2> %pal nprocs 8 end
|  3> %maxcore 3000
|  4>  
|  5> *xyz 0 1 
|  6> O   -0.05350418831630763 0.6906480514537631 -0.03459529349406223
|  7> C   -0.7311688908177749 -0.4348535175338654 -0.012061802892816494
|  8> C   0.7464923098257148 -0.5095974612095222 0.07218823020366298
|  9> H   -1.2679304889196283 -0.6124060184205936 0.9371124873188852
| 10> H   -1.2409851090423107 -0.6397825459883899 -0.8975907919991343
| 11> H   1.295958957993377 -0.6018132334933785 -0.9101501615149266
| 12> H   1.2992730578794256 -0.6727575947143614 0.9919820307724736
| 13> *
| 14> 
| 15>                          ****END OF INPUT****
================================================================================

                     *******************************
                     * Energy+Gradient Calculation *
                     *******************************

---------------------------------
CARTESIAN COORDINATES (ANGSTROEM)
---------------------------------
  O     -0.053504    0.690648   -0.034595
  C     -0.731169   -0.434854   -0.012062
  C      0.746492   -0.509597    0.072188
  H     -1.267930   -0.612406    0.937112
  H     -1.240985   -0.639783   -0.897591
  H      1.295959   -0.601813   -0.910150
  H      1.299273   -0.672758    0.991982

----------------------------
CARTESIAN COORDINATES (A.U.)
----------------------------
  NO LB      ZA    FRAG     MASS         X           Y           Z
   0 O     8.0000    0    15.999   -0.101108    1.305136   -0.065376
   1 C     6.0000    0    12.011   -1.381709   -0.821754   -0.022794
   2 C     6.0000    0    12.011    1.410666   -0.963000    0.136416
   3 H     1.0000    0     1.008   -2.396041   -1.157280    1.770886
   4 H     1.0000    0     1.008   -2.345122   -1.209014   -1.696201
   5 H     1.0000    0     1.008    2.449008   -1.137262   -1.719935
   6 H     1.0000    0     1.008    2.455270   -1.271328    1.874574

--------------------------------
INTERNAL COORDINATES (ANGSTROEM)
--------------------------------
 O      0   0   0     0.000000000000     0.00000000     0.00000000
 C      1   0   0     1.313960040872     0.00000000     0.00000000
 C      1   2   0     1.446370080111    64.73423684     0.00000000
 H      2   1   3     1.104793979422   113.76375264   107.14054299
 H      2   1   3     1.042146857989   113.96418158   245.43937306
 H      3   1   2     1.129338772004   105.82192707   111.03288993
 H      3   1   2     1.085453094403   117.96771959   246.41884639

---------------------------
INTERNAL COORDINATES (A.U.)
---------------------------
 O      0   0   0     0.000000000000     0.00000000     0.00000000
 C      1   0   0     2.483024628164     0.00000000     0.00000000
 C      1   2   0     2.733243339708    64.73423684     0.00000000
 H      2   1   3     2.087758055512   113.76375264   107.14054299
 H      2   1   3     1.969372152925   113.96418158   245.43937306
 H      3   1   2     2.134140991506   105.82192707   111.03288993
 H      3   1   2     2.051209079639   117.96771959   246.41884639

---------------------
BASIS SET INFORMATION
---------------------
There are 3 groups of distinct atoms

 Group   1 Type O   : 11s6p2d1f contracted to 5s3p2d1f pattern {62111/411/11/1}
 Group   2 Type C   : 11s6p2d1f contracted to 5s3p2d1f pattern {62111/411/11/1}
 Group   3 Type H   : 5s1p contracted to 3s1p pattern {311/1}

Atom   0O    basis set group =>   1
Atom   1C    basis set group =>   2
Atom   2C    basis set group =>   2
Atom   3H    basis set group =>   3
Atom   4H    basis set group =>   3
Atom   5H    basis set group =>   3
Atom   6H    basis set group =>   3
---------------------------------
AUXILIARY/J BASIS SET INFORMATION
---------------------------------
There are 3 groups of distinct atoms

 Group   1 Type O   : 12s5p4d2f1g contracted to 6s4p3d1f1g pattern {711111/2111/211/2/1}
 Group   2 Type C   : 12s5p4d2f1g contracted to 6s4p3d1f1g pattern {711111/2111/211/2/1}
 Group   3 Type H   : 5s2p1d contracted to 3s1p1d pattern {311/2/1}

Atom   0O    basis set group =>   1
Atom   1C    basis set group =>   2
Atom   2C    basis set group =>   2
Atom   3H    basis set group =>   3
Atom   4H    basis set group =>   3
Atom   5H    basis set group =>   3
Atom   6H    basis set group =>   3


           ************************************************************
           *        Program running with 8 parallel MPI-processes     *
           *              working on a common directory               *
           ************************************************************
------------------------------------------------------------------------------
                           ORCA GTO INTEGRAL CALCULATION
                           -- RI-GTO INTEGRALS CHOSEN --
------------------------------------------------------------------------------
------------------------------------------------------------------------------
                   ___                                                        
                  /   \      - P O W E R E D   B Y -                         
                 /     \                                                     
                 |  |  |   _    _      __       _____    __    __             
                 |  |  |  | |  | |    /  \     |  _  \  |  |  /  |          
                  \  \/   | |  | |   /    \    | | | |  |  | /  /          
                 / \  \   | |__| |  /  /\  \   | |_| |  |  |/  /          
                |  |  |   |  __  | /  /__\  \  |    /   |      \           
                |  |  |   | |  | | |   __   |  |    \   |  |\   \          
                \     /   | |  | | |  |  |  |  | |\  \  |  | \   \       
                 \___/    |_|  |_| |__|  |__|  |_| \__\ |__|  \__/        
                                                                              
                      - O R C A' S   B I G   F R I E N D -                    
                                      &                                       
                       - I N T E G R A L  F E E D E R -                       
                                                                              
 v1 FN, 2020, v2 2021                                                         
------------------------------------------------------------------------------


Reading SHARK input file ox_gs_A_orca0045.SHARKINP.tmp ... ok
----------------------
SHARK INTEGRAL PACKAGE
----------------------

Number of atoms                             ...      7
Number of basis functions                   ...    117
Number of shells                            ...     49
Maximum angular momentum                    ...      3
Integral batch strategy                     ... SHARK/LIBINT Hybrid
RI-J (if used) integral strategy            ... SPLIT-RIJ (Revised 2003 algorithm where possible)
Printlevel                                  ...      1
Contraction scheme used                     ... SEGMENTED contraction
Coulomb Range Separation                    ... NOT USED
Exchange Range Separation                   ... NOT USED
Finite Nucleus Model                        ... NOT USED
Auxiliary Coulomb fitting basis             ... AVAILABLE
   # of basis functions in Aux-J            ...    191
   # of shells in Aux-J                     ...     65
   Maximum angular momentum in Aux-J        ...      4
Auxiliary J/K fitting basis                 ... NOT available
Auxiliary Correlation fitting basis         ... NOT available
Auxiliary 'external' fitting basis          ... NOT available
Integral threshold                          ...     2.500000e-11
Primitive cut-off                           ...     2.500000e-12
Primitive pair pre-selection threshold      ...     2.500000e-12

Calculating pre-screening integrals         ... done (  0.0 sec) Dimension = 49
Organizing shell pair data                  ... done (  0.0 sec)
Shell pair information
Total number of shell pairs                 ...      1225
Shell pairs after pre-screening             ...      1221
Total number of primitive shell pairs       ...      3648
Primitive shell pairs kept                  ...      3157
          la=0 lb=0:    374 shell pairs
          la=1 lb=0:    351 shell pairs
          la=1 lb=1:     91 shell pairs
          la=2 lb=0:    162 shell pairs
          la=2 lb=1:     78 shell pairs
          la=2 lb=2:     21 shell pairs
          la=3 lb=0:     81 shell pairs
          la=3 lb=1:     39 shell pairs
          la=3 lb=2:     18 shell pairs
          la=3 lb=3:      6 shell pairs

Calculating one electron integrals          ... done (  0.0 sec)
Calculating RI/J V-Matrix + Cholesky decomp.... done (  0.0 sec)
Calculating Nuclear repulsion               ... done (  0.0 sec) ENN=     76.641181447127 Eh

SHARK setup successfully completed in   0.1 seconds

Maximum memory used throughout the entire GTOINT-calculation: 14.9 MB


           ************************************************************
           *        Program running with 8 parallel MPI-processes     *
           *              working on a common directory               *
           ************************************************************
-------------------------------------------------------------------------------
                                 ORCA SCF
-------------------------------------------------------------------------------

------------
SCF SETTINGS
------------
Hamiltonian:
 Density Functional     Method          .... DFT(GTOs)
 Exchange Functional    Exchange        .... PBE
   PBE kappa parameter   XKappa         ....  0.804000
   PBE mue parameter    XMuePBE         ....  0.219520
 Correlation Functional Correlation     .... PBE
   PBE beta parameter  CBetaPBE         ....  0.066725
 LDA part of GGA corr.  LDAOpt          .... PW91-LDA
 Gradients option       PostSCFGGA      .... off
 Hybrid DFT is turned on
   Fraction HF Exchange ScalHFX         ....  0.250000
   Scaling of DF-GGA-X  ScalDFX         ....  0.750000
   Scaling of DF-GGA-C  ScalDFC         ....  1.000000
   Scaling of DF-LDA-C  ScalLDAC        ....  1.000000
   Perturbative correction              ....  0.000000
   Density functional embedding theory  .... OFF
   NL short-range parameter             ....  6.900000
 RI-approximation to the Coulomb term is turned on
   Number of AuxJ basis functions       .... 191
   RIJ-COSX (HFX calculated with COS-X)).... on


General Settings:
 Integral files         IntName         .... ox_gs_A_orca0045
 Hartree-Fock type      HFTyp           .... RHF
 Total Charge           Charge          ....    0
 Multiplicity           Mult            ....    1
 Number of Electrons    NEL             ....   24
 Basis Dimension        Dim             ....  117
 Nuclear Repulsion      ENuc            ....     76.6411814471 Eh

Convergence Acceleration:
 DIIS                   CNVDIIS         .... on
   Start iteration      DIISMaxIt       ....    12
   Startup error        DIISStart       ....  0.200000
   # of expansion vecs  DIISMaxEq       ....     5
   Bias factor          DIISBfac        ....   1.050
   Max. coefficient     DIISMaxC        ....  10.000
 Trust-Rad. Augm. Hess. CNVTRAH         .... auto
   Auto Start mean grad. ratio tolernc. ....  1.125000
   Auto Start start iteration           ....    20
   Auto Start num. interpolation iter.  ....    10
   Max. Number of Micro iterations      ....    16
   Max. Number of Macro iterations      .... Maxiter - #DIIS iter
   Number of Davidson start vectors     ....     2
   Converg. threshold I  (grad. norm)   ....   1.000e-05
   Converg. threshold II (energy diff.) ....   1.000e-08
   Grad. Scal. Fac. for Micro threshold ....   0.100
   Minimum threshold for Micro iter.    ....   0.010
   NR start threshold (gradient norm)   ....   0.001
   Initial trust radius                 ....   0.400
   Minimum AH scaling param. (alpha)    ....   1.000
   Maximum AH scaling param. (alpha)    .... 1000.000
   Orbital update algorithm             .... Taylor
   White noise on init. David. guess    .... on
   Maximum white noise                  ....   0.010
   Quad. conv. algorithm                .... NR
 SOSCF                  CNVSOSCF        .... on
   Start iteration      SOSCFMaxIt      ....   150
   Startup grad/error   SOSCFStart      ....  0.003300
 Level Shifting         CNVShift        .... on
   Level shift para.    LevelShift      ....    0.2500
   Turn off err/grad.   ShiftErr        ....    0.0010
 Zerner damping         CNVZerner       .... off
 Static damping         CNVDamp         .... on
   Fraction old density DampFac         ....    0.7000
   Max. Damping (<1)    DampMax         ....    0.9800
   Min. Damping (>=0)   DampMin         ....    0.0000
   Turn off err/grad.   DampErr         ....    0.1000
 Fernandez-Rico         CNVRico         .... off

SCF Procedure:
 Maximum # iterations   MaxIter         ....   125
 SCF integral mode      SCFMode         .... Direct
   Integral package                     .... SHARK and LIBINT hybrid scheme
 Reset frequency        DirectResetFreq ....    20
 Integral Threshold     Thresh          ....  2.500e-11 Eh
 Primitive CutOff       TCut            ....  2.500e-12 Eh

Convergence Tolerance:
 Convergence Check Mode ConvCheckMode   .... Total+1el-Energy
 Convergence forced     ConvForced      .... 0
 Energy Change          TolE            ....  1.000e-08 Eh
 1-El. energy change                    ....  1.000e-05 Eh
 Orbital Gradient       TolG            ....  1.000e-05
 Orbital Rotation angle TolX            ....  1.000e-05
 DIIS Error             TolErr          ....  5.000e-07


Diagonalization of the overlap matrix:
Smallest eigenvalue                        ... 4.063e-04
Time for diagonalization                   ...    0.001 sec
Threshold for overlap eigenvalues          ... 1.000e-08
Number of eigenvalues below threshold      ... 0
Time for construction of square roots      ...    0.001 sec
Total time needed                          ...    0.003 sec

Time for model grid setup =    0.021 sec

------------------------------
INITIAL GUESS: MODEL POTENTIAL
------------------------------
Loading Hartree-Fock densities                     ... done
Calculating cut-offs                               ... done
Initializing the effective Hamiltonian             ... done
Setting up the integral package (SHARK)            ... done
Starting the Coulomb interaction                   ... done (   0.0 sec)
Reading the grid                                   ... done
Mapping shells                                     ... done
Starting the XC term evaluation                    ... done (   0.0 sec)
  promolecular density results
     # of electrons  =     23.997388259
     EX              =    -19.568437805
     EC              =     -0.785543356
     EX+EC           =    -20.353981160
Transforming the Hamiltonian                       ... done (   0.0 sec)
Diagonalizing the Hamiltonian                      ... done (   0.0 sec)
Back transforming the eigenvectors                 ... done (   0.0 sec)
Now organizing SCF variables                       ... done
                      ------------------
                      INITIAL GUESS DONE (   0.0 sec)
                      ------------------
-------------------
DFT GRID GENERATION
-------------------

General Integration Accuracy     IntAcc      ... 4.388
Radial Grid Type                 RadialGrid  ... OptM3 with GC (2021)
Angular Grid (max. ang.)         AngularGrid ... 4 (Lebedev-302)
Angular grid pruning method      GridPruning ... 4 (adaptive)
Weight generation scheme         WeightScheme... Becke
Basis function cutoff            BFCut       ... 1.0000e-11
Integration weight cutoff        WCut        ... 1.0000e-14
Angular grids for H and He will be reduced by one unit
Partially contracted basis set               ... off
Rotationally invariant grid construction     ... off

Total number of grid points                  ...    31310
Total number of batches                      ...      493
Average number of points per batch           ...       63
Average number of grid points per atom       ...     4473
Time for grid setup =    0.113 sec

--------------------
COSX GRID GENERATION
--------------------

GRIDX 1
-------
General Integration Accuracy     IntAcc      ... 3.816
Radial Grid Type                 RadialGrid  ... OptM3 with GC (2021)
Angular Grid (max. ang.)         AngularGrid ... 1 (Lebedev-50)
Angular grid pruning method      GridPruning ... 4 (adaptive)
Weight generation scheme         WeightScheme... Becke
Basis function cutoff            BFCut       ... 1.0000e-11
Integration weight cutoff        WCut        ... 1.0000e-14
Angular grids for H and He will be reduced by one unit
Partially contracted basis set               ... on
Rotationally invariant grid construction     ... off

Total number of grid points                  ...     4034
Total number of batches                      ...       67
Average number of points per batch           ...       60
Average number of grid points per atom       ...      576
UseSFitting                                  ... on

GRIDX 2
-------
General Integration Accuracy     IntAcc      ... 4.020
Radial Grid Type                 RadialGrid  ... OptM3 with GC (2021)
Angular Grid (max. ang.)         AngularGrid ... 2 (Lebedev-110)
Angular grid pruning method      GridPruning ... 4 (adaptive)
Weight generation scheme         WeightScheme... Becke
Basis function cutoff            BFCut       ... 1.0000e-11
Integration weight cutoff        WCut        ... 1.0000e-14
Angular grids for H and He will be reduced by one unit
Partially contracted basis set               ... on
Rotationally invariant grid construction     ... off

Total number of grid points                  ...     8711
Total number of batches                      ...      140
Average number of points per batch           ...       62
Average number of grid points per atom       ...     1244
UseSFitting                                  ... on

GRIDX 3
-------
General Integration Accuracy     IntAcc      ... 4.338
Radial Grid Type                 RadialGrid  ... OptM3 with GC (2021)
Angular Grid (max. ang.)         AngularGrid ... 3 (Lebedev-194)
Angular grid pruning method      GridPruning ... 4 (adaptive)
Weight generation scheme         WeightScheme... Becke
Basis function cutoff            BFCut       ... 1.0000e-11
Integration weight cutoff        WCut        ... 1.0000e-14
Angular grids for H and He will be reduced by one unit
Partially contracted basis set               ... on
Rotationally invariant grid construction     ... off

Total number of grid points                  ...    19239
Total number of batches                      ...      303
Average number of points per batch           ...       63
Average number of grid points per atom       ...     2748
UseSFitting                                  ... on

Time for X-Grid setup             =    0.073 sec

--------------
SCF ITERATIONS
--------------
ITER       Energy         Delta-E        Max-DP      RMS-DP      [F,P]     Damp
               ***  Starting incremental Fock matrix formation  ***
  0   -153.5906683072   0.000000000000 0.03603533  0.00122403  0.1842780 0.7000
  1   -153.6226960352  -0.032027728028 0.01963940  0.00089797  0.0776572 0.7000
                               ***Turning on DIIS***
  2   -153.6355120607  -0.012816025493 0.02723974  0.00149248  0.0320566 0.0000
  3   -153.6562443097  -0.020732249034 0.01480248  0.00066908  0.0424943 0.0000
  4   -153.6603932167  -0.004148907002 0.00360810  0.00019392  0.0072913 0.0000
  5   -153.6605839002  -0.000190683436 0.00156809  0.00006790  0.0036491 0.0000
                      *** Initiating the SOSCF procedure ***
                           *** Shutting down DIIS ***
                      *** Re-Reading the Fockian *** 
                      *** Removing any level shift *** 
ITER      Energy       Delta-E        Grad      Rot      Max-DP    RMS-DP
  6   -153.66060606  -0.0000221557  0.000157  0.000157  0.001064  0.000034
               *** Restarting incremental Fock matrix formation ***
  7   -153.66059399   0.0000120664  0.000049  0.000114  0.000109  0.000005
  8   -153.66059394   0.0000000522  0.000084  0.000085  0.000067  0.000003
  9   -153.66059405  -0.0000001139  0.000008  0.000011  0.000021  0.000001
 10   -153.66059405   0.0000000007  0.000010  0.000006  0.000012  0.000000
                  ***Gradient check signals convergence***
              ***Rediagonalizing the Fockian in SOSCF/NRSCF***

               *****************************************************
               *                     SUCCESS                       *
               *           SCF CONVERGED AFTER  11 CYCLES          *
               *****************************************************

Old exchange energy                            =     -5.007371637 Eh
New exchange energy                            =     -5.007359457 Eh
Exchange energy change after final integration =      0.000012180 Eh
Total energy after final integration           =   -153.660581873 Eh
Final COS-X integration done in                =     0.271 sec

----------------
TOTAL SCF ENERGY
----------------

Total Energy       :         -153.66058187 Eh           -4181.31701 eV

Components:
Nuclear Repulsion  :           76.64118145 Eh            2085.51257 eV
Electronic Energy  :         -230.30176332 Eh           -6266.82958 eV
One Electron Energy:         -359.85028232 Eh           -9792.02400 eV
Two Electron Energy:          129.54851900 Eh            3525.19442 eV
Max COSX asymmetry :            0.00000224 Eh               0.00006 eV

Virial components:
Potential Energy   :         -306.79003960 Eh           -8348.18139 eV
Kinetic Energy     :          153.12945772 Eh            4166.86438 eV
Virial Ratio       :            2.00346846


DFT components:
N(Alpha)           :       12.000001695668 electrons
N(Beta)            :       12.000001695668 electrons
N(Total)           :       24.000003391336 electrons
E(X)               :      -14.986620256320 Eh       
E(C)               :       -0.793502510078 Eh       
E(XC)              :      -15.780122766398 Eh       
DFET-embed. en.    :        0.000000000000 Eh       

---------------
SCF CONVERGENCE
---------------

  Last Energy change         ...   -2.3503e-09  Tolerance :   1.0000e-08
  Last MAX-Density change    ...    9.9920e-16  Tolerance :   1.0000e-07
  Last RMS-Density change    ...    2.3231e-17  Tolerance :   5.0000e-09
  Last Orbital Gradient      ...    6.5947e-07  Tolerance :   1.0000e-05
  Last Orbital Rotation      ...    8.0895e-07  Tolerance :   1.0000e-05

             **** THE GBW FILE WAS UPDATED (ox_gs_A_orca0045.gbw) ****
             **** DENSITY ox_gs_A_orca0045.scfp WAS UPDATED ****
             **** ENERGY FILE WAS UPDATED (ox_gs_A_orca0045.en.tmp) ****
             **** THE GBW FILE WAS UPDATED (ox_gs_A_orca0045.gbw) ****
             **** DENSITY ox_gs_A_orca0045.scfp WAS UPDATED ****
----------------
ORBITAL ENERGIES
----------------

  NO   OCC          E(Eh)            E(eV) 
   0   2.0000     -19.218282      -522.9560 
   1   2.0000     -10.280253      -279.7399 
   2   2.0000     -10.269767      -279.4546 
   3   2.0000      -1.138799       -30.9883 
   4   2.0000      -0.688522       -18.7356 
   5   2.0000      -0.662464       -18.0266 
   6   2.0000      -0.542247       -14.7553 
   7   2.0000      -0.507385       -13.8067 
   8   2.0000      -0.429540       -11.6884 
   9   2.0000      -0.398947       -10.8559 
  10   2.0000      -0.322962        -8.7882 
  11   2.0000      -0.285330        -7.7642 
  12   0.0000       0.064105         1.7444 
  13   0.0000       0.072798         1.9809 
  14   0.0000       0.086155         2.3444 
  15   0.0000       0.100985         2.7479 
  16   0.0000       0.121667         3.3107 
  17   0.0000       0.151141         4.1128 
  18   0.0000       0.192541         5.2393 
  19   0.0000       0.207990         5.6597 
  20   0.0000       0.267916         7.2904 
  21   0.0000       0.273869         7.4524 
  22   0.0000       0.288090         7.8393 
  23   0.0000       0.354857         9.6561 
  24   0.0000       0.395754        10.7690 
  25   0.0000       0.401360        10.9216 
  26   0.0000       0.424145        11.5416 
  27   0.0000       0.439442        11.9578 
  28   0.0000       0.451058        12.2739 
  29   0.0000       0.480618        13.0783 
  30   0.0000       0.491756        13.3814 
  31   0.0000       0.522671        14.2226 
  32   0.0000       0.539174        14.6717 
  33   0.0000       0.702099        19.1051 
  34   0.0000       0.710604        19.3365 
  35   0.0000       0.736265        20.0348 
  36   0.0000       0.825363        22.4593 
  37   0.0000       0.834993        22.7213 
  38   0.0000       0.891693        24.2642 
  39   0.0000       0.935646        25.4602 
  40   0.0000       1.022375        27.8202 
  41   0.0000       1.053088        28.6560 
  42   0.0000       1.054962        28.7070 
  43   0.0000       1.078551        29.3489 
  44   0.0000       1.181964        32.1629 
  45   0.0000       1.358908        36.9778 
  46   0.0000       1.443097        39.2687 
  47   0.0000       1.510981        41.1159 
  48   0.0000       1.520132        41.3649 
  49   0.0000       1.530751        41.6538 
  50   0.0000       1.607315        43.7373 
  51   0.0000       1.637781        44.5663 
  52   0.0000       1.649553        44.8866 
  53   0.0000       1.672380        45.5078 
  54   0.0000       1.757107        47.8133 
  55   0.0000       1.797788        48.9203 
  56   0.0000       1.831649        49.8417 
  57   0.0000       1.910852        51.9969 
  58   0.0000       1.953737        53.1639 
  59   0.0000       2.004701        54.5507 
  60   0.0000       2.133147        58.0459 
  61   0.0000       2.155782        58.6618 
  62   0.0000       2.209453        60.1223 
  63   0.0000       2.245481        61.1027 
  64   0.0000       2.275705        61.9251 
  65   0.0000       2.415613        65.7322 
  66   0.0000       2.436675        66.3053 
  67   0.0000       2.479915        67.4819 
  68   0.0000       2.563271        69.7501 
  69   0.0000       2.588138        70.4268 
  70   0.0000       2.617758        71.2328 
  71   0.0000       2.679850        72.9224 
  72   0.0000       2.724746        74.1441 
  73   0.0000       2.747579        74.7654 
  74   0.0000       2.776065        75.5406 
  75   0.0000       2.835377        77.1545 
  76   0.0000       2.905523        79.0633 
  77   0.0000       2.956140        80.4407 
  78   0.0000       3.008329        81.8608 
  79   0.0000       3.037837        82.6637 
  80   0.0000       3.077763        83.7502 
  81   0.0000       3.099828        84.3506 
  82   0.0000       3.118857        84.8684 
  83   0.0000       3.267529        88.9140 
  84   0.0000       3.319962        90.3408 
  85   0.0000       3.349837        91.1537 
  86   0.0000       3.373044        91.7852 
  87   0.0000       3.435909        93.4958 
  88   0.0000       3.547529        96.5332 
  89   0.0000       3.585063        97.5545 
  90   0.0000       3.694029       100.5196 
  91   0.0000       3.740151       101.7747 
  92   0.0000       3.871487       105.3485 
  93   0.0000       4.025110       109.5288 
  94   0.0000       4.052492       110.2739 
  95   0.0000       4.081769       111.0706 
  96   0.0000       4.218481       114.7907 
  97   0.0000       4.281995       116.5190 
  98   0.0000       4.369278       118.8941 
  99   0.0000       4.623924       125.8234 
 100   0.0000       4.676073       127.2424 
 101   0.0000       4.894968       133.1989 
 102   0.0000       5.367267       146.0508 
 103   0.0000       5.490206       149.3961 
 104   0.0000       5.709512       155.3637 
 105   0.0000       5.865651       159.6125 
 106   0.0000       5.953185       161.9944 
 107   0.0000       5.968257       162.4045 
 108   0.0000       6.164297       167.7390 
 109   0.0000       6.654503       181.0782 
 110   0.0000       6.691445       182.0835 
 111   0.0000       6.834798       185.9843 
 112   0.0000       6.992305       190.2703 
 113   0.0000       7.203723       196.0233 
 114   0.0000      22.240780       605.2024 
 115   0.0000      22.636162       615.9613 
 116   0.0000      43.909264      1194.8318 

                    ********************************
                    * MULLIKEN POPULATION ANALYSIS *
                    ********************************

-----------------------
MULLIKEN ATOMIC CHARGES
-----------------------
   0 O :   -0.298765
   1 C :   -0.024795
   2 C :   -0.126066
   3 H :    0.090346
   4 H :    0.101919
   5 H :    0.123549
   6 H :    0.133812
Sum of atomic charges:    0.0000000

--------------------------------
MULLIKEN REDUCED ORBITAL CHARGES
--------------------------------
  0 O s       :     3.835918  s :     3.835918
      pz      :     1.818066  p :     4.412225
      px      :     1.298475
      py      :     1.295684
      dz2     :     0.005806  d :     0.048114
      dxz     :     0.003652
      dyz     :     0.007885
      dx2y2   :     0.013793
      dxy     :     0.016977
      f0      :     0.000320  f :     0.002508
      f+1     :     0.000227
      f-1     :     0.000483
      f+2     :     0.000097
      f-2     :     0.000288
      f+3     :     0.000367
      f-3     :     0.000725
  1 C s       :     3.200250  s :     3.200250
      pz      :     1.028565  p :     2.681443
      px      :     0.879327
      py      :     0.773551
      dz2     :     0.005708  d :     0.129297
      dxz     :     0.029285
      dyz     :     0.036614
      dx2y2   :     0.035308
      dxy     :     0.022381
      f0      :     0.002012  f :     0.013805
      f+1     :     0.001543
      f-1     :     0.000699
      f+2     :     0.001414
      f-2     :     0.002161
      f+3     :     0.002302
      f-3     :     0.003674
  2 C s       :     3.251358  s :     3.251358
      pz      :     1.047993  p :     2.760582
      px      :     0.897562
      py      :     0.815027
      dz2     :     0.007542  d :     0.102650
      dxz     :     0.025491
      dyz     :     0.025439
      dx2y2   :     0.026928
      dxy     :     0.017250
      f0      :     0.001526  f :     0.011475
      f+1     :     0.001503
      f-1     :     0.000487
      f+2     :     0.001232
      f-2     :     0.001681
      f+3     :     0.002286
      f-3     :     0.002760
  3 H s       :     0.889047  s :     0.889047
      pz      :     0.010875  p :     0.020607
      px      :     0.006056
      py      :     0.003676
  4 H s       :     0.875574  s :     0.875574
      pz      :     0.011189  p :     0.022507
      px      :     0.006749
      py      :     0.004569
  5 H s       :     0.855943  s :     0.855943
      pz      :     0.011022  p :     0.020508
      px      :     0.005608
      py      :     0.003878
  6 H s       :     0.844608  s :     0.844608
      pz      :     0.011003  p :     0.021580
      px      :     0.006561
      py      :     0.004016


                     *******************************
                     * LOEWDIN POPULATION ANALYSIS *
                     *******************************

----------------------
LOEWDIN ATOMIC CHARGES
----------------------
   0 O :    0.180233
   1 C :   -0.381099
   2 C :   -0.266750
   3 H :    0.117354
   4 H :    0.102565
   5 H :    0.130573
   6 H :    0.117124

-------------------------------
LOEWDIN REDUCED ORBITAL CHARGES
-------------------------------
  0 O s       :     3.326310  s :     3.326310
      pz      :     1.681834  p :     4.371718
      px      :     1.282254
      py      :     1.407630
      dz2     :     0.012085  d :     0.112997
      dxz     :     0.011086
      dyz     :     0.019513
      dx2y2   :     0.040097
      dxy     :     0.030216
      f0      :     0.000910  f :     0.008742
      f+1     :     0.000349
      f-1     :     0.000966
      f+2     :     0.000220
      f-2     :     0.001402
      f+3     :     0.001454
      f-3     :     0.003441
  1 C s       :     2.803790  s :     2.803790
      pz      :     1.040938  p :     2.915846
      px      :     1.005771
      py      :     0.869137
      dz2     :     0.060992  d :     0.564561
      dxz     :     0.145370
      dyz     :     0.111528
      dx2y2   :     0.128373
      dxy     :     0.118298
      f0      :     0.014664  f :     0.096901
      f+1     :     0.007094
      f-1     :     0.006786
      f+2     :     0.010004
      f-2     :     0.011705
      f+3     :     0.017733
      f-3     :     0.028914
  2 C s       :     2.845869  s :     2.845869
      pz      :     1.052241  p :     2.927673
      px      :     1.017472
      py      :     0.857959
      dz2     :     0.053032  d :     0.425574
      dxz     :     0.128112
      dyz     :     0.067034
      dx2y2   :     0.093025
      dxy     :     0.084371
      f0      :     0.009483  f :     0.067635
      f+1     :     0.005938
      f-1     :     0.004999
      f+2     :     0.007298
      f-2     :     0.006934
      f+3     :     0.014253
      f-3     :     0.018730
  3 H s       :     0.825274  s :     0.825274
      pz      :     0.031219  p :     0.057372
      px      :     0.015678
      py      :     0.010474
  4 H s       :     0.829805  s :     0.829805
      pz      :     0.034800  p :     0.067630
      px      :     0.018884
      py      :     0.013946
  5 H s       :     0.813180  s :     0.813180
      pz      :     0.031046  p :     0.056247
      px      :     0.014416
      py      :     0.010785
  6 H s       :     0.819389  s :     0.819389
      pz      :     0.033292  p :     0.063488
      px      :     0.018150
      py      :     0.012046


                      *****************************
                      * MAYER POPULATION ANALYSIS *
                      *****************************

  NA   - Mulliken gross atomic population
  ZA   - Total nuclear charge
  QA   - Mulliken gross atomic charge
  VA   - Mayer's total valence
  BVA  - Mayer's bonded valence
  FA   - Mayer's free valence

  ATOM       NA         ZA         QA         VA         BVA        FA
  0 O      8.2988     8.0000    -0.2988     1.9894     1.9894     0.0000
  1 C      6.0248     6.0000    -0.0248     4.0158     4.0158     0.0000
  2 C      6.1261     6.0000    -0.1261     3.9448     3.9448     0.0000
  3 H      0.9097     1.0000     0.0903     0.9607     0.9607     0.0000
  4 H      0.8981     1.0000     0.1019     0.9576     0.9576     0.0000
  5 H      0.8765     1.0000     0.1235     0.9685     0.9685     0.0000
  6 H      0.8662     1.0000     0.1338     0.9619     0.9619     0.0000

  Mayer bond orders larger than 0.100000
B(  0-O ,  1-C ) :   1.0293 B(  0-O ,  2-C ) :   0.9489 B(  1-C ,  2-C ) :   1.0653 
B(  1-C ,  3-H ) :   0.9518 B(  1-C ,  4-H ) :   0.9543 B(  2-C ,  5-H ) :   0.9615 
B(  2-C ,  6-H ) :   0.9489 

-------
TIMINGS
-------

Total SCF time: 0 days 0 hours 0 min 2 sec 

Total time                  ....       2.602 sec
Sum of individual times     ....       2.407 sec  ( 92.5%)

Fock matrix formation       ....       2.137 sec  ( 82.2%)
  Split-RI-J                ....       0.234 sec  ( 10.9% of F)
  Chain of spheres X        ....       1.472 sec  ( 68.9% of F)
  XC integration            ....       0.410 sec  ( 19.2% of F)
    Basis function eval.    ....       0.108 sec  ( 26.3% of XC)
    Density eval.           ....       0.082 sec  ( 20.0% of XC)
    XC-Functional eval.     ....       0.023 sec  (  5.5% of XC)
    XC-Potential eval.      ....       0.144 sec  ( 35.2% of XC)
Diagonalization             ....       0.017 sec  (  0.6%)
Density matrix formation    ....       0.001 sec  (  0.1%)
Population analysis         ....       0.003 sec  (  0.1%)
Initial guess               ....       0.017 sec  (  0.7%)
Orbital Transformation      ....       0.000 sec  (  0.0%)
Orbital Orthonormalization  ....       0.000 sec  (  0.0%)
DIIS solution               ....       0.014 sec  (  0.5%)
SOSCF solution              ....       0.011 sec  (  0.4%)
Grid generation             ....       0.207 sec  (  7.9%)

Maximum memory used throughout the entire SCF-calculation: 61.1 MB


-------------------------------------------------------------------------------
                          DFT DISPERSION CORRECTION                            
                                                                               
                              DFTD3 V3.1  Rev 1                                
                          USING Becke-Johnson damping                          
-------------------------------------------------------------------------------
The PBE0 functional is recognized
Active option DFTDOPT                   ...         4   

molecular C6(AA) [au] = 350.820598 


            DFT-D V3
 parameters
 s6 scaling factor         :     1.0000 
 a1 scaling factor         :     0.4145 
 s8 scaling factor         :     1.2177 
 a2 scaling factor         :     4.8593 
 ad hoc parameters k1-k3   :    16.0000     1.3333    -4.0000 

 Edisp/kcal,au: -1.508889002063  -0.002404567426 
 E6   /kcal   :  -0.989455828 
 E8   /kcal   :  -0.519433174 
 % E8         :  34.424876428 

-------------------------   ----------------
Dispersion correction           -0.002404567
-------------------------   ----------------


-------------------------   --------------------
FINAL SINGLE POINT ENERGY      -153.662986440287
-------------------------   --------------------



           ************************************************************
           *        Program running with 8 parallel MPI-processes     *
           *              working on a common directory               *
           ************************************************************
------------------------------------------------------------------------------
                         ORCA SCF GRADIENT CALCULATION
------------------------------------------------------------------------------

 ... reading COSX grid (gridx3)
Gradient of the Kohn-Sham DFT energy:
Kohn-Sham wavefunction type      ... RKS
Hartree-Fock exchange scaling    ...    0.250
Number of operators              ...    1
Number of atoms                  ...    7
Basis set dimensions             ...  117
Integral neglect threshold       ... 2.5e-11
Integral primitive cutoff        ... 2.5e-12
SHARK Integral package           ... ON

Nuc. rep. gradient       (SHARK) ... done (  0.0 sec)
HCore & Overlap gradient (SHARK) ... done (  0.0 sec)
RI-J gradient            (SHARK) ... done (  0.1 sec)
COSX-gradient                    ... done (  0.3 sec)
Exchange-correlation gradient    ... done
Dispersion correction            ... done

------------------
CARTESIAN GRADIENT
------------------

   1   O   :   -0.047050763   -0.061907793   -0.012827640
   2   C   :    0.009522401    0.046813552   -0.043640067
   3   C   :    0.004332914   -0.015076517    0.046330189
   4   H   :    0.001894458    0.004678737    0.009355361
   5   H   :    0.018375003    0.017642069    0.028131722
   6   H   :    0.008072734    0.008997686   -0.026963896
   7   H   :    0.004941011   -0.001262787   -0.000586005

Difference to translation invariance:
           :    0.0000877578   -0.0001150535   -0.0002003361

Difference to rotation invariance:
           :   -0.0003666845   -0.0000746381   -0.0000637764

Norm of the cartesian gradient     ...    0.1234621794
RMS gradient                       ...    0.0269416563
MAX gradient                       ...    0.0619077930

-------
TIMINGS
-------

Total SCF gradient time            ...        0.722 sec

One electron gradient       ....       0.010 sec  (  1.4%)
RI-J Coulomb gradient       ....       0.079 sec  ( 10.9%)
COSX gradient               ....       0.323 sec  ( 44.8%)
XC gradient                 ....       0.159 sec  ( 22.1%)

Maximum memory used throughout the entire SCFGRAD-calculation: 35.9 MB

                            ***************************************
                            *     ORCA property calculations      *
                            ***************************************

                                    ---------------------
                                    Active property flags
                                    ---------------------
   (+) Dipole Moment


------------------------------------------------------------------------------
                       ORCA ELECTRIC PROPERTIES CALCULATION
------------------------------------------------------------------------------

Dipole Moment Calculation                       ... on
Quadrupole Moment Calculation                   ... off
Polarizability Calculation                      ... off
GBWName                                         ... ox_gs_A_orca0045.gbw
Electron density                                ... ox_gs_A_orca0045.scfp
The origin for moment calculation is the CENTER OF MASS  = (-0.025093, -0.121874  0.012483)

-------------
DIPOLE MOMENT
-------------
                                X             Y             Z
Electronic contribution:     -0.08456       1.52410      -0.05570
Nuclear contribution   :      0.13022      -2.11736       0.08845
                        -----------------------------------------
Total Dipole Moment    :      0.04565      -0.59325       0.03275
                        -----------------------------------------
Magnitude (a.u.)       :      0.59591
Magnitude (Debye)      :      1.51468



--------------------
Rotational spectrum 
--------------------
 
Rotational constants in cm-1:     0.957001     0.712265     0.491914 
Rotational constants in MHz : 28690.163112 21353.179831 14747.222192 

 Dipole components along the rotational axes: 
x,y,z [a.u.] :    -0.198180    -0.561850    -0.012480 
x,y,z [Debye]:    -0.503734    -1.428110    -0.031722 

 

Timings for individual modules:

Sum of individual times         ...        4.052 sec (=   0.068 min)
GTO integral calculation        ...        0.312 sec (=   0.005 min)   7.7 %
SCF iterations                  ...        2.787 sec (=   0.046 min)  68.8 %
SCF Gradient evaluation         ...        0.952 sec (=   0.016 min)  23.5 %
                             ****ORCA TERMINATED NORMALLY****
TOTAL RUN TIME: 0 days 0 hours 0 minutes 4 seconds 344 msec
