
                                 *****************
                                 * O   R   C   A *
                                 *****************

                                            #,                                       
                                            ###                                      
                                            ####                                     
                                            #####                                    
                                            ######                                   
                                           ########,                                 
                                     ,,################,,,,,                         
                               ,,#################################,,                 
                          ,,##########################################,,             
                       ,#########################################, ''#####,          
                    ,#############################################,,   '####,        
                  ,##################################################,,,,####,       
                ,###########''''           ''''###############################       
              ,#####''   ,,,,##########,,,,          '''####'''          '####       
            ,##' ,,,,###########################,,,                        '##       
           ' ,,###''''                  '''############,,,                           
         ,,##''                                '''############,,,,        ,,,,,,###''
      ,#''                                            '''#######################'''  
     '                                                          ''''####''''         
             ,#######,   #######,   ,#######,      ##                                
            ,#'     '#,  ##    ##  ,#'     '#,    #''#        ######   ,####,        
            ##       ##  ##   ,#'  ##            #'  '#       #        #'  '#        
            ##       ##  #######   ##           ,######,      #####,   #    #        
            '#,     ,#'  ##    ##  '#,     ,#' ,#      #,         ##   #,  ,#        
             '#######'   ##     ##  '#######'  #'      '#     #####' # '####'        



                  #######################################################
                  #                        -***-                        #
                  #          Department of theory and spectroscopy      #
                  #    Directorship and core code : Frank Neese         #
                  #        Max Planck Institute fuer Kohlenforschung    #
                  #                Kaiser Wilhelm Platz 1               #
                  #                 D-45470 Muelheim/Ruhr               #
                  #                      Germany                        #
                  #                                                     #
                  #                  All rights reserved                #
                  #                        -***-                        #
                  #######################################################


                         Program Version 5.0.2 -  RELEASE  -


 With contributions from (in alphabetic order):
   Daniel Aravena         : Magnetic Suceptibility
   Michael Atanasov       : Ab Initio Ligand Field Theory (pilot matlab implementation)
   Alexander A. Auer      : GIAO ZORA, VPT2 properties, NMR spectrum
   Ute Becker             : Parallelization
   Giovanni Bistoni       : ED, misc. LED, open-shell LED, HFLD
   Martin Brehm           : Molecular dynamics
   Dmytro Bykov           : SCF Hessian
   Vijay G. Chilkuri      : MRCI spin determinant printing, contributions to CSF-ICE
   Dipayan Datta          : RHF DLPNO-CCSD density
   Achintya Kumar Dutta   : EOM-CC, STEOM-CC
   Dmitry Ganyushin       : Spin-Orbit,Spin-Spin,Magnetic field MRCI
   Miquel Garcia          : C-PCM and meta-GGA Hessian, CC/C-PCM, Gaussian charge scheme
   Yang Guo               : DLPNO-NEVPT2, F12-NEVPT2, CIM, IAO-localization
   Andreas Hansen         : Spin unrestricted coupled pair/coupled cluster methods
   Benjamin Helmich-Paris : MC-RPA, TRAH-SCF, COSX integrals
   Lee Huntington         : MR-EOM, pCC
   Robert Izsak           : Overlap fitted RIJCOSX, COSX-SCS-MP3, EOM
   Marcus Kettner         : VPT2
   Christian Kollmar      : KDIIS, OOCD, Brueckner-CCSD(T), CCSD density, CASPT2, CASPT2-K
   Simone Kossmann        : Meta GGA functionals, TD-DFT gradient, OOMP2, MP2 Hessian
   Martin Krupicka        : Initial AUTO-CI
   Lucas Lang             : DCDCAS
   Marvin Lechner         : AUTO-CI (C++ implementation), FIC-MRCC
   Dagmar Lenk            : GEPOL surface, SMD
   Dimitrios Liakos       : Extrapolation schemes; Compound Job, initial MDCI parallelization
   Dimitrios Manganas     : Further ROCIS development; embedding schemes
   Dimitrios Pantazis     : SARC Basis sets
   Anastasios Papadopoulos: AUTO-CI, single reference methods and gradients
   Taras Petrenko         : DFT Hessian,TD-DFT gradient, ASA, ECA, R-Raman, ABS, FL, XAS/XES, NRVS
   Peter Pinski           : DLPNO-MP2, DLPNO-MP2 Gradient
   Christoph Reimann      : Effective Core Potentials
   Marius Retegan         : Local ZFS, SOC
   Christoph Riplinger    : Optimizer, TS searches, QM/MM, DLPNO-CCSD(T), (RO)-DLPNO pert. Triples
   Tobias Risthaus        : Range-separated hybrids, TD-DFT gradient, RPA, STAB
   Michael Roemelt        : Original ROCIS implementation
   Masaaki Saitow         : Open-shell DLPNO-CCSD energy and density
   Barbara Sandhoefer     : DKH picture change effects
   Avijit Sen             : IP-ROCIS
   Kantharuban Sivalingam : CASSCF convergence, NEVPT2, FIC-MRCI
   Bernardo de Souza      : ESD, SOC TD-DFT
   Georgi Stoychev        : AutoAux, RI-MP2 NMR, DLPNO-MP2 response
   Willem Van den Heuvel  : Paramagnetic NMR
   Boris Wezisla          : Elementary symmetry handling
   Frank Wennmohs         : Technical directorship


 We gratefully acknowledge several colleagues who have allowed us to
 interface, adapt or use parts of their codes:
   Stefan Grimme, W. Hujo, H. Kruse, P. Pracht,  : VdW corrections, initial TS optimization,
                  C. Bannwarth, S. Ehlert          DFT functionals, gCP, sTDA/sTD-DF
   Ed Valeev, F. Pavosevic, A. Kumar             : LibInt (2-el integral package), F12 methods
   Garnet Chan, S. Sharma, J. Yang, R. Olivares  : DMRG
   Ulf Ekstrom                                   : XCFun DFT Library
   Mihaly Kallay                                 : mrcc  (arbitrary order and MRCC methods)
   Jiri Pittner, Ondrej Demel                    : Mk-CCSD
   Frank Weinhold                                : gennbo (NPA and NBO analysis)
   Christopher J. Cramer and Donald G. Truhlar   : smd solvation model
   Lars Goerigk                                  : TD-DFT with DH, B97 family of functionals
   V. Asgeirsson, H. Jonsson                     : NEB implementation
   FAccTs GmbH                                   : IRC, NEB, NEB-TS, DLPNO-Multilevel, CI-OPT
                                                   MM, QMMM, 2- and 3-layer-ONIOM, Crystal-QMMM,
                                                   LR-CPCM, SF, NACMEs, symmetry and pop. for TD-DFT,
                                                   nearIR, NL-DFT gradient (VV10), updates on ESD,
                                                   ML-optimized integration grids
   S Lehtola, MJT Oliveira, MAL Marques          : LibXC Library
   Liviu Ungur et al                             : ANISO software


 Your calculation uses the libint2 library for the computation of 2-el integrals
 For citations please refer to: http://libint.valeyev.net

 Your ORCA version has been built with support for libXC version: 5.1.0
 For citations please refer to: https://tddft.org/programs/libxc/

 This ORCA versions uses:
   CBLAS   interface :  Fast vector & matrix operations
   LAPACKE interface :  Fast linear algebra routines
   SCALAPACK package :  Parallel linear algebra routines
   Shared memory     :  Shared parallel matrices
   BLAS/LAPACK       :  OpenBLAS 0.3.15  USE64BITINT DYNAMIC_ARCH NO_AFFINITY SkylakeX SINGLE_THREADED
        Core in use  :  SkylakeX
   Copyright (c) 2011-2014, The OpenBLAS Project


Your calculation utilizes the atom-pairwise dispersion correction
with the Becke-Johnson damping scheme (D3BJ)
Cite in your paper:
S.Grimme, S.Ehrlich, L.Goerigk, J Comput Chem, (2011), 32, 1456–1465 
S.Grimme, J.Antony, S.Ehrlich and H.Krieg, J.Chem.Phys., 132, (2010), 154104 
   

================================================================================

----- Orbital basis set information -----
Your calculation utilizes the basis: def2-TZVP
   F. Weigend and R. Ahlrichs, Phys. Chem. Chem. Phys. 7, 3297 (2005).

----- AuxJ basis set information -----
Your calculation utilizes the auxiliary basis: def2/J
   F. Weigend, Phys. Chem. Chem. Phys. 8, 1057 (2006).

================================================================================
                                        WARNINGS
                       Please study these warnings very carefully!
================================================================================


INFO   : the flag for use of the SHARK integral package has been found!

================================================================================
                                       INPUT FILE
================================================================================
NAME = ox_gs_D_orca0002.inp
|  1> ! engrad PBE0 D3BJ def2-TZVP  
|  2> %pal nprocs 8 end
|  3> %maxcore 3000
|  4>  
|  5> *xyz 0 1 
|  6> O   -0.6829987069061947 0.9589889804181618 0.02679573806699722
|  7> C   -0.7521412129095411 -0.40134405022686315 0.06423794169680283
|  8> C   0.7111648952727354 -0.4394715999118703 0.011334249426106956
|  9> H   -1.2787864868814591 -0.7332512035151112 0.9109832558489074
| 10> H   -1.1689065582859608 -0.6982550812856578 -0.8969911394110422
| 11> H   1.2408149183672743 -0.7630164406546887 -0.9378541930785252
| 12> H   1.3441471440079507 -0.6714321974420335 0.9844794032276672
| 13> *
| 14> 
| 15>                          ****END OF INPUT****
================================================================================

                     *******************************
                     * Energy+Gradient Calculation *
                     *******************************

---------------------------------
CARTESIAN COORDINATES (ANGSTROEM)
---------------------------------
  O     -0.682999    0.958989    0.026796
  C     -0.752141   -0.401344    0.064238
  C      0.711165   -0.439472    0.011334
  H     -1.278786   -0.733251    0.910983
  H     -1.168907   -0.698255   -0.896991
  H      1.240815   -0.763016   -0.937854
  H      1.344147   -0.671432    0.984479

----------------------------
CARTESIAN COORDINATES (A.U.)
----------------------------
  NO LB      ZA    FRAG     MASS         X           Y           Z
   0 O     8.0000    0    15.999   -1.290681    1.812227    0.050637
   1 C     6.0000    0    12.011   -1.421341   -0.758430    0.121392
   2 C     6.0000    0    12.011    1.343907   -0.830481    0.021419
   3 H     1.0000    0     1.008   -2.416556   -1.385644    1.721509
   4 H     1.0000    0     1.008   -2.208913   -1.319511   -1.695068
   5 H     1.0000    0     1.008    2.344800   -1.441892   -1.772288
   6 H     1.0000    0     1.008    2.540070   -1.268823    1.860396

--------------------------------
INTERNAL COORDINATES (ANGSTROEM)
--------------------------------
 O      0   0   0     0.000000000000     0.00000000     0.00000000
 C      1   0   0     1.362603595699     0.00000000     0.00000000
 C      2   1   0     1.464758436379    88.52742047     0.00000000
 H      2   1   3     1.050949680070   111.27578104   123.35418423
 H      2   1   3     1.088949429422   105.50775530   249.55417220
 H      3   2   1     1.134093960093   120.27937456   253.09208003
 H      3   2   1     1.183842783645   120.63485619   103.73070527

---------------------------
INTERNAL COORDINATES (A.U.)
---------------------------
 O      0   0   0     0.000000000000     0.00000000     0.00000000
 C      1   0   0     2.574947624968     0.00000000     0.00000000
 C      2   1   0     2.767992297108    88.52742047     0.00000000
 H      2   1   3     1.986007075865   111.27578104   123.35418423
 H      2   1   3     2.057816195297   105.50775530   249.55417220
 H      3   2   1     2.143126994710   120.27937456   253.09208003
 H      3   2   1     2.237138646708   120.63485619   103.73070527

---------------------
BASIS SET INFORMATION
---------------------
There are 3 groups of distinct atoms

 Group   1 Type O   : 11s6p2d1f contracted to 5s3p2d1f pattern {62111/411/11/1}
 Group   2 Type C   : 11s6p2d1f contracted to 5s3p2d1f pattern {62111/411/11/1}
 Group   3 Type H   : 5s1p contracted to 3s1p pattern {311/1}

Atom   0O    basis set group =>   1
Atom   1C    basis set group =>   2
Atom   2C    basis set group =>   2
Atom   3H    basis set group =>   3
Atom   4H    basis set group =>   3
Atom   5H    basis set group =>   3
Atom   6H    basis set group =>   3
---------------------------------
AUXILIARY/J BASIS SET INFORMATION
---------------------------------
There are 3 groups of distinct atoms

 Group   1 Type O   : 12s5p4d2f1g contracted to 6s4p3d1f1g pattern {711111/2111/211/2/1}
 Group   2 Type C   : 12s5p4d2f1g contracted to 6s4p3d1f1g pattern {711111/2111/211/2/1}
 Group   3 Type H   : 5s2p1d contracted to 3s1p1d pattern {311/2/1}

Atom   0O    basis set group =>   1
Atom   1C    basis set group =>   2
Atom   2C    basis set group =>   2
Atom   3H    basis set group =>   3
Atom   4H    basis set group =>   3
Atom   5H    basis set group =>   3
Atom   6H    basis set group =>   3


           ************************************************************
           *        Program running with 8 parallel MPI-processes     *
           *              working on a common directory               *
           ************************************************************
------------------------------------------------------------------------------
                           ORCA GTO INTEGRAL CALCULATION
                           -- RI-GTO INTEGRALS CHOSEN --
------------------------------------------------------------------------------
------------------------------------------------------------------------------
                   ___                                                        
                  /   \      - P O W E R E D   B Y -                         
                 /     \                                                     
                 |  |  |   _    _      __       _____    __    __             
                 |  |  |  | |  | |    /  \     |  _  \  |  |  /  |          
                  \  \/   | |  | |   /    \    | | | |  |  | /  /          
                 / \  \   | |__| |  /  /\  \   | |_| |  |  |/  /          
                |  |  |   |  __  | /  /__\  \  |    /   |      \           
                |  |  |   | |  | | |   __   |  |    \   |  |\   \          
                \     /   | |  | | |  |  |  |  | |\  \  |  | \   \       
                 \___/    |_|  |_| |__|  |__|  |_| \__\ |__|  \__/        
                                                                              
                      - O R C A' S   B I G   F R I E N D -                    
                                      &                                       
                       - I N T E G R A L  F E E D E R -                       
                                                                              
 v1 FN, 2020, v2 2021                                                         
------------------------------------------------------------------------------


Reading SHARK input file ox_gs_D_orca0002.SHARKINP.tmp ... ok
----------------------
SHARK INTEGRAL PACKAGE
----------------------

Number of atoms                             ...      7
Number of basis functions                   ...    117
Number of shells                            ...     49
Maximum angular momentum                    ...      3
Integral batch strategy                     ... SHARK/LIBINT Hybrid
RI-J (if used) integral strategy            ... SPLIT-RIJ (Revised 2003 algorithm where possible)
Printlevel                                  ...      1
Contraction scheme used                     ... SEGMENTED contraction
Coulomb Range Separation                    ... NOT USED
Exchange Range Separation                   ... NOT USED
Finite Nucleus Model                        ... NOT USED
Auxiliary Coulomb fitting basis             ... AVAILABLE
   # of basis functions in Aux-J            ...    191
   # of shells in Aux-J                     ...     65
   Maximum angular momentum in Aux-J        ...      4
Auxiliary J/K fitting basis                 ... NOT available
Auxiliary Correlation fitting basis         ... NOT available
Auxiliary 'external' fitting basis          ... NOT available
Integral threshold                          ...     2.500000e-11
Primitive cut-off                           ...     2.500000e-12
Primitive pair pre-selection threshold      ...     2.500000e-12

Calculating pre-screening integrals         ... done (  0.0 sec) Dimension = 49
Organizing shell pair data                  ... done (  0.0 sec)
Shell pair information
Total number of shell pairs                 ...      1225
Shell pairs after pre-screening             ...      1217
Total number of primitive shell pairs       ...      3648
Primitive shell pairs kept                  ...      3106
          la=0 lb=0:    370 shell pairs
          la=1 lb=0:    351 shell pairs
          la=1 lb=1:     91 shell pairs
          la=2 lb=0:    162 shell pairs
          la=2 lb=1:     78 shell pairs
          la=2 lb=2:     21 shell pairs
          la=3 lb=0:     81 shell pairs
          la=3 lb=1:     39 shell pairs
          la=3 lb=2:     18 shell pairs
          la=3 lb=3:      6 shell pairs

Calculating one electron integrals          ... done (  0.0 sec)
Calculating RI/J V-Matrix + Cholesky decomp.... done (  0.0 sec)
Calculating Nuclear repulsion               ... done (  0.0 sec) ENN=     70.327228527240 Eh

SHARK setup successfully completed in   0.1 seconds

Maximum memory used throughout the entire GTOINT-calculation: 14.9 MB


           ************************************************************
           *        Program running with 8 parallel MPI-processes     *
           *              working on a common directory               *
           ************************************************************
-------------------------------------------------------------------------------
                                 ORCA SCF
-------------------------------------------------------------------------------

------------
SCF SETTINGS
------------
Hamiltonian:
 Density Functional     Method          .... DFT(GTOs)
 Exchange Functional    Exchange        .... PBE
   PBE kappa parameter   XKappa         ....  0.804000
   PBE mue parameter    XMuePBE         ....  0.219520
 Correlation Functional Correlation     .... PBE
   PBE beta parameter  CBetaPBE         ....  0.066725
 LDA part of GGA corr.  LDAOpt          .... PW91-LDA
 Gradients option       PostSCFGGA      .... off
 Hybrid DFT is turned on
   Fraction HF Exchange ScalHFX         ....  0.250000
   Scaling of DF-GGA-X  ScalDFX         ....  0.750000
   Scaling of DF-GGA-C  ScalDFC         ....  1.000000
   Scaling of DF-LDA-C  ScalLDAC        ....  1.000000
   Perturbative correction              ....  0.000000
   Density functional embedding theory  .... OFF
   NL short-range parameter             ....  6.900000
 RI-approximation to the Coulomb term is turned on
   Number of AuxJ basis functions       .... 191
   RIJ-COSX (HFX calculated with COS-X)).... on


General Settings:
 Integral files         IntName         .... ox_gs_D_orca0002
 Hartree-Fock type      HFTyp           .... RHF
 Total Charge           Charge          ....    0
 Multiplicity           Mult            ....    1
 Number of Electrons    NEL             ....   24
 Basis Dimension        Dim             ....  117
 Nuclear Repulsion      ENuc            ....     70.3272285272 Eh

Convergence Acceleration:
 DIIS                   CNVDIIS         .... on
   Start iteration      DIISMaxIt       ....    12
   Startup error        DIISStart       ....  0.200000
   # of expansion vecs  DIISMaxEq       ....     5
   Bias factor          DIISBfac        ....   1.050
   Max. coefficient     DIISMaxC        ....  10.000
 Trust-Rad. Augm. Hess. CNVTRAH         .... auto
   Auto Start mean grad. ratio tolernc. ....  1.125000
   Auto Start start iteration           ....    20
   Auto Start num. interpolation iter.  ....    10
   Max. Number of Micro iterations      ....    16
   Max. Number of Macro iterations      .... Maxiter - #DIIS iter
   Number of Davidson start vectors     ....     2
   Converg. threshold I  (grad. norm)   ....   1.000e-05
   Converg. threshold II (energy diff.) ....   1.000e-08
   Grad. Scal. Fac. for Micro threshold ....   0.100
   Minimum threshold for Micro iter.    ....   0.010
   NR start threshold (gradient norm)   ....   0.001
   Initial trust radius                 ....   0.400
   Minimum AH scaling param. (alpha)    ....   1.000
   Maximum AH scaling param. (alpha)    .... 1000.000
   Orbital update algorithm             .... Taylor
   White noise on init. David. guess    .... on
   Maximum white noise                  ....   0.010
   Quad. conv. algorithm                .... NR
 SOSCF                  CNVSOSCF        .... on
   Start iteration      SOSCFMaxIt      ....   150
   Startup grad/error   SOSCFStart      ....  0.003300
 Level Shifting         CNVShift        .... on
   Level shift para.    LevelShift      ....    0.2500
   Turn off err/grad.   ShiftErr        ....    0.0010
 Zerner damping         CNVZerner       .... off
 Static damping         CNVDamp         .... on
   Fraction old density DampFac         ....    0.7000
   Max. Damping (<1)    DampMax         ....    0.9800
   Min. Damping (>=0)   DampMin         ....    0.0000
   Turn off err/grad.   DampErr         ....    0.1000
 Fernandez-Rico         CNVRico         .... off

SCF Procedure:
 Maximum # iterations   MaxIter         ....   125
 SCF integral mode      SCFMode         .... Direct
   Integral package                     .... SHARK and LIBINT hybrid scheme
 Reset frequency        DirectResetFreq ....    20
 Integral Threshold     Thresh          ....  2.500e-11 Eh
 Primitive CutOff       TCut            ....  2.500e-12 Eh

Convergence Tolerance:
 Convergence Check Mode ConvCheckMode   .... Total+1el-Energy
 Convergence forced     ConvForced      .... 0
 Energy Change          TolE            ....  1.000e-08 Eh
 1-El. energy change                    ....  1.000e-05 Eh
 Orbital Gradient       TolG            ....  1.000e-05
 Orbital Rotation angle TolX            ....  1.000e-05
 DIIS Error             TolErr          ....  5.000e-07


Diagonalization of the overlap matrix:
Smallest eigenvalue                        ... 4.492e-04
Time for diagonalization                   ...    0.001 sec
Threshold for overlap eigenvalues          ... 1.000e-08
Number of eigenvalues below threshold      ... 0
Time for construction of square roots      ...    0.001 sec
Total time needed                          ...    0.003 sec

Time for model grid setup =    0.022 sec

------------------------------
INITIAL GUESS: MODEL POTENTIAL
------------------------------
Loading Hartree-Fock densities                     ... done
Calculating cut-offs                               ... done
Initializing the effective Hamiltonian             ... done
Setting up the integral package (SHARK)            ... done
Starting the Coulomb interaction                   ... done (   0.0 sec)
Reading the grid                                   ... done
Mapping shells                                     ... done
Starting the XC term evaluation                    ... done (   0.0 sec)
  promolecular density results
     # of electrons  =     23.999093712
     EX              =    -19.468500686
     EC              =     -0.768845820
     EX+EC           =    -20.237346505
Transforming the Hamiltonian                       ... done (   0.0 sec)
Diagonalizing the Hamiltonian                      ... done (   0.0 sec)
Back transforming the eigenvectors                 ... done (   0.0 sec)
Now organizing SCF variables                       ... done
                      ------------------
                      INITIAL GUESS DONE (   0.0 sec)
                      ------------------
-------------------
DFT GRID GENERATION
-------------------

General Integration Accuracy     IntAcc      ... 4.388
Radial Grid Type                 RadialGrid  ... OptM3 with GC (2021)
Angular Grid (max. ang.)         AngularGrid ... 4 (Lebedev-302)
Angular grid pruning method      GridPruning ... 4 (adaptive)
Weight generation scheme         WeightScheme... Becke
Basis function cutoff            BFCut       ... 1.0000e-11
Integration weight cutoff        WCut        ... 1.0000e-14
Angular grids for H and He will be reduced by one unit
Partially contracted basis set               ... off
Rotationally invariant grid construction     ... off

Total number of grid points                  ...    31320
Total number of batches                      ...      495
Average number of points per batch           ...       63
Average number of grid points per atom       ...     4474
Time for grid setup =    0.110 sec

--------------------
COSX GRID GENERATION
--------------------

GRIDX 1
-------
General Integration Accuracy     IntAcc      ... 3.816
Radial Grid Type                 RadialGrid  ... OptM3 with GC (2021)
Angular Grid (max. ang.)         AngularGrid ... 1 (Lebedev-50)
Angular grid pruning method      GridPruning ... 4 (adaptive)
Weight generation scheme         WeightScheme... Becke
Basis function cutoff            BFCut       ... 1.0000e-11
Integration weight cutoff        WCut        ... 1.0000e-14
Angular grids for H and He will be reduced by one unit
Partially contracted basis set               ... on
Rotationally invariant grid construction     ... off

Total number of grid points                  ...     4025
Total number of batches                      ...       67
Average number of points per batch           ...       60
Average number of grid points per atom       ...      575
UseSFitting                                  ... on

GRIDX 2
-------
General Integration Accuracy     IntAcc      ... 4.020
Radial Grid Type                 RadialGrid  ... OptM3 with GC (2021)
Angular Grid (max. ang.)         AngularGrid ... 2 (Lebedev-110)
Angular grid pruning method      GridPruning ... 4 (adaptive)
Weight generation scheme         WeightScheme... Becke
Basis function cutoff            BFCut       ... 1.0000e-11
Integration weight cutoff        WCut        ... 1.0000e-14
Angular grids for H and He will be reduced by one unit
Partially contracted basis set               ... on
Rotationally invariant grid construction     ... off

Total number of grid points                  ...     8711
Total number of batches                      ...      140
Average number of points per batch           ...       62
Average number of grid points per atom       ...     1244
UseSFitting                                  ... on

GRIDX 3
-------
General Integration Accuracy     IntAcc      ... 4.338
Radial Grid Type                 RadialGrid  ... OptM3 with GC (2021)
Angular Grid (max. ang.)         AngularGrid ... 3 (Lebedev-194)
Angular grid pruning method      GridPruning ... 4 (adaptive)
Weight generation scheme         WeightScheme... Becke
Basis function cutoff            BFCut       ... 1.0000e-11
Integration weight cutoff        WCut        ... 1.0000e-14
Angular grids for H and He will be reduced by one unit
Partially contracted basis set               ... on
Rotationally invariant grid construction     ... off

Total number of grid points                  ...    19251
Total number of batches                      ...      305
Average number of points per batch           ...       63
Average number of grid points per atom       ...     2750
UseSFitting                                  ... on

Time for X-Grid setup             =    0.073 sec

--------------
SCF ITERATIONS
--------------
ITER       Energy         Delta-E        Max-DP      RMS-DP      [F,P]     Damp
               ***  Starting incremental Fock matrix formation  ***
  0   -153.4502831932   0.000000000000 0.07269060  0.00199653  0.3027693 0.7000
  1   -153.5207009590  -0.070417765781 0.04261585  0.00121125  0.0890857 0.7000
                               ***Turning on DIIS***
  2   -153.5358459683  -0.015145009333 0.03383606  0.00155527  0.0442904 0.0000
  3   -153.5776906803  -0.041844711934 0.02831608  0.00103840  0.0426344 0.0000
  4   -153.5803726176  -0.002681937330 0.01069022  0.00033758  0.0491316 0.0000
  5   -153.5830022336  -0.002629615958 0.00303100  0.00009308  0.0101489 0.0000
  6   -153.5831275363  -0.000125302718 0.00128744  0.00003715  0.0042031 0.0000
                      *** Initiating the SOSCF procedure ***
                           *** Shutting down DIIS ***
                      *** Re-Reading the Fockian *** 
                      *** Removing any level shift *** 
ITER      Energy       Delta-E        Grad      Rot      Max-DP    RMS-DP
  7   -153.58314456  -0.0000170233  0.000358  0.000358  0.000728  0.000029
               *** Restarting incremental Fock matrix formation ***
  8   -153.58315002  -0.0000054598  0.000351  0.001829  0.001027  0.000029
  9   -153.58314322   0.0000067980  0.001233  0.001560  0.000890  0.000022
 10   -153.58315101  -0.0000077872  0.000052  0.000119  0.000096  0.000004
 11   -153.58315100   0.0000000104  0.000057  0.000034  0.000058  0.000002
 12   -153.58315107  -0.0000000672  0.000006  0.000040  0.000012  0.000000
                  ***Gradient check signals convergence***
              ***Rediagonalizing the Fockian in SOSCF/NRSCF***

               *****************************************************
               *                     SUCCESS                       *
               *           SCF CONVERGED AFTER  13 CYCLES          *
               *****************************************************

Old exchange energy                            =     -4.959697260 Eh
New exchange energy                            =     -4.959707220 Eh
Exchange energy change after final integration =     -0.000009960 Eh
Total energy after final integration           =   -153.583161026 Eh
Final COS-X integration done in                =     0.261 sec

----------------
TOTAL SCF ENERGY
----------------

Total Energy       :         -153.58316103 Eh           -4179.21028 eV

Components:
Nuclear Repulsion  :           70.32722853 Eh            1913.70118 eV
Electronic Energy  :         -223.91038955 Eh           -6092.91146 eV
One Electron Energy:         -347.45206912 Eh           -9454.65147 eV
Two Electron Energy:          123.54167957 Eh            3361.74001 eV
Max COSX asymmetry :            0.00000101 Eh               0.00003 eV

Virial components:
Potential Energy   :         -306.29269228 Eh           -8334.64788 eV
Kinetic Energy     :          152.70953125 Eh            4155.43760 eV
Virial Ratio       :            2.00572086


DFT components:
N(Alpha)           :       12.000005515726 electrons
N(Beta)            :       12.000005515726 electrons
N(Total)           :       24.000011031452 electrons
E(X)               :      -14.881374925967 Eh       
E(C)               :       -0.775786276905 Eh       
E(XC)              :      -15.657161202872 Eh       
DFET-embed. en.    :        0.000000000000 Eh       

---------------
SCF CONVERGENCE
---------------

  Last Energy change         ...   -7.7787e-10  Tolerance :   1.0000e-08
  Last MAX-Density change    ...    4.4409e-16  Tolerance :   1.0000e-07
  Last RMS-Density change    ...    1.4930e-17  Tolerance :   5.0000e-09
  Last Orbital Gradient      ...    2.4134e-06  Tolerance :   1.0000e-05
  Last Orbital Rotation      ...    2.9783e-05  Tolerance :   1.0000e-05

             **** THE GBW FILE WAS UPDATED (ox_gs_D_orca0002.gbw) ****
             **** DENSITY ox_gs_D_orca0002.scfp WAS UPDATED ****
             **** ENERGY FILE WAS UPDATED (ox_gs_D_orca0002.en.tmp) ****
             **** THE GBW FILE WAS UPDATED (ox_gs_D_orca0002.gbw) ****
             **** DENSITY ox_gs_D_orca0002.scfp WAS UPDATED ****
----------------
ORBITAL ENERGIES
----------------

  NO   OCC          E(Eh)            E(eV) 
   0   2.0000     -19.211238      -522.7644 
   1   2.0000     -10.321706      -280.8679 
   2   2.0000     -10.266197      -279.3574 
   3   2.0000      -1.033639       -28.1267 
   4   2.0000      -0.749083       -20.3836 
   5   2.0000      -0.625384       -17.0176 
   6   2.0000      -0.516034       -14.0420 
   7   2.0000      -0.487577       -13.2676 
   8   2.0000      -0.410050       -11.1580 
   9   2.0000      -0.409137       -11.1332 
  10   2.0000      -0.294558        -8.0153 
  11   2.0000      -0.268882        -7.3166 
  12   0.0000      -0.102748        -2.7959 
  13   0.0000       0.049737         1.3534 
  14   0.0000       0.076623         2.0850 
  15   0.0000       0.087516         2.3814 
  16   0.0000       0.130442         3.5495 
  17   0.0000       0.151106         4.1118 
  18   0.0000       0.186233         5.0677 
  19   0.0000       0.197734         5.3806 
  20   0.0000       0.241554         6.5730 
  21   0.0000       0.258038         7.0216 
  22   0.0000       0.268423         7.3042 
  23   0.0000       0.339300         9.2328 
  24   0.0000       0.378546        10.3008 
  25   0.0000       0.386908        10.5283 
  26   0.0000       0.396298        10.7838 
  27   0.0000       0.409145        11.1334 
  28   0.0000       0.434103        11.8125 
  29   0.0000       0.486836        13.2475 
  30   0.0000       0.499349        13.5880 
  31   0.0000       0.540183        14.6991 
  32   0.0000       0.550129        14.9698 
  33   0.0000       0.625735        17.0271 
  34   0.0000       0.657225        17.8840 
  35   0.0000       0.760763        20.7014 
  36   0.0000       0.805557        21.9203 
  37   0.0000       0.850833        23.1523 
  38   0.0000       0.877714        23.8838 
  39   0.0000       0.927977        25.2515 
  40   0.0000       0.954325        25.9685 
  41   0.0000       1.047846        28.5133 
  42   0.0000       1.064134        28.9566 
  43   0.0000       1.076316        29.2880 
  44   0.0000       1.175578        31.9891 
  45   0.0000       1.337850        36.4048 
  46   0.0000       1.386459        37.7275 
  47   0.0000       1.457080        39.6492 
  48   0.0000       1.524339        41.4794 
  49   0.0000       1.540588        41.9215 
  50   0.0000       1.577720        42.9319 
  51   0.0000       1.598038        43.4848 
  52   0.0000       1.673462        45.5372 
  53   0.0000       1.683222        45.8028 
  54   0.0000       1.705454        46.4078 
  55   0.0000       1.769567        48.1524 
  56   0.0000       1.801269        49.0150 
  57   0.0000       1.830832        49.8195 
  58   0.0000       1.877674        51.0941 
  59   0.0000       1.914695        52.1015 
  60   0.0000       1.993397        54.2431 
  61   0.0000       2.091804        56.9209 
  62   0.0000       2.122001        57.7426 
  63   0.0000       2.252723        61.2997 
  64   0.0000       2.323233        63.2184 
  65   0.0000       2.356000        64.1100 
  66   0.0000       2.377661        64.6994 
  67   0.0000       2.435201        66.2652 
  68   0.0000       2.477469        67.4154 
  69   0.0000       2.545249        69.2598 
  70   0.0000       2.561945        69.7141 
  71   0.0000       2.569431        69.9178 
  72   0.0000       2.610333        71.0308 
  73   0.0000       2.703139        73.5562 
  74   0.0000       2.774629        75.5015 
  75   0.0000       2.800527        76.2062 
  76   0.0000       2.836734        77.1914 
  77   0.0000       2.947149        80.1960 
  78   0.0000       2.964410        80.6657 
  79   0.0000       2.999607        81.6235 
  80   0.0000       3.072479        83.6064 
  81   0.0000       3.093297        84.1729 
  82   0.0000       3.103018        84.4374 
  83   0.0000       3.140058        85.4453 
  84   0.0000       3.184807        86.6630 
  85   0.0000       3.232165        87.9517 
  86   0.0000       3.312529        90.1385 
  87   0.0000       3.396808        92.4318 
  88   0.0000       3.485459        94.8442 
  89   0.0000       3.548773        96.5670 
  90   0.0000       3.611864        98.2838 
  91   0.0000       3.700409       100.6932 
  92   0.0000       3.711741       101.0016 
  93   0.0000       3.851104       104.7939 
  94   0.0000       3.953388       107.5772 
  95   0.0000       4.044396       110.0536 
  96   0.0000       4.106128       111.7334 
  97   0.0000       4.222936       114.9119 
  98   0.0000       4.349355       118.3520 
  99   0.0000       4.478312       121.8611 
 100   0.0000       4.530976       123.2941 
 101   0.0000       4.769828       129.7936 
 102   0.0000       5.221377       142.0809 
 103   0.0000       5.280852       143.6993 
 104   0.0000       5.415488       147.3629 
 105   0.0000       5.432316       147.8208 
 106   0.0000       5.861774       159.5070 
 107   0.0000       5.883835       160.1073 
 108   0.0000       6.021957       163.8658 
 109   0.0000       6.394370       173.9997 
 110   0.0000       6.490260       176.6089 
 111   0.0000       6.812245       185.3706 
 112   0.0000       6.896599       187.6660 
 113   0.0000       6.954981       189.2547 
 114   0.0000      21.967511       597.7664 
 115   0.0000      22.654300       616.4548 
 116   0.0000      43.752314      1190.5610 

                    ********************************
                    * MULLIKEN POPULATION ANALYSIS *
                    ********************************

-----------------------
MULLIKEN ATOMIC CHARGES
-----------------------
   0 O :   -0.357916
   1 C :    0.026641
   2 C :   -0.168413
   3 H :    0.098293
   4 H :    0.078442
   5 H :    0.162756
   6 H :    0.160196
Sum of atomic charges:    0.0000000

--------------------------------
MULLIKEN REDUCED ORBITAL CHARGES
--------------------------------
  0 O s       :     3.900542  s :     3.900542
      pz      :     1.882451  p :     4.427936
      px      :     1.277216
      py      :     1.268269
      dz2     :     0.003646  d :     0.027964
      dxz     :     0.000417
      dyz     :     0.006080
      dx2y2   :     0.009157
      dxy     :     0.008664
      f0      :     0.000179  f :     0.001474
      f+1     :     0.000079
      f-1     :     0.000346
      f+2     :     0.000188
      f-2     :     0.000027
      f+3     :     0.000345
      f-3     :     0.000311
  1 C s       :     3.161477  s :     3.161477
      pz      :     1.033042  p :     2.642232
      px      :     0.895616
      py      :     0.713575
      dz2     :     0.009084  d :     0.158579
      dxz     :     0.016833
      dyz     :     0.054266
      dx2y2   :     0.024427
      dxy     :     0.053969
      f0      :     0.001952  f :     0.011071
      f+1     :     0.000992
      f-1     :     0.001038
      f+2     :     0.002996
      f-2     :     0.000150
      f+3     :     0.002144
      f-3     :     0.001800
  2 C s       :     3.319869  s :     3.319869
      pz      :     1.039175  p :     2.782077
      px      :     1.001314
      py      :     0.741587
      dz2     :     0.006759  d :     0.060954
      dxz     :     0.024438
      dyz     :     0.007824
      dx2y2   :     0.007012
      dxy     :     0.014921
      f0      :     0.000535  f :     0.005512
      f+1     :     0.001019
      f-1     :     0.000186
      f+2     :     0.000780
      f-2     :     0.000458
      f+3     :     0.001149
      f-3     :     0.001385
  3 H s       :     0.880051  s :     0.880051
      pz      :     0.010197  p :     0.021656
      px      :     0.006829
      py      :     0.004630
  4 H s       :     0.900613  s :     0.900613
      pz      :     0.011230  p :     0.020945
      px      :     0.005330
      py      :     0.004385
  5 H s       :     0.816054  s :     0.816054
      pz      :     0.010551  p :     0.021190
      px      :     0.006202
      py      :     0.004437
  6 H s       :     0.820462  s :     0.820462
      pz      :     0.009669  p :     0.019341
      px      :     0.006326
      py      :     0.003346


                     *******************************
                     * LOEWDIN POPULATION ANALYSIS *
                     *******************************

----------------------
LOEWDIN ATOMIC CHARGES
----------------------
   0 O :    0.016180
   1 C :   -0.467053
   2 C :   -0.059176
   3 H :    0.102458
   4 H :    0.115708
   5 H :    0.140840
   6 H :    0.151041

-------------------------------
LOEWDIN REDUCED ORBITAL CHARGES
-------------------------------
  0 O s       :     3.508224  s :     3.508224
      pz      :     1.793158  p :     4.406539
      px      :     1.216170
      py      :     1.397210
      dz2     :     0.007725  d :     0.064425
      dxz     :     0.000680
      dyz     :     0.016734
      dx2y2   :     0.019693
      dxy     :     0.019593
      f0      :     0.000486  f :     0.004632
      f+1     :     0.000133
      f-1     :     0.000688
      f+2     :     0.000900
      f-2     :     0.000056
      f+3     :     0.001461
      f-3     :     0.000908
  1 C s       :     2.804743  s :     2.804743
      pz      :     1.045531  p :     2.935877
      px      :     1.038810
      py      :     0.851536
      dz2     :     0.068588  d :     0.642766
      dxz     :     0.096735
      dyz     :     0.159586
      dx2y2   :     0.144062
      dxy     :     0.173795
      f0      :     0.013079  f :     0.083666
      f+1     :     0.005567
      f-1     :     0.008808
      f+2     :     0.018897
      f-2     :     0.002005
      f+3     :     0.015910
      f-3     :     0.019401
  2 C s       :     2.928656  s :     2.928656
      pz      :     1.064045  p :     2.858537
      px      :     1.106379
      py      :     0.688113
      dz2     :     0.030464  d :     0.246126
      dxz     :     0.110672
      dyz     :     0.017959
      dx2y2   :     0.040806
      dxy     :     0.046223
      f0      :     0.003297  f :     0.025857
      f+1     :     0.003041
      f-1     :     0.001374
      f+2     :     0.004246
      f-2     :     0.001868
      f+3     :     0.004996
      f-3     :     0.007034
  3 H s       :     0.832479  s :     0.832479
      pz      :     0.031900  p :     0.065063
      px      :     0.019373
      py      :     0.013790
  4 H s       :     0.825513  s :     0.825513
      pz      :     0.032094  p :     0.058779
      px      :     0.014732
      py      :     0.011952
  5 H s       :     0.799625  s :     0.799625
      pz      :     0.031270  p :     0.059535
      px      :     0.016299
      py      :     0.011966
  6 H s       :     0.796608  s :     0.796608
      pz      :     0.027833  p :     0.052351
      px      :     0.015891
      py      :     0.008627


                      *****************************
                      * MAYER POPULATION ANALYSIS *
                      *****************************

  NA   - Mulliken gross atomic population
  ZA   - Total nuclear charge
  QA   - Mulliken gross atomic charge
  VA   - Mayer's total valence
  BVA  - Mayer's bonded valence
  FA   - Mayer's free valence

  ATOM       NA         ZA         QA         VA         BVA        FA
  0 O      8.3579     8.0000    -0.3579     1.9236     1.9236     0.0000
  1 C      5.9734     6.0000     0.0266     4.0570     4.0570     0.0000
  2 C      6.1684     6.0000    -0.1684     3.8038     3.8038     0.0000
  3 H      0.9017     1.0000     0.0983     0.9487     0.9487    -0.0000
  4 H      0.9216     1.0000     0.0784     0.9567     0.9567    -0.0000
  5 H      0.8372     1.0000     0.1628     0.9555     0.9555    -0.0000
  6 H      0.8398     1.0000     0.1602     0.9583     0.9583    -0.0000

  Mayer bond orders larger than 0.100000
B(  0-O ,  1-C ) :   1.0589 B(  0-O ,  2-C ) :   0.8554 B(  1-C ,  2-C ) :   1.0670 
B(  1-C ,  3-H ) :   0.9570 B(  1-C ,  4-H ) :   0.9610 B(  2-C ,  5-H ) :   0.9362 
B(  2-C ,  6-H ) :   0.9377 

-------
TIMINGS
-------

Total SCF time: 0 days 0 hours 0 min 3 sec 

Total time                  ....       3.046 sec
Sum of individual times     ....       2.662 sec  ( 87.4%)

Fock matrix formation       ....       2.389 sec  ( 78.4%)
  Split-RI-J                ....       0.255 sec  ( 10.7% of F)
  Chain of spheres X        ....       1.610 sec  ( 67.4% of F)
  XC integration            ....       0.456 sec  ( 19.1% of F)
    Basis function eval.    ....       0.126 sec  ( 27.6% of XC)
    Density eval.           ....       0.093 sec  ( 20.4% of XC)
    XC-Functional eval.     ....       0.027 sec  (  5.8% of XC)
    XC-Potential eval.      ....       0.157 sec  ( 34.4% of XC)
Diagonalization             ....       0.019 sec  (  0.6%)
Density matrix formation    ....       0.001 sec  (  0.0%)
Population analysis         ....       0.004 sec  (  0.1%)
Initial guess               ....       0.016 sec  (  0.5%)
Orbital Transformation      ....       0.000 sec  (  0.0%)
Orbital Orthonormalization  ....       0.000 sec  (  0.0%)
DIIS solution               ....       0.015 sec  (  0.5%)
SOSCF solution              ....       0.013 sec  (  0.4%)
Grid generation             ....       0.204 sec  (  6.7%)

Maximum memory used throughout the entire SCF-calculation: 61.0 MB


-------------------------------------------------------------------------------
                          DFT DISPERSION CORRECTION                            
                                                                               
                              DFTD3 V3.1  Rev 1                                
                          USING Becke-Johnson damping                          
-------------------------------------------------------------------------------
The PBE0 functional is recognized
Active option DFTDOPT                   ...         4   

molecular C6(AA) [au] = 390.852397 


            DFT-D V3
 parameters
 s6 scaling factor         :     1.0000 
 a1 scaling factor         :     0.4145 
 s8 scaling factor         :     1.2177 
 a2 scaling factor         :     4.8593 
 ad hoc parameters k1-k3   :    16.0000     1.3333    -4.0000 

 Edisp/kcal,au: -1.643734690732  -0.002619457687 
 E6   /kcal   :  -1.073177013 
 E8   /kcal   :  -0.570557678 
 % E8         :  34.711056545 

-------------------------   ----------------
Dispersion correction           -0.002619458
-------------------------   ----------------


-------------------------   --------------------
FINAL SINGLE POINT ENERGY      -153.585780483742
-------------------------   --------------------



           ************************************************************
           *        Program running with 8 parallel MPI-processes     *
           *              working on a common directory               *
           ************************************************************
------------------------------------------------------------------------------
                         ORCA SCF GRADIENT CALCULATION
------------------------------------------------------------------------------

 ... reading COSX grid (gridx3)
Gradient of the Kohn-Sham DFT energy:
Kohn-Sham wavefunction type      ... RKS
Hartree-Fock exchange scaling    ...    0.250
Number of operators              ...    1
Number of atoms                  ...    7
Basis set dimensions             ...  117
Integral neglect threshold       ... 2.5e-11
Integral primitive cutoff        ... 2.5e-12
SHARK Integral package           ... ON

Nuc. rep. gradient       (SHARK) ... done (  0.0 sec)
HCore & Overlap gradient (SHARK) ... done (  0.0 sec)
RI-J gradient            (SHARK) ... done (  0.1 sec)
COSX-gradient                    ... done (  0.3 sec)
Exchange-correlation gradient    ... done
Dispersion correction            ... done

------------------
CARTESIAN GRADIENT
------------------

   1   O   :   -0.074299443   -0.002743501   -0.004065933
   2   C   :    0.006025741    0.009244411    0.037689955
   3   C   :    0.001563712    0.009225699   -0.028086746
   4   H   :    0.011283923    0.021435372   -0.023199892
   5   H   :    0.009165731    0.019364057   -0.001637656
   6   H   :    0.016795595   -0.027679892   -0.018777182
   7   H   :    0.029593016   -0.028853343    0.038041624

Difference to translation invariance:
           :    0.0001282752   -0.0000071968   -0.0000358306

Difference to rotation invariance:
           :   -0.0001505567   -0.0000328476    0.0000450401

Norm of the cartesian gradient     ...    0.1187693807
RMS gradient                       ...    0.0259176037
MAX gradient                       ...    0.0742994430

-------
TIMINGS
-------

Total SCF gradient time            ...        0.685 sec

One electron gradient       ....       0.010 sec  (  1.4%)
RI-J Coulomb gradient       ....       0.078 sec  ( 11.3%)
COSX gradient               ....       0.307 sec  ( 44.8%)
XC gradient                 ....       0.154 sec  ( 22.4%)

Maximum memory used throughout the entire SCFGRAD-calculation: 35.9 MB

                            ***************************************
                            *     ORCA property calculations      *
                            ***************************************

                                    ---------------------
                                    Active property flags
                                    ---------------------
   (+) Dipole Moment


------------------------------------------------------------------------------
                       ORCA ELECTRIC PROPERTIES CALCULATION
------------------------------------------------------------------------------

Dipole Moment Calculation                       ... on
Quadrupole Moment Calculation                   ... off
Polarizability Calculation                      ... off
GBWName                                         ... ox_gs_D_orca0002.gbw
Electron density                                ... ox_gs_D_orca0002.scfp
The origin for moment calculation is the CENTER OF MASS  = (-0.483921,  0.101019  0.059948)

-------------
DIPOLE MOMENT
-------------
                                X             Y             Z
Electronic contribution:     -0.58437       1.73269       0.07937
Nuclear contribution   :      1.08346      -2.87599      -0.06225
                        -----------------------------------------
Total Dipole Moment    :      0.49910      -1.14330       0.01712
                        -----------------------------------------
Magnitude (a.u.)       :      1.24761
Magnitude (Debye)      :      3.17116



--------------------
Rotational spectrum 
--------------------
 
Rotational constants in cm-1:     1.073677     0.466879     0.376539 
Rotational constants in MHz : 32188.032017 13996.666047 11288.366034 

 Dipole components along the rotational axes: 
x,y,z [a.u.] :     1.125342     0.538511     0.011391 
x,y,z [Debye]:     2.860392     1.368787     0.028955 

 

Timings for individual modules:

Sum of individual times         ...        4.404 sec (=   0.073 min)
GTO integral calculation        ...        0.317 sec (=   0.005 min)   7.2 %
SCF iterations                  ...        3.213 sec (=   0.054 min)  73.0 %
SCF Gradient evaluation         ...        0.873 sec (=   0.015 min)  19.8 %
                             ****ORCA TERMINATED NORMALLY****
TOTAL RUN TIME: 0 days 0 hours 0 minutes 4 seconds 718 msec
