
                                 *****************
                                 * O   R   C   A *
                                 *****************

                                            #,                                       
                                            ###                                      
                                            ####                                     
                                            #####                                    
                                            ######                                   
                                           ########,                                 
                                     ,,################,,,,,                         
                               ,,#################################,,                 
                          ,,##########################################,,             
                       ,#########################################, ''#####,          
                    ,#############################################,,   '####,        
                  ,##################################################,,,,####,       
                ,###########''''           ''''###############################       
              ,#####''   ,,,,##########,,,,          '''####'''          '####       
            ,##' ,,,,###########################,,,                        '##       
           ' ,,###''''                  '''############,,,                           
         ,,##''                                '''############,,,,        ,,,,,,###''
      ,#''                                            '''#######################'''  
     '                                                          ''''####''''         
             ,#######,   #######,   ,#######,      ##                                
            ,#'     '#,  ##    ##  ,#'     '#,    #''#        ######   ,####,        
            ##       ##  ##   ,#'  ##            #'  '#       #        #'  '#        
            ##       ##  #######   ##           ,######,      #####,   #    #        
            '#,     ,#'  ##    ##  '#,     ,#' ,#      #,         ##   #,  ,#        
             '#######'   ##     ##  '#######'  #'      '#     #####' # '####'        



                  #######################################################
                  #                        -***-                        #
                  #          Department of theory and spectroscopy      #
                  #    Directorship and core code : Frank Neese         #
                  #        Max Planck Institute fuer Kohlenforschung    #
                  #                Kaiser Wilhelm Platz 1               #
                  #                 D-45470 Muelheim/Ruhr               #
                  #                      Germany                        #
                  #                                                     #
                  #                  All rights reserved                #
                  #                        -***-                        #
                  #######################################################


                         Program Version 5.0.2 -  RELEASE  -


 With contributions from (in alphabetic order):
   Daniel Aravena         : Magnetic Suceptibility
   Michael Atanasov       : Ab Initio Ligand Field Theory (pilot matlab implementation)
   Alexander A. Auer      : GIAO ZORA, VPT2 properties, NMR spectrum
   Ute Becker             : Parallelization
   Giovanni Bistoni       : ED, misc. LED, open-shell LED, HFLD
   Martin Brehm           : Molecular dynamics
   Dmytro Bykov           : SCF Hessian
   Vijay G. Chilkuri      : MRCI spin determinant printing, contributions to CSF-ICE
   Dipayan Datta          : RHF DLPNO-CCSD density
   Achintya Kumar Dutta   : EOM-CC, STEOM-CC
   Dmitry Ganyushin       : Spin-Orbit,Spin-Spin,Magnetic field MRCI
   Miquel Garcia          : C-PCM and meta-GGA Hessian, CC/C-PCM, Gaussian charge scheme
   Yang Guo               : DLPNO-NEVPT2, F12-NEVPT2, CIM, IAO-localization
   Andreas Hansen         : Spin unrestricted coupled pair/coupled cluster methods
   Benjamin Helmich-Paris : MC-RPA, TRAH-SCF, COSX integrals
   Lee Huntington         : MR-EOM, pCC
   Robert Izsak           : Overlap fitted RIJCOSX, COSX-SCS-MP3, EOM
   Marcus Kettner         : VPT2
   Christian Kollmar      : KDIIS, OOCD, Brueckner-CCSD(T), CCSD density, CASPT2, CASPT2-K
   Simone Kossmann        : Meta GGA functionals, TD-DFT gradient, OOMP2, MP2 Hessian
   Martin Krupicka        : Initial AUTO-CI
   Lucas Lang             : DCDCAS
   Marvin Lechner         : AUTO-CI (C++ implementation), FIC-MRCC
   Dagmar Lenk            : GEPOL surface, SMD
   Dimitrios Liakos       : Extrapolation schemes; Compound Job, initial MDCI parallelization
   Dimitrios Manganas     : Further ROCIS development; embedding schemes
   Dimitrios Pantazis     : SARC Basis sets
   Anastasios Papadopoulos: AUTO-CI, single reference methods and gradients
   Taras Petrenko         : DFT Hessian,TD-DFT gradient, ASA, ECA, R-Raman, ABS, FL, XAS/XES, NRVS
   Peter Pinski           : DLPNO-MP2, DLPNO-MP2 Gradient
   Christoph Reimann      : Effective Core Potentials
   Marius Retegan         : Local ZFS, SOC
   Christoph Riplinger    : Optimizer, TS searches, QM/MM, DLPNO-CCSD(T), (RO)-DLPNO pert. Triples
   Tobias Risthaus        : Range-separated hybrids, TD-DFT gradient, RPA, STAB
   Michael Roemelt        : Original ROCIS implementation
   Masaaki Saitow         : Open-shell DLPNO-CCSD energy and density
   Barbara Sandhoefer     : DKH picture change effects
   Avijit Sen             : IP-ROCIS
   Kantharuban Sivalingam : CASSCF convergence, NEVPT2, FIC-MRCI
   Bernardo de Souza      : ESD, SOC TD-DFT
   Georgi Stoychev        : AutoAux, RI-MP2 NMR, DLPNO-MP2 response
   Willem Van den Heuvel  : Paramagnetic NMR
   Boris Wezisla          : Elementary symmetry handling
   Frank Wennmohs         : Technical directorship


 We gratefully acknowledge several colleagues who have allowed us to
 interface, adapt or use parts of their codes:
   Stefan Grimme, W. Hujo, H. Kruse, P. Pracht,  : VdW corrections, initial TS optimization,
                  C. Bannwarth, S. Ehlert          DFT functionals, gCP, sTDA/sTD-DF
   Ed Valeev, F. Pavosevic, A. Kumar             : LibInt (2-el integral package), F12 methods
   Garnet Chan, S. Sharma, J. Yang, R. Olivares  : DMRG
   Ulf Ekstrom                                   : XCFun DFT Library
   Mihaly Kallay                                 : mrcc  (arbitrary order and MRCC methods)
   Jiri Pittner, Ondrej Demel                    : Mk-CCSD
   Frank Weinhold                                : gennbo (NPA and NBO analysis)
   Christopher J. Cramer and Donald G. Truhlar   : smd solvation model
   Lars Goerigk                                  : TD-DFT with DH, B97 family of functionals
   V. Asgeirsson, H. Jonsson                     : NEB implementation
   FAccTs GmbH                                   : IRC, NEB, NEB-TS, DLPNO-Multilevel, CI-OPT
                                                   MM, QMMM, 2- and 3-layer-ONIOM, Crystal-QMMM,
                                                   LR-CPCM, SF, NACMEs, symmetry and pop. for TD-DFT,
                                                   nearIR, NL-DFT gradient (VV10), updates on ESD,
                                                   ML-optimized integration grids
   S Lehtola, MJT Oliveira, MAL Marques          : LibXC Library
   Liviu Ungur et al                             : ANISO software


 Your calculation uses the libint2 library for the computation of 2-el integrals
 For citations please refer to: http://libint.valeyev.net

 Your ORCA version has been built with support for libXC version: 5.1.0
 For citations please refer to: https://tddft.org/programs/libxc/

 This ORCA versions uses:
   CBLAS   interface :  Fast vector & matrix operations
   LAPACKE interface :  Fast linear algebra routines
   SCALAPACK package :  Parallel linear algebra routines
   Shared memory     :  Shared parallel matrices
   BLAS/LAPACK       :  OpenBLAS 0.3.15  USE64BITINT DYNAMIC_ARCH NO_AFFINITY SkylakeX SINGLE_THREADED
        Core in use  :  SkylakeX
   Copyright (c) 2011-2014, The OpenBLAS Project


Your calculation utilizes the atom-pairwise dispersion correction
with the Becke-Johnson damping scheme (D3BJ)
Cite in your paper:
S.Grimme, S.Ehrlich, L.Goerigk, J Comput Chem, (2011), 32, 1456–1465 
S.Grimme, J.Antony, S.Ehrlich and H.Krieg, J.Chem.Phys., 132, (2010), 154104 
   

================================================================================

----- Orbital basis set information -----
Your calculation utilizes the basis: def2-TZVP
   F. Weigend and R. Ahlrichs, Phys. Chem. Chem. Phys. 7, 3297 (2005).

----- AuxJ basis set information -----
Your calculation utilizes the auxiliary basis: def2/J
   F. Weigend, Phys. Chem. Chem. Phys. 8, 1057 (2006).

================================================================================
                                        WARNINGS
                       Please study these warnings very carefully!
================================================================================


INFO   : the flag for use of the SHARK integral package has been found!

================================================================================
                                       INPUT FILE
================================================================================
NAME = ox_gs_B_orca0009.inp
|  1> ! engrad PBE0 D3BJ def2-TZVP  
|  2> %pal nprocs 8 end
|  3> %maxcore 3000
|  4>  
|  5> *xyz 0 1 
|  6> O   -0.3158925614433656 0.8940162013829134 -0.029644179624384454
|  7> C   -0.8025454106732823 -0.49184952076509353 0.05521757849301563
|  8> C   0.7073120642241977 -0.4550773354122029 0.044457874703643686
|  9> H   -1.2494040876142367 -0.7208477568785019 0.9039981500079884
| 10> H   -1.29482242438606 -0.6604209911776656 -0.9485489875539894
| 11> H   1.3167044791602307 -0.7078453004738943 -0.9462075872964235
| 12> H   1.2674167719685185 -0.5727328386361409 0.9593744041568807
| 13> *
| 14> 
| 15>                          ****END OF INPUT****
================================================================================

                     *******************************
                     * Energy+Gradient Calculation *
                     *******************************

---------------------------------
CARTESIAN COORDINATES (ANGSTROEM)
---------------------------------
  O     -0.315893    0.894016   -0.029644
  C     -0.802545   -0.491850    0.055218
  C      0.707312   -0.455077    0.044458
  H     -1.249404   -0.720848    0.903998
  H     -1.294822   -0.660421   -0.948549
  H      1.316704   -0.707845   -0.946208
  H      1.267417   -0.572733    0.959374

----------------------------
CARTESIAN COORDINATES (A.U.)
----------------------------
  NO LB      ZA    FRAG     MASS         X           Y           Z
   0 O     8.0000    0    15.999   -0.596950    1.689446   -0.056019
   1 C     6.0000    0    12.011   -1.516591   -0.929461    0.104346
   2 C     6.0000    0    12.011    1.336626   -0.859972    0.084013
   3 H     1.0000    0     1.008   -2.361032   -1.362205    1.708309
   4 H     1.0000    0     1.008   -2.446860   -1.248015   -1.792498
   5 H     1.0000    0     1.008    2.488211   -1.337634   -1.788073
   6 H     1.0000    0     1.008    2.395071   -1.082308    1.812955

--------------------------------
INTERNAL COORDINATES (ANGSTROEM)
--------------------------------
 O      0   0   0     0.000000000000     0.00000000     0.00000000
 C      1   0   0     1.471277102887     0.00000000     0.00000000
 C      2   1   0     1.510343523621    69.26740464     0.00000000
 H      2   1   3     0.986180170092   114.72403932   111.88834364
 H      2   1   3     1.130619439945   103.48860478   247.36577394
 H      3   2   1     1.190238974804   120.83622831   258.20567047
 H      3   2   1     1.079181336450   120.67367831   101.51073394

---------------------------
INTERNAL COORDINATES (A.U.)
---------------------------
 O      0   0   0     0.000000000000     0.00000000     0.00000000
 C      1   0   0     2.780310791565     0.00000000     0.00000000
 C      2   1   0     2.854135627786    69.26740464     0.00000000
 H      2   1   3     1.863610440177   114.72403932   111.88834364
 H      2   1   3     2.136561103183   103.48860478   247.36577394
 H      3   2   1     2.249225696299   120.83622831   258.20567047
 H      3   2   1     2.039357174730   120.67367831   101.51073394

---------------------
BASIS SET INFORMATION
---------------------
There are 3 groups of distinct atoms

 Group   1 Type O   : 11s6p2d1f contracted to 5s3p2d1f pattern {62111/411/11/1}
 Group   2 Type C   : 11s6p2d1f contracted to 5s3p2d1f pattern {62111/411/11/1}
 Group   3 Type H   : 5s1p contracted to 3s1p pattern {311/1}

Atom   0O    basis set group =>   1
Atom   1C    basis set group =>   2
Atom   2C    basis set group =>   2
Atom   3H    basis set group =>   3
Atom   4H    basis set group =>   3
Atom   5H    basis set group =>   3
Atom   6H    basis set group =>   3
---------------------------------
AUXILIARY/J BASIS SET INFORMATION
---------------------------------
There are 3 groups of distinct atoms

 Group   1 Type O   : 12s5p4d2f1g contracted to 6s4p3d1f1g pattern {711111/2111/211/2/1}
 Group   2 Type C   : 12s5p4d2f1g contracted to 6s4p3d1f1g pattern {711111/2111/211/2/1}
 Group   3 Type H   : 5s2p1d contracted to 3s1p1d pattern {311/2/1}

Atom   0O    basis set group =>   1
Atom   1C    basis set group =>   2
Atom   2C    basis set group =>   2
Atom   3H    basis set group =>   3
Atom   4H    basis set group =>   3
Atom   5H    basis set group =>   3
Atom   6H    basis set group =>   3


           ************************************************************
           *        Program running with 8 parallel MPI-processes     *
           *              working on a common directory               *
           ************************************************************
------------------------------------------------------------------------------
                           ORCA GTO INTEGRAL CALCULATION
                           -- RI-GTO INTEGRALS CHOSEN --
------------------------------------------------------------------------------
------------------------------------------------------------------------------
                   ___                                                        
                  /   \      - P O W E R E D   B Y -                         
                 /     \                                                     
                 |  |  |   _    _      __       _____    __    __             
                 |  |  |  | |  | |    /  \     |  _  \  |  |  /  |          
                  \  \/   | |  | |   /    \    | | | |  |  | /  /          
                 / \  \   | |__| |  /  /\  \   | |_| |  |  |/  /          
                |  |  |   |  __  | /  /__\  \  |    /   |      \           
                |  |  |   | |  | | |   __   |  |    \   |  |\   \          
                \     /   | |  | | |  |  |  |  | |\  \  |  | \   \       
                 \___/    |_|  |_| |__|  |__|  |_| \__\ |__|  \__/        
                                                                              
                      - O R C A' S   B I G   F R I E N D -                    
                                      &                                       
                       - I N T E G R A L  F E E D E R -                       
                                                                              
 v1 FN, 2020, v2 2021                                                         
------------------------------------------------------------------------------


Reading SHARK input file ox_gs_B_orca0009.SHARKINP.tmp ... ok
----------------------
SHARK INTEGRAL PACKAGE
----------------------

Number of atoms                             ...      7
Number of basis functions                   ...    117
Number of shells                            ...     49
Maximum angular momentum                    ...      3
Integral batch strategy                     ... SHARK/LIBINT Hybrid
RI-J (if used) integral strategy            ... SPLIT-RIJ (Revised 2003 algorithm where possible)
Printlevel                                  ...      1
Contraction scheme used                     ... SEGMENTED contraction
Coulomb Range Separation                    ... NOT USED
Exchange Range Separation                   ... NOT USED
Finite Nucleus Model                        ... NOT USED
Auxiliary Coulomb fitting basis             ... AVAILABLE
   # of basis functions in Aux-J            ...    191
   # of shells in Aux-J                     ...     65
   Maximum angular momentum in Aux-J        ...      4
Auxiliary J/K fitting basis                 ... NOT available
Auxiliary Correlation fitting basis         ... NOT available
Auxiliary 'external' fitting basis          ... NOT available
Integral threshold                          ...     2.500000e-11
Primitive cut-off                           ...     2.500000e-12
Primitive pair pre-selection threshold      ...     2.500000e-12

Calculating pre-screening integrals         ... done (  0.0 sec) Dimension = 49
Organizing shell pair data                  ... done (  0.0 sec)
Shell pair information
Total number of shell pairs                 ...      1225
Shell pairs after pre-screening             ...      1220
Total number of primitive shell pairs       ...      3648
Primitive shell pairs kept                  ...      3133
          la=0 lb=0:    373 shell pairs
          la=1 lb=0:    351 shell pairs
          la=1 lb=1:     91 shell pairs
          la=2 lb=0:    162 shell pairs
          la=2 lb=1:     78 shell pairs
          la=2 lb=2:     21 shell pairs
          la=3 lb=0:     81 shell pairs
          la=3 lb=1:     39 shell pairs
          la=3 lb=2:     18 shell pairs
          la=3 lb=3:      6 shell pairs

Calculating one electron integrals          ... done (  0.0 sec)
Calculating RI/J V-Matrix + Cholesky decomp.... done (  0.0 sec)
Calculating Nuclear repulsion               ... done (  0.0 sec) ENN=     71.044056384450 Eh

SHARK setup successfully completed in   0.1 seconds

Maximum memory used throughout the entire GTOINT-calculation: 14.9 MB


           ************************************************************
           *        Program running with 8 parallel MPI-processes     *
           *              working on a common directory               *
           ************************************************************
-------------------------------------------------------------------------------
                                 ORCA SCF
-------------------------------------------------------------------------------

------------
SCF SETTINGS
------------
Hamiltonian:
 Density Functional     Method          .... DFT(GTOs)
 Exchange Functional    Exchange        .... PBE
   PBE kappa parameter   XKappa         ....  0.804000
   PBE mue parameter    XMuePBE         ....  0.219520
 Correlation Functional Correlation     .... PBE
   PBE beta parameter  CBetaPBE         ....  0.066725
 LDA part of GGA corr.  LDAOpt          .... PW91-LDA
 Gradients option       PostSCFGGA      .... off
 Hybrid DFT is turned on
   Fraction HF Exchange ScalHFX         ....  0.250000
   Scaling of DF-GGA-X  ScalDFX         ....  0.750000
   Scaling of DF-GGA-C  ScalDFC         ....  1.000000
   Scaling of DF-LDA-C  ScalLDAC        ....  1.000000
   Perturbative correction              ....  0.000000
   Density functional embedding theory  .... OFF
   NL short-range parameter             ....  6.900000
 RI-approximation to the Coulomb term is turned on
   Number of AuxJ basis functions       .... 191
   RIJ-COSX (HFX calculated with COS-X)).... on


General Settings:
 Integral files         IntName         .... ox_gs_B_orca0009
 Hartree-Fock type      HFTyp           .... RHF
 Total Charge           Charge          ....    0
 Multiplicity           Mult            ....    1
 Number of Electrons    NEL             ....   24
 Basis Dimension        Dim             ....  117
 Nuclear Repulsion      ENuc            ....     71.0440563845 Eh

Convergence Acceleration:
 DIIS                   CNVDIIS         .... on
   Start iteration      DIISMaxIt       ....    12
   Startup error        DIISStart       ....  0.200000
   # of expansion vecs  DIISMaxEq       ....     5
   Bias factor          DIISBfac        ....   1.050
   Max. coefficient     DIISMaxC        ....  10.000
 Trust-Rad. Augm. Hess. CNVTRAH         .... auto
   Auto Start mean grad. ratio tolernc. ....  1.125000
   Auto Start start iteration           ....    20
   Auto Start num. interpolation iter.  ....    10
   Max. Number of Micro iterations      ....    16
   Max. Number of Macro iterations      .... Maxiter - #DIIS iter
   Number of Davidson start vectors     ....     2
   Converg. threshold I  (grad. norm)   ....   1.000e-05
   Converg. threshold II (energy diff.) ....   1.000e-08
   Grad. Scal. Fac. for Micro threshold ....   0.100
   Minimum threshold for Micro iter.    ....   0.010
   NR start threshold (gradient norm)   ....   0.001
   Initial trust radius                 ....   0.400
   Minimum AH scaling param. (alpha)    ....   1.000
   Maximum AH scaling param. (alpha)    .... 1000.000
   Orbital update algorithm             .... Taylor
   White noise on init. David. guess    .... on
   Maximum white noise                  ....   0.010
   Quad. conv. algorithm                .... NR
 SOSCF                  CNVSOSCF        .... on
   Start iteration      SOSCFMaxIt      ....   150
   Startup grad/error   SOSCFStart      ....  0.003300
 Level Shifting         CNVShift        .... on
   Level shift para.    LevelShift      ....    0.2500
   Turn off err/grad.   ShiftErr        ....    0.0010
 Zerner damping         CNVZerner       .... off
 Static damping         CNVDamp         .... on
   Fraction old density DampFac         ....    0.7000
   Max. Damping (<1)    DampMax         ....    0.9800
   Min. Damping (>=0)   DampMin         ....    0.0000
   Turn off err/grad.   DampErr         ....    0.1000
 Fernandez-Rico         CNVRico         .... off

SCF Procedure:
 Maximum # iterations   MaxIter         ....   125
 SCF integral mode      SCFMode         .... Direct
   Integral package                     .... SHARK and LIBINT hybrid scheme
 Reset frequency        DirectResetFreq ....    20
 Integral Threshold     Thresh          ....  2.500e-11 Eh
 Primitive CutOff       TCut            ....  2.500e-12 Eh

Convergence Tolerance:
 Convergence Check Mode ConvCheckMode   .... Total+1el-Energy
 Convergence forced     ConvForced      .... 0
 Energy Change          TolE            ....  1.000e-08 Eh
 1-El. energy change                    ....  1.000e-05 Eh
 Orbital Gradient       TolG            ....  1.000e-05
 Orbital Rotation angle TolX            ....  1.000e-05
 DIIS Error             TolErr          ....  5.000e-07


Diagonalization of the overlap matrix:
Smallest eigenvalue                        ... 5.703e-04
Time for diagonalization                   ...    0.001 sec
Threshold for overlap eigenvalues          ... 1.000e-08
Number of eigenvalues below threshold      ... 0
Time for construction of square roots      ...    0.001 sec
Total time needed                          ...    0.003 sec

Time for model grid setup =    0.019 sec

------------------------------
INITIAL GUESS: MODEL POTENTIAL
------------------------------
Loading Hartree-Fock densities                     ... done
Calculating cut-offs                               ... done
Initializing the effective Hamiltonian             ... done
Setting up the integral package (SHARK)            ... done
Starting the Coulomb interaction                   ... done (   0.0 sec)
Reading the grid                                   ... done
Mapping shells                                     ... done
Starting the XC term evaluation                    ... done (   0.0 sec)
  promolecular density results
     # of electrons  =     23.997282321
     EX              =    -19.462780439
     EC              =     -0.769932766
     EX+EC           =    -20.232713205
Transforming the Hamiltonian                       ... done (   0.0 sec)
Diagonalizing the Hamiltonian                      ... done (   0.0 sec)
Back transforming the eigenvectors                 ... done (   0.0 sec)
Now organizing SCF variables                       ... done
                      ------------------
                      INITIAL GUESS DONE (   0.0 sec)
                      ------------------
-------------------
DFT GRID GENERATION
-------------------

General Integration Accuracy     IntAcc      ... 4.388
Radial Grid Type                 RadialGrid  ... OptM3 with GC (2021)
Angular Grid (max. ang.)         AngularGrid ... 4 (Lebedev-302)
Angular grid pruning method      GridPruning ... 4 (adaptive)
Weight generation scheme         WeightScheme... Becke
Basis function cutoff            BFCut       ... 1.0000e-11
Integration weight cutoff        WCut        ... 1.0000e-14
Angular grids for H and He will be reduced by one unit
Partially contracted basis set               ... off
Rotationally invariant grid construction     ... off

Total number of grid points                  ...    31335
Total number of batches                      ...      493
Average number of points per batch           ...       63
Average number of grid points per atom       ...     4476
Time for grid setup =    0.112 sec

--------------------
COSX GRID GENERATION
--------------------

GRIDX 1
-------
General Integration Accuracy     IntAcc      ... 3.816
Radial Grid Type                 RadialGrid  ... OptM3 with GC (2021)
Angular Grid (max. ang.)         AngularGrid ... 1 (Lebedev-50)
Angular grid pruning method      GridPruning ... 4 (adaptive)
Weight generation scheme         WeightScheme... Becke
Basis function cutoff            BFCut       ... 1.0000e-11
Integration weight cutoff        WCut        ... 1.0000e-14
Angular grids for H and He will be reduced by one unit
Partially contracted basis set               ... on
Rotationally invariant grid construction     ... off

Total number of grid points                  ...     4039
Total number of batches                      ...       67
Average number of points per batch           ...       60
Average number of grid points per atom       ...      577
UseSFitting                                  ... on

GRIDX 2
-------
General Integration Accuracy     IntAcc      ... 4.020
Radial Grid Type                 RadialGrid  ... OptM3 with GC (2021)
Angular Grid (max. ang.)         AngularGrid ... 2 (Lebedev-110)
Angular grid pruning method      GridPruning ... 4 (adaptive)
Weight generation scheme         WeightScheme... Becke
Basis function cutoff            BFCut       ... 1.0000e-11
Integration weight cutoff        WCut        ... 1.0000e-14
Angular grids for H and He will be reduced by one unit
Partially contracted basis set               ... on
Rotationally invariant grid construction     ... off

Total number of grid points                  ...     8738
Total number of batches                      ...      140
Average number of points per batch           ...       62
Average number of grid points per atom       ...     1248
UseSFitting                                  ... on

GRIDX 3
-------
General Integration Accuracy     IntAcc      ... 4.338
Radial Grid Type                 RadialGrid  ... OptM3 with GC (2021)
Angular Grid (max. ang.)         AngularGrid ... 3 (Lebedev-194)
Angular grid pruning method      GridPruning ... 4 (adaptive)
Weight generation scheme         WeightScheme... Becke
Basis function cutoff            BFCut       ... 1.0000e-11
Integration weight cutoff        WCut        ... 1.0000e-14
Angular grids for H and He will be reduced by one unit
Partially contracted basis set               ... on
Rotationally invariant grid construction     ... off

Total number of grid points                  ...    19270
Total number of batches                      ...      304
Average number of points per batch           ...       63
Average number of grid points per atom       ...     2753
UseSFitting                                  ... on

Time for X-Grid setup             =    0.073 sec

--------------
SCF ITERATIONS
--------------
ITER       Energy         Delta-E        Max-DP      RMS-DP      [F,P]     Damp
               ***  Starting incremental Fock matrix formation  ***
  0   -153.5601656867   0.000000000000 0.03689718  0.00123519  0.1954749 0.7000
  1   -153.5918237315  -0.031658044800 0.02019286  0.00084969  0.0694156 0.7000
                               ***Turning on DIIS***
  2   -153.6029774711  -0.011153739656 0.02469553  0.00131989  0.0317148 0.0000
  3   -153.6234005064  -0.020423035240 0.01531591  0.00066554  0.0385432 0.0000
  4   -153.6264704884  -0.003069981992 0.00577129  0.00019292  0.0165983 0.0000
                      *** Initiating the SOSCF procedure ***
                           *** Shutting down DIIS ***
                      *** Re-Reading the Fockian *** 
                      *** Removing any level shift *** 
ITER      Energy       Delta-E        Grad      Rot      Max-DP    RMS-DP
  5   -153.62696139  -0.0004909050  0.000566  0.000566  0.001230  0.000050
               *** Restarting incremental Fock matrix formation ***
  6   -153.62698290  -0.0000215048  0.000141  0.000386  0.000548  0.000023
  7   -153.62698271   0.0000001838  0.000279  0.000317  0.000311  0.000013
  8   -153.62698373  -0.0000010143  0.000107  0.000178  0.000212  0.000007
  9   -153.62698368   0.0000000463  0.000082  0.000082  0.000116  0.000004
 10   -153.62698386  -0.0000001765  0.000009  0.000017  0.000018  0.000001
 11   -153.62698386  -0.0000000001  0.000008  0.000007  0.000010  0.000000
                  ***Gradient check signals convergence***
              ***Rediagonalizing the Fockian in SOSCF/NRSCF***

               *****************************************************
               *                     SUCCESS                       *
               *           SCF CONVERGED AFTER  12 CYCLES          *
               *****************************************************

Old exchange energy                            =     -4.962010861 Eh
New exchange energy                            =     -4.962026699 Eh
Exchange energy change after final integration =     -0.000015838 Eh
Total energy after final integration           =   -153.626999699 Eh
Final COS-X integration done in                =     0.260 sec

----------------
TOTAL SCF ENERGY
----------------

Total Energy       :         -153.62699970 Eh           -4180.40319 eV

Components:
Nuclear Repulsion  :           71.04405638 Eh            1933.20706 eV
Electronic Energy  :         -224.67105608 Eh           -6113.61025 eV
One Electron Energy:         -348.99640268 Eh           -9496.67492 eV
Two Electron Energy:          124.32534659 Eh            3383.06467 eV
Max COSX asymmetry :            0.00000212 Eh               0.00006 eV

Virial components:
Potential Energy   :         -306.22196100 Eh           -8332.72319 eV
Kinetic Energy     :          152.59496130 Eh            4152.32000 eV
Virial Ratio       :            2.00676325


DFT components:
N(Alpha)           :       12.000001634373 electrons
N(Beta)            :       12.000001634373 electrons
N(Total)           :       24.000003268747 electrons
E(X)               :      -14.877546900779 Eh       
E(C)               :       -0.779122552932 Eh       
E(XC)              :      -15.656669453711 Eh       
DFET-embed. en.    :        0.000000000000 Eh       

---------------
SCF CONVERGENCE
---------------

  Last Energy change         ...   -1.8460e-09  Tolerance :   1.0000e-08
  Last MAX-Density change    ...    1.1102e-15  Tolerance :   1.0000e-07
  Last RMS-Density change    ...    2.5436e-17  Tolerance :   5.0000e-09
  Last Orbital Gradient      ...    1.0622e-06  Tolerance :   1.0000e-05
  Last Orbital Rotation      ...    1.3557e-06  Tolerance :   1.0000e-05

             **** THE GBW FILE WAS UPDATED (ox_gs_B_orca0009.gbw) ****
             **** DENSITY ox_gs_B_orca0009.scfp WAS UPDATED ****
             **** ENERGY FILE WAS UPDATED (ox_gs_B_orca0009.en.tmp) ****
             **** THE GBW FILE WAS UPDATED (ox_gs_B_orca0009.gbw) ****
             **** DENSITY ox_gs_B_orca0009.scfp WAS UPDATED ****
----------------
ORBITAL ENERGIES
----------------

  NO   OCC          E(Eh)            E(eV) 
   0   2.0000     -19.218034      -522.9493 
   1   2.0000     -10.302903      -280.3562 
   2   2.0000     -10.276845      -279.6472 
   3   2.0000      -1.027168       -27.9507 
   4   2.0000      -0.720205       -19.5978 
   5   2.0000      -0.646098       -17.5812 
   6   2.0000      -0.519356       -14.1324 
   7   2.0000      -0.475444       -12.9375 
   8   2.0000      -0.410818       -11.1789 
   9   2.0000      -0.377815       -10.2809 
  10   2.0000      -0.325223        -8.8498 
  11   2.0000      -0.282169        -7.6782 
  12   0.0000       0.000140         0.0038 
  13   0.0000       0.055040         1.4977 
  14   0.0000       0.072366         1.9692 
  15   0.0000       0.093940         2.5562 
  16   0.0000       0.098377         2.6770 
  17   0.0000       0.146345         3.9822 
  18   0.0000       0.182919         4.9775 
  19   0.0000       0.198265         5.3951 
  20   0.0000       0.252772         6.8783 
  21   0.0000       0.269363         7.3297 
  22   0.0000       0.283886         7.7249 
  23   0.0000       0.293638         7.9903 
  24   0.0000       0.374683        10.1956 
  25   0.0000       0.398336        10.8393 
  26   0.0000       0.403035        10.9671 
  27   0.0000       0.414760        11.2862 
  28   0.0000       0.449896        12.2423 
  29   0.0000       0.466411        12.6917 
  30   0.0000       0.492832        13.4106 
  31   0.0000       0.509710        13.8699 
  32   0.0000       0.554429        15.0868 
  33   0.0000       0.669788        18.2259 
  34   0.0000       0.689821        18.7710 
  35   0.0000       0.738242        20.0886 
  36   0.0000       0.813176        22.1276 
  37   0.0000       0.842124        22.9154 
  38   0.0000       0.873660        23.7735 
  39   0.0000       0.929048        25.2807 
  40   0.0000       0.981432        26.7061 
  41   0.0000       1.021921        27.8079 
  42   0.0000       1.050759        28.5926 
  43   0.0000       1.078127        29.3373 
  44   0.0000       1.150862        31.3166 
  45   0.0000       1.353937        36.8425 
  46   0.0000       1.454886        39.5895 
  47   0.0000       1.458560        39.6894 
  48   0.0000       1.492365        40.6093 
  49   0.0000       1.519645        41.3516 
  50   0.0000       1.578653        42.9573 
  51   0.0000       1.633175        44.4409 
  52   0.0000       1.653935        45.0059 
  53   0.0000       1.668967        45.4149 
  54   0.0000       1.742471        47.4150 
  55   0.0000       1.768013        48.1101 
  56   0.0000       1.851992        50.3953 
  57   0.0000       1.858607        50.5753 
  58   0.0000       1.907852        51.9153 
  59   0.0000       1.940209        52.7958 
  60   0.0000       2.067736        56.2659 
  61   0.0000       2.113257        57.5047 
  62   0.0000       2.175220        59.1907 
  63   0.0000       2.188717        59.5580 
  64   0.0000       2.260971        61.5241 
  65   0.0000       2.366363        64.3920 
  66   0.0000       2.423538        65.9478 
  67   0.0000       2.454522        66.7909 
  68   0.0000       2.480162        67.4886 
  69   0.0000       2.528609        68.8070 
  70   0.0000       2.569200        69.9115 
  71   0.0000       2.613630        71.1205 
  72   0.0000       2.672145        72.7128 
  73   0.0000       2.696620        73.3788 
  74   0.0000       2.746784        74.7438 
  75   0.0000       2.753137        74.9167 
  76   0.0000       2.834786        77.1385 
  77   0.0000       2.940326        80.0103 
  78   0.0000       2.967734        80.7561 
  79   0.0000       3.049725        82.9872 
  80   0.0000       3.057915        83.2101 
  81   0.0000       3.070899        83.5634 
  82   0.0000       3.138316        85.3979 
  83   0.0000       3.171675        86.3057 
  84   0.0000       3.218412        87.5774 
  85   0.0000       3.285346        89.3988 
  86   0.0000       3.317831        90.2828 
  87   0.0000       3.352574        91.2282 
  88   0.0000       3.485196        94.8370 
  89   0.0000       3.554664        96.7273 
  90   0.0000       3.617956        98.4496 
  91   0.0000       3.638692        99.0138 
  92   0.0000       3.810404       103.6864 
  93   0.0000       3.960158       107.7614 
  94   0.0000       4.009986       109.1173 
  95   0.0000       4.052224       110.2666 
  96   0.0000       4.075203       110.8919 
  97   0.0000       4.274043       116.3026 
  98   0.0000       4.287038       116.6562 
  99   0.0000       4.625844       125.8756 
 100   0.0000       4.637564       126.1945 
 101   0.0000       4.796972       130.5323 
 102   0.0000       5.254772       142.9896 
 103   0.0000       5.297261       144.1458 
 104   0.0000       5.420482       147.4988 
 105   0.0000       5.575128       151.7069 
 106   0.0000       5.665194       154.1578 
 107   0.0000       5.695131       154.9724 
 108   0.0000       5.912611       160.8903 
 109   0.0000       6.490100       176.6046 
 110   0.0000       6.508000       177.0917 
 111   0.0000       6.741872       183.4557 
 112   0.0000       6.953104       189.2036 
 113   0.0000       7.115760       193.6297 
 114   0.0000      22.066984       600.4731 
 115   0.0000      22.362596       608.5172 
 116   0.0000      43.715118      1189.5488 

                    ********************************
                    * MULLIKEN POPULATION ANALYSIS *
                    ********************************

-----------------------
MULLIKEN ATOMIC CHARGES
-----------------------
   0 O :   -0.341249
   1 C :   -0.042713
   2 C :   -0.144942
   3 H :    0.122769
   4 H :    0.119209
   5 H :    0.142751
   6 H :    0.144175
Sum of atomic charges:   -0.0000000

--------------------------------
MULLIKEN REDUCED ORBITAL CHARGES
--------------------------------
  0 O s       :     3.894209  s :     3.894209
      pz      :     1.889422  p :     4.416391
      px      :     1.337255
      py      :     1.189714
      dz2     :     0.004295  d :     0.029226
      dxz     :     0.001268
      dyz     :     0.004664
      dx2y2   :     0.008346
      dxy     :     0.010653
      f0      :     0.000157  f :     0.001423
      f+1     :     0.000116
      f-1     :     0.000352
      f+2     :     0.000088
      f-2     :     0.000093
      f+3     :     0.000334
      f-3     :     0.000282
  1 C s       :     3.217876  s :     3.217876
      pz      :     1.045615  p :     2.695320
      px      :     0.915135
      py      :     0.734571
      dz2     :     0.009335  d :     0.119154
      dxz     :     0.020168
      dyz     :     0.035056
      dx2y2   :     0.028517
      dxy     :     0.026078
      f0      :     0.001596  f :     0.010363
      f+1     :     0.001271
      f-1     :     0.000695
      f+2     :     0.001704
      f-2     :     0.000801
      f+3     :     0.001656
      f-3     :     0.002640
  2 C s       :     3.290897  s :     3.290897
      pz      :     1.039260  p :     2.766676
      px      :     0.925940
      py      :     0.801475
      dz2     :     0.007827  d :     0.079676
      dxz     :     0.022694
      dyz     :     0.015168
      dx2y2   :     0.016521
      dxy     :     0.017465
      f0      :     0.000793  f :     0.007693
      f+1     :     0.001278
      f-1     :     0.000294
      f+2     :     0.000888
      f-2     :     0.000859
      f+3     :     0.001768
      f-3     :     0.001811
  3 H s       :     0.853443  s :     0.853443
      pz      :     0.011456  p :     0.023788
      px      :     0.007244
      py      :     0.005088
  4 H s       :     0.860832  s :     0.860832
      pz      :     0.011265  p :     0.019959
      px      :     0.005196
      py      :     0.003498
  5 H s       :     0.838831  s :     0.838831
      pz      :     0.009571  p :     0.018418
      px      :     0.005576
      py      :     0.003271
  6 H s       :     0.833432  s :     0.833432
      pz      :     0.011337  p :     0.022393
      px      :     0.007032
      py      :     0.004023


                     *******************************
                     * LOEWDIN POPULATION ANALYSIS *
                     *******************************

----------------------
LOEWDIN ATOMIC CHARGES
----------------------
   0 O :   -0.024784
   1 C :   -0.293573
   2 C :   -0.160208
   3 H :    0.085816
   4 H :    0.132374
   5 H :    0.143565
   6 H :    0.116810

-------------------------------
LOEWDIN REDUCED ORBITAL CHARGES
-------------------------------
  0 O s       :     3.526042  s :     3.526042
      pz      :     1.810357  p :     4.434292
      px      :     1.324805
      py      :     1.299130
      dz2     :     0.009341  d :     0.060753
      dxz     :     0.003306
      dyz     :     0.009904
      dx2y2   :     0.019537
      dxy     :     0.018665
      f0      :     0.000320  f :     0.003697
      f+1     :     0.000149
      f-1     :     0.000666
      f+2     :     0.000276
      f-2     :     0.000362
      f+3     :     0.000899
      f-3     :     0.001025
  1 C s       :     2.836960  s :     2.836960
      pz      :     1.065278  p :     2.910255
      px      :     1.037728
      py      :     0.807250
      dz2     :     0.061479  d :     0.480589
      dxz     :     0.102546
      dyz     :     0.093742
      dx2y2   :     0.119224
      dxy     :     0.103598
      f0      :     0.009569  f :     0.065769
      f+1     :     0.005001
      f-1     :     0.006370
      f+2     :     0.010200
      f-2     :     0.003279
      f+3     :     0.012491
      f-3     :     0.018860
  2 C s       :     2.900162  s :     2.900162
      pz      :     1.068487  p :     2.903732
      px      :     1.041787
      py      :     0.793458
      dz2     :     0.041309  d :     0.319657
      dxz     :     0.110126
      dyz     :     0.035808
      dx2y2   :     0.065489
      dxy     :     0.066926
      f0      :     0.004300  f :     0.036657
      f+1     :     0.003978
      f-1     :     0.002597
      f+2     :     0.004702
      f-2     :     0.002789
      f+3     :     0.009031
      f-3     :     0.009261
  3 H s       :     0.834904  s :     0.834904
      pz      :     0.039477  p :     0.079280
      px      :     0.022968
      py      :     0.016835
  4 H s       :     0.812618  s :     0.812618
      pz      :     0.031634  p :     0.055008
      px      :     0.013708
      py      :     0.009666
  5 H s       :     0.806588  s :     0.806588
      pz      :     0.027185  p :     0.049847
      px      :     0.013932
      py      :     0.008730
  6 H s       :     0.816490  s :     0.816490
      pz      :     0.035055  p :     0.066700
      px      :     0.019566
      py      :     0.012080


                      *****************************
                      * MAYER POPULATION ANALYSIS *
                      *****************************

  NA   - Mulliken gross atomic population
  ZA   - Total nuclear charge
  QA   - Mulliken gross atomic charge
  VA   - Mayer's total valence
  BVA  - Mayer's bonded valence
  FA   - Mayer's free valence

  ATOM       NA         ZA         QA         VA         BVA        FA
  0 O      8.3412     8.0000    -0.3412     1.9446     1.9446     0.0000
  1 C      6.0427     6.0000    -0.0427     3.9979     3.9979    -0.0000
  2 C      6.1449     6.0000    -0.1449     3.9108     3.9108    -0.0000
  3 H      0.8772     1.0000     0.1228     0.9508     0.9508    -0.0000
  4 H      0.8808     1.0000     0.1192     0.9647     0.9647     0.0000
  5 H      0.8572     1.0000     0.1428     0.9591     0.9591    -0.0000
  6 H      0.8558     1.0000     0.1442     0.9586     0.9586    -0.0000

  Mayer bond orders larger than 0.100000
B(  0-O ,  1-C ) :   0.9936 B(  0-O ,  2-C ) :   0.9446 B(  1-C ,  2-C ) :   1.0709 
B(  1-C ,  3-H ) :   0.9554 B(  1-C ,  4-H ) :   0.9609 B(  2-C ,  5-H ) :   0.9387 
B(  2-C ,  6-H ) :   0.9469 

-------
TIMINGS
-------

Total SCF time: 0 days 0 hours 0 min 2 sec 

Total time                  ....       2.835 sec
Sum of individual times     ....       2.551 sec  ( 90.0%)

Fock matrix formation       ....       2.286 sec  ( 80.6%)
  Split-RI-J                ....       0.243 sec  ( 10.6% of F)
  Chain of spheres X        ....       1.600 sec  ( 70.0% of F)
  XC integration            ....       0.419 sec  ( 18.3% of F)
    Basis function eval.    ....       0.115 sec  ( 27.5% of XC)
    Density eval.           ....       0.086 sec  ( 20.4% of XC)
    XC-Functional eval.     ....       0.025 sec  (  5.9% of XC)
    XC-Potential eval.      ....       0.147 sec  ( 35.0% of XC)
Diagonalization             ....       0.014 sec  (  0.5%)
Density matrix formation    ....       0.001 sec  (  0.1%)
Population analysis         ....       0.003 sec  (  0.1%)
Initial guess               ....       0.017 sec  (  0.6%)
Orbital Transformation      ....       0.000 sec  (  0.0%)
Orbital Orthonormalization  ....       0.000 sec  (  0.0%)
DIIS solution               ....       0.011 sec  (  0.4%)
SOSCF solution              ....       0.015 sec  (  0.5%)
Grid generation             ....       0.204 sec  (  7.2%)

Maximum memory used throughout the entire SCF-calculation: 61.0 MB


-------------------------------------------------------------------------------
                          DFT DISPERSION CORRECTION                            
                                                                               
                              DFTD3 V3.1  Rev 1                                
                          USING Becke-Johnson damping                          
-------------------------------------------------------------------------------
The PBE0 functional is recognized
Active option DFTDOPT                   ...         4   

molecular C6(AA) [au] = 354.798908 


            DFT-D V3
 parameters
 s6 scaling factor         :     1.0000 
 a1 scaling factor         :     0.4145 
 s8 scaling factor         :     1.2177 
 a2 scaling factor         :     4.8593 
 ad hoc parameters k1-k3   :    16.0000     1.3333    -4.0000 

 Edisp/kcal,au: -1.513933229145  -0.002412605913 
 E6   /kcal   :  -0.991215541 
 E8   /kcal   :  -0.522717688 
 % E8         :  34.527129608 

-------------------------   ----------------
Dispersion correction           -0.002412606
-------------------------   ----------------


-------------------------   --------------------
FINAL SINGLE POINT ENERGY      -153.629412305217
-------------------------   --------------------



           ************************************************************
           *        Program running with 8 parallel MPI-processes     *
           *              working on a common directory               *
           ************************************************************
------------------------------------------------------------------------------
                         ORCA SCF GRADIENT CALCULATION
------------------------------------------------------------------------------

 ... reading COSX grid (gridx3)
Gradient of the Kohn-Sham DFT energy:
Kohn-Sham wavefunction type      ... RKS
Hartree-Fock exchange scaling    ...    0.250
Number of operators              ...    1
Number of atoms                  ...    7
Basis set dimensions             ...  117
Integral neglect threshold       ... 2.5e-11
Integral primitive cutoff        ... 2.5e-12
SHARK Integral package           ... ON

Nuc. rep. gradient       (SHARK) ... done (  0.0 sec)
HCore & Overlap gradient (SHARK) ... done (  0.0 sec)
RI-J gradient            (SHARK) ... done (  0.1 sec)
COSX-gradient                    ... done (  0.3 sec)
Exchange-correlation gradient    ... done
Dispersion correction            ... done

------------------
CARTESIAN GRADIENT
------------------

   1   O   :   -0.047258675    0.073778571   -0.015541602
   2   C   :   -0.070058819   -0.054270587    0.112830844
   3   C   :    0.042384135   -0.028776508    0.052752263
   4   H   :    0.046042042    0.022849390   -0.073711037
   5   H   :   -0.005789180    0.013296713   -0.028868281
   6   H   :    0.031928492   -0.018703203   -0.042809566
   7   H   :    0.002837182   -0.008000254   -0.004542625

Difference to translation invariance:
           :    0.0000851786    0.0001741218    0.0001099956

Difference to rotation invariance:
           :    0.0001990959    0.0000412323    0.0000649286

Norm of the cartesian gradient     ...    0.2152287190
RMS gradient                       ...    0.0469667570
MAX gradient                       ...    0.1128308438

-------
TIMINGS
-------

Total SCF gradient time            ...        0.698 sec

One electron gradient       ....       0.010 sec  (  1.4%)
RI-J Coulomb gradient       ....       0.075 sec  ( 10.8%)
COSX gradient               ....       0.311 sec  ( 44.6%)
XC gradient                 ....       0.154 sec  ( 22.1%)

Maximum memory used throughout the entire SCFGRAD-calculation: 35.9 MB

                            ***************************************
                            *     ORCA property calculations      *
                            ***************************************

                                    ---------------------
                                    Active property flags
                                    ---------------------
   (+) Dipole Moment


------------------------------------------------------------------------------
                       ORCA ELECTRIC PROPERTIES CALCULATION
------------------------------------------------------------------------------

Dipole Moment Calculation                       ... on
Quadrupole Moment Calculation                   ... off
Polarizability Calculation                      ... off
GBWName                                         ... ox_gs_B_orca0009.gbw
Electron density                                ... ox_gs_B_orca0009.scfp
The origin for moment calculation is the CENTER OF MASS  = (-0.264140,  0.010582  0.029654)

-------------
DIPOLE MOMENT
-------------
                                X             Y             Z
Electronic contribution:     -0.38963       1.53153       0.16696
Nuclear contribution   :      0.55937      -2.50516      -0.08900
                        -----------------------------------------
Total Dipole Moment    :      0.16974      -0.97363       0.07796
                        -----------------------------------------
Magnitude (a.u.)       :      0.99138
Magnitude (Debye)      :      2.51990



--------------------
Rotational spectrum 
--------------------
 
Rotational constants in cm-1:     0.818765     0.608587     0.409774 
Rotational constants in MHz : 24545.962677 18244.964862 12284.702702 

 Dipole components along the rotational axes: 
x,y,z [a.u.] :    -0.764491    -0.630715     0.024359 
x,y,z [Debye]:    -1.943181    -1.603151     0.061915 

 

Timings for individual modules:

Sum of individual times         ...        4.179 sec (=   0.070 min)
GTO integral calculation        ...        0.286 sec (=   0.005 min)   6.9 %
SCF iterations                  ...        2.998 sec (=   0.050 min)  71.7 %
SCF Gradient evaluation         ...        0.894 sec (=   0.015 min)  21.4 %
                             ****ORCA TERMINATED NORMALLY****
TOTAL RUN TIME: 0 days 0 hours 0 minutes 4 seconds 522 msec
