
                                 *****************
                                 * O   R   C   A *
                                 *****************

                                            #,                                       
                                            ###                                      
                                            ####                                     
                                            #####                                    
                                            ######                                   
                                           ########,                                 
                                     ,,################,,,,,                         
                               ,,#################################,,                 
                          ,,##########################################,,             
                       ,#########################################, ''#####,          
                    ,#############################################,,   '####,        
                  ,##################################################,,,,####,       
                ,###########''''           ''''###############################       
              ,#####''   ,,,,##########,,,,          '''####'''          '####       
            ,##' ,,,,###########################,,,                        '##       
           ' ,,###''''                  '''############,,,                           
         ,,##''                                '''############,,,,        ,,,,,,###''
      ,#''                                            '''#######################'''  
     '                                                          ''''####''''         
             ,#######,   #######,   ,#######,      ##                                
            ,#'     '#,  ##    ##  ,#'     '#,    #''#        ######   ,####,        
            ##       ##  ##   ,#'  ##            #'  '#       #        #'  '#        
            ##       ##  #######   ##           ,######,      #####,   #    #        
            '#,     ,#'  ##    ##  '#,     ,#' ,#      #,         ##   #,  ,#        
             '#######'   ##     ##  '#######'  #'      '#     #####' # '####'        



                  #######################################################
                  #                        -***-                        #
                  #          Department of theory and spectroscopy      #
                  #    Directorship and core code : Frank Neese         #
                  #        Max Planck Institute fuer Kohlenforschung    #
                  #                Kaiser Wilhelm Platz 1               #
                  #                 D-45470 Muelheim/Ruhr               #
                  #                      Germany                        #
                  #                                                     #
                  #                  All rights reserved                #
                  #                        -***-                        #
                  #######################################################


                         Program Version 5.0.2 -  RELEASE  -


 With contributions from (in alphabetic order):
   Daniel Aravena         : Magnetic Suceptibility
   Michael Atanasov       : Ab Initio Ligand Field Theory (pilot matlab implementation)
   Alexander A. Auer      : GIAO ZORA, VPT2 properties, NMR spectrum
   Ute Becker             : Parallelization
   Giovanni Bistoni       : ED, misc. LED, open-shell LED, HFLD
   Martin Brehm           : Molecular dynamics
   Dmytro Bykov           : SCF Hessian
   Vijay G. Chilkuri      : MRCI spin determinant printing, contributions to CSF-ICE
   Dipayan Datta          : RHF DLPNO-CCSD density
   Achintya Kumar Dutta   : EOM-CC, STEOM-CC
   Dmitry Ganyushin       : Spin-Orbit,Spin-Spin,Magnetic field MRCI
   Miquel Garcia          : C-PCM and meta-GGA Hessian, CC/C-PCM, Gaussian charge scheme
   Yang Guo               : DLPNO-NEVPT2, F12-NEVPT2, CIM, IAO-localization
   Andreas Hansen         : Spin unrestricted coupled pair/coupled cluster methods
   Benjamin Helmich-Paris : MC-RPA, TRAH-SCF, COSX integrals
   Lee Huntington         : MR-EOM, pCC
   Robert Izsak           : Overlap fitted RIJCOSX, COSX-SCS-MP3, EOM
   Marcus Kettner         : VPT2
   Christian Kollmar      : KDIIS, OOCD, Brueckner-CCSD(T), CCSD density, CASPT2, CASPT2-K
   Simone Kossmann        : Meta GGA functionals, TD-DFT gradient, OOMP2, MP2 Hessian
   Martin Krupicka        : Initial AUTO-CI
   Lucas Lang             : DCDCAS
   Marvin Lechner         : AUTO-CI (C++ implementation), FIC-MRCC
   Dagmar Lenk            : GEPOL surface, SMD
   Dimitrios Liakos       : Extrapolation schemes; Compound Job, initial MDCI parallelization
   Dimitrios Manganas     : Further ROCIS development; embedding schemes
   Dimitrios Pantazis     : SARC Basis sets
   Anastasios Papadopoulos: AUTO-CI, single reference methods and gradients
   Taras Petrenko         : DFT Hessian,TD-DFT gradient, ASA, ECA, R-Raman, ABS, FL, XAS/XES, NRVS
   Peter Pinski           : DLPNO-MP2, DLPNO-MP2 Gradient
   Christoph Reimann      : Effective Core Potentials
   Marius Retegan         : Local ZFS, SOC
   Christoph Riplinger    : Optimizer, TS searches, QM/MM, DLPNO-CCSD(T), (RO)-DLPNO pert. Triples
   Tobias Risthaus        : Range-separated hybrids, TD-DFT gradient, RPA, STAB
   Michael Roemelt        : Original ROCIS implementation
   Masaaki Saitow         : Open-shell DLPNO-CCSD energy and density
   Barbara Sandhoefer     : DKH picture change effects
   Avijit Sen             : IP-ROCIS
   Kantharuban Sivalingam : CASSCF convergence, NEVPT2, FIC-MRCI
   Bernardo de Souza      : ESD, SOC TD-DFT
   Georgi Stoychev        : AutoAux, RI-MP2 NMR, DLPNO-MP2 response
   Willem Van den Heuvel  : Paramagnetic NMR
   Boris Wezisla          : Elementary symmetry handling
   Frank Wennmohs         : Technical directorship


 We gratefully acknowledge several colleagues who have allowed us to
 interface, adapt or use parts of their codes:
   Stefan Grimme, W. Hujo, H. Kruse, P. Pracht,  : VdW corrections, initial TS optimization,
                  C. Bannwarth, S. Ehlert          DFT functionals, gCP, sTDA/sTD-DF
   Ed Valeev, F. Pavosevic, A. Kumar             : LibInt (2-el integral package), F12 methods
   Garnet Chan, S. Sharma, J. Yang, R. Olivares  : DMRG
   Ulf Ekstrom                                   : XCFun DFT Library
   Mihaly Kallay                                 : mrcc  (arbitrary order and MRCC methods)
   Jiri Pittner, Ondrej Demel                    : Mk-CCSD
   Frank Weinhold                                : gennbo (NPA and NBO analysis)
   Christopher J. Cramer and Donald G. Truhlar   : smd solvation model
   Lars Goerigk                                  : TD-DFT with DH, B97 family of functionals
   V. Asgeirsson, H. Jonsson                     : NEB implementation
   FAccTs GmbH                                   : IRC, NEB, NEB-TS, DLPNO-Multilevel, CI-OPT
                                                   MM, QMMM, 2- and 3-layer-ONIOM, Crystal-QMMM,
                                                   LR-CPCM, SF, NACMEs, symmetry and pop. for TD-DFT,
                                                   nearIR, NL-DFT gradient (VV10), updates on ESD,
                                                   ML-optimized integration grids
   S Lehtola, MJT Oliveira, MAL Marques          : LibXC Library
   Liviu Ungur et al                             : ANISO software


 Your calculation uses the libint2 library for the computation of 2-el integrals
 For citations please refer to: http://libint.valeyev.net

 Your ORCA version has been built with support for libXC version: 5.1.0
 For citations please refer to: https://tddft.org/programs/libxc/

 This ORCA versions uses:
   CBLAS   interface :  Fast vector & matrix operations
   LAPACKE interface :  Fast linear algebra routines
   SCALAPACK package :  Parallel linear algebra routines
   Shared memory     :  Shared parallel matrices
   BLAS/LAPACK       :  OpenBLAS 0.3.15  USE64BITINT DYNAMIC_ARCH NO_AFFINITY SkylakeX SINGLE_THREADED
        Core in use  :  SkylakeX
   Copyright (c) 2011-2014, The OpenBLAS Project


Your calculation utilizes the atom-pairwise dispersion correction
with the Becke-Johnson damping scheme (D3BJ)
Cite in your paper:
S.Grimme, S.Ehrlich, L.Goerigk, J Comput Chem, (2011), 32, 1456–1465 
S.Grimme, J.Antony, S.Ehrlich and H.Krieg, J.Chem.Phys., 132, (2010), 154104 
   

================================================================================

----- Orbital basis set information -----
Your calculation utilizes the basis: def2-TZVP
   F. Weigend and R. Ahlrichs, Phys. Chem. Chem. Phys. 7, 3297 (2005).

----- AuxJ basis set information -----
Your calculation utilizes the auxiliary basis: def2/J
   F. Weigend, Phys. Chem. Chem. Phys. 8, 1057 (2006).

================================================================================
                                        WARNINGS
                       Please study these warnings very carefully!
================================================================================


INFO   : the flag for use of the SHARK integral package has been found!

================================================================================
                                       INPUT FILE
================================================================================
NAME = ox_gs_G_orca0002.inp
|  1> ! engrad PBE0 D3BJ def2-TZVP  
|  2> %pal nprocs 8 end
|  3> %maxcore 3000
|  4>  
|  5> *xyz 0 1 
|  6> O   -1.498518805196227 0.6775812969974746 -0.00046941319974445585
|  7> C   -0.71722755178905 -0.4036668794915892 -0.03887216429634098
|  8> C   0.7540872205663848 -0.46209020646404875 -0.10793131130675837
|  9> H   -1.198993972261375 -0.619436677193865 0.8763771508659587
| 10> H   -1.312168492470044 -0.6678567172945842 -0.9049054630755884
| 11> H   1.2144087496102638 -0.7239920705212731 -0.960882480195088
| 12> H   1.337817623511382 -0.7476987590924276 0.9480961583363564
| 13> *
| 14> 
| 15>                          ****END OF INPUT****
================================================================================

                     *******************************
                     * Energy+Gradient Calculation *
                     *******************************

---------------------------------
CARTESIAN COORDINATES (ANGSTROEM)
---------------------------------
  O     -1.498519    0.677581   -0.000469
  C     -0.717228   -0.403667   -0.038872
  C      0.754087   -0.462090   -0.107931
  H     -1.198994   -0.619437    0.876377
  H     -1.312168   -0.667857   -0.904905
  H      1.214409   -0.723992   -0.960882
  H      1.337818   -0.747699    0.948096

----------------------------
CARTESIAN COORDINATES (A.U.)
----------------------------
  NO LB      ZA    FRAG     MASS         X           Y           Z
   0 O     8.0000    0    15.999   -2.831790    1.280443   -0.000887
   1 C     6.0000    0    12.011   -1.355364   -0.762820   -0.073458
   2 C     6.0000    0    12.011    1.425018   -0.873224   -0.203961
   3 H     1.0000    0     1.008   -2.265770   -1.170566    1.656113
   4 H     1.0000    0     1.008   -2.479639   -1.262066   -1.710024
   5 H     1.0000    0     1.008    2.294900   -1.368147   -1.815805
   6 H     1.0000    0     1.008    2.528109   -1.412946    1.791642

--------------------------------
INTERNAL COORDINATES (ANGSTROEM)
--------------------------------
 O      0   0   0     0.000000000000     0.00000000     0.00000000
 C      1   0   0     1.334536778475     0.00000000     0.00000000
 C      2   1   0     1.474092809246   128.15536676     0.00000000
 H      2   1   3     1.056568406872    82.73758732   121.66723216
 H      2   1   3     1.083404203375    84.20805408   235.89605621
 H      3   2   1     1.003999100102   120.51494115   253.66584662
 H      3   2   1     1.239962678994   116.04693288   103.62638362

---------------------------
INTERNAL COORDINATES (A.U.)
---------------------------
 O      0   0   0     0.000000000000     0.00000000     0.00000000
 C      1   0   0     2.521909026964     0.00000000     0.00000000
 C      2   1   0     2.785631705458   128.15536676     0.00000000
 H      2   1   3     1.996624930742    82.73758732   121.66723216
 H      2   1   3     2.047337236718    84.20805408   235.89605621
 H      3   2   1     1.897283337896   120.51494115   253.66584662
 H      3   2   1     2.343189879582   116.04693288   103.62638362

---------------------
BASIS SET INFORMATION
---------------------
There are 3 groups of distinct atoms

 Group   1 Type O   : 11s6p2d1f contracted to 5s3p2d1f pattern {62111/411/11/1}
 Group   2 Type C   : 11s6p2d1f contracted to 5s3p2d1f pattern {62111/411/11/1}
 Group   3 Type H   : 5s1p contracted to 3s1p pattern {311/1}

Atom   0O    basis set group =>   1
Atom   1C    basis set group =>   2
Atom   2C    basis set group =>   2
Atom   3H    basis set group =>   3
Atom   4H    basis set group =>   3
Atom   5H    basis set group =>   3
Atom   6H    basis set group =>   3
---------------------------------
AUXILIARY/J BASIS SET INFORMATION
---------------------------------
There are 3 groups of distinct atoms

 Group   1 Type O   : 12s5p4d2f1g contracted to 6s4p3d1f1g pattern {711111/2111/211/2/1}
 Group   2 Type C   : 12s5p4d2f1g contracted to 6s4p3d1f1g pattern {711111/2111/211/2/1}
 Group   3 Type H   : 5s2p1d contracted to 3s1p1d pattern {311/2/1}

Atom   0O    basis set group =>   1
Atom   1C    basis set group =>   2
Atom   2C    basis set group =>   2
Atom   3H    basis set group =>   3
Atom   4H    basis set group =>   3
Atom   5H    basis set group =>   3
Atom   6H    basis set group =>   3


           ************************************************************
           *        Program running with 8 parallel MPI-processes     *
           *              working on a common directory               *
           ************************************************************
------------------------------------------------------------------------------
                           ORCA GTO INTEGRAL CALCULATION
                           -- RI-GTO INTEGRALS CHOSEN --
------------------------------------------------------------------------------
------------------------------------------------------------------------------
                   ___                                                        
                  /   \      - P O W E R E D   B Y -                         
                 /     \                                                     
                 |  |  |   _    _      __       _____    __    __             
                 |  |  |  | |  | |    /  \     |  _  \  |  |  /  |          
                  \  \/   | |  | |   /    \    | | | |  |  | /  /          
                 / \  \   | |__| |  /  /\  \   | |_| |  |  |/  /          
                |  |  |   |  __  | /  /__\  \  |    /   |      \           
                |  |  |   | |  | | |   __   |  |    \   |  |\   \          
                \     /   | |  | | |  |  |  |  | |\  \  |  | \   \       
                 \___/    |_|  |_| |__|  |__|  |_| \__\ |__|  \__/        
                                                                              
                      - O R C A' S   B I G   F R I E N D -                    
                                      &                                       
                       - I N T E G R A L  F E E D E R -                       
                                                                              
 v1 FN, 2020, v2 2021                                                         
------------------------------------------------------------------------------


Reading SHARK input file ox_gs_G_orca0002.SHARKINP.tmp ... ok
----------------------
SHARK INTEGRAL PACKAGE
----------------------

Number of atoms                             ...      7
Number of basis functions                   ...    117
Number of shells                            ...     49
Maximum angular momentum                    ...      3
Integral batch strategy                     ... SHARK/LIBINT Hybrid
RI-J (if used) integral strategy            ... SPLIT-RIJ (Revised 2003 algorithm where possible)
Printlevel                                  ...      1
Contraction scheme used                     ... SEGMENTED contraction
Coulomb Range Separation                    ... NOT USED
Exchange Range Separation                   ... NOT USED
Finite Nucleus Model                        ... NOT USED
Auxiliary Coulomb fitting basis             ... AVAILABLE
   # of basis functions in Aux-J            ...    191
   # of shells in Aux-J                     ...     65
   Maximum angular momentum in Aux-J        ...      4
Auxiliary J/K fitting basis                 ... NOT available
Auxiliary Correlation fitting basis         ... NOT available
Auxiliary 'external' fitting basis          ... NOT available
Integral threshold                          ...     2.500000e-11
Primitive cut-off                           ...     2.500000e-12
Primitive pair pre-selection threshold      ...     2.500000e-12

Calculating pre-screening integrals         ... done (  0.0 sec) Dimension = 49
Organizing shell pair data                  ... done (  0.0 sec)
Shell pair information
Total number of shell pairs                 ...      1225
Shell pairs after pre-screening             ...      1210
Total number of primitive shell pairs       ...      3648
Primitive shell pairs kept                  ...      3060
          la=0 lb=0:    368 shell pairs
          la=1 lb=0:    348 shell pairs
          la=1 lb=1:     91 shell pairs
          la=2 lb=0:    160 shell pairs
          la=2 lb=1:     78 shell pairs
          la=2 lb=2:     21 shell pairs
          la=3 lb=0:     81 shell pairs
          la=3 lb=1:     39 shell pairs
          la=3 lb=2:     18 shell pairs
          la=3 lb=3:      6 shell pairs

Calculating one electron integrals          ... done (  0.0 sec)
Calculating RI/J V-Matrix + Cholesky decomp.... done (  0.0 sec)
Calculating Nuclear repulsion               ... done (  0.0 sec) ENN=     68.566541513080 Eh

SHARK setup successfully completed in   0.1 seconds

Maximum memory used throughout the entire GTOINT-calculation: 14.9 MB


           ************************************************************
           *        Program running with 8 parallel MPI-processes     *
           *              working on a common directory               *
           ************************************************************
-------------------------------------------------------------------------------
                                 ORCA SCF
-------------------------------------------------------------------------------

------------
SCF SETTINGS
------------
Hamiltonian:
 Density Functional     Method          .... DFT(GTOs)
 Exchange Functional    Exchange        .... PBE
   PBE kappa parameter   XKappa         ....  0.804000
   PBE mue parameter    XMuePBE         ....  0.219520
 Correlation Functional Correlation     .... PBE
   PBE beta parameter  CBetaPBE         ....  0.066725
 LDA part of GGA corr.  LDAOpt          .... PW91-LDA
 Gradients option       PostSCFGGA      .... off
 Hybrid DFT is turned on
   Fraction HF Exchange ScalHFX         ....  0.250000
   Scaling of DF-GGA-X  ScalDFX         ....  0.750000
   Scaling of DF-GGA-C  ScalDFC         ....  1.000000
   Scaling of DF-LDA-C  ScalLDAC        ....  1.000000
   Perturbative correction              ....  0.000000
   Density functional embedding theory  .... OFF
   NL short-range parameter             ....  6.900000
 RI-approximation to the Coulomb term is turned on
   Number of AuxJ basis functions       .... 191
   RIJ-COSX (HFX calculated with COS-X)).... on


General Settings:
 Integral files         IntName         .... ox_gs_G_orca0002
 Hartree-Fock type      HFTyp           .... RHF
 Total Charge           Charge          ....    0
 Multiplicity           Mult            ....    1
 Number of Electrons    NEL             ....   24
 Basis Dimension        Dim             ....  117
 Nuclear Repulsion      ENuc            ....     68.5665415131 Eh

Convergence Acceleration:
 DIIS                   CNVDIIS         .... on
   Start iteration      DIISMaxIt       ....    12
   Startup error        DIISStart       ....  0.200000
   # of expansion vecs  DIISMaxEq       ....     5
   Bias factor          DIISBfac        ....   1.050
   Max. coefficient     DIISMaxC        ....  10.000
 Trust-Rad. Augm. Hess. CNVTRAH         .... auto
   Auto Start mean grad. ratio tolernc. ....  1.125000
   Auto Start start iteration           ....    20
   Auto Start num. interpolation iter.  ....    10
   Max. Number of Micro iterations      ....    16
   Max. Number of Macro iterations      .... Maxiter - #DIIS iter
   Number of Davidson start vectors     ....     2
   Converg. threshold I  (grad. norm)   ....   1.000e-05
   Converg. threshold II (energy diff.) ....   1.000e-08
   Grad. Scal. Fac. for Micro threshold ....   0.100
   Minimum threshold for Micro iter.    ....   0.010
   NR start threshold (gradient norm)   ....   0.001
   Initial trust radius                 ....   0.400
   Minimum AH scaling param. (alpha)    ....   1.000
   Maximum AH scaling param. (alpha)    .... 1000.000
   Orbital update algorithm             .... Taylor
   White noise on init. David. guess    .... on
   Maximum white noise                  ....   0.010
   Quad. conv. algorithm                .... NR
 SOSCF                  CNVSOSCF        .... on
   Start iteration      SOSCFMaxIt      ....   150
   Startup grad/error   SOSCFStart      ....  0.003300
 Level Shifting         CNVShift        .... on
   Level shift para.    LevelShift      ....    0.2500
   Turn off err/grad.   ShiftErr        ....    0.0010
 Zerner damping         CNVZerner       .... off
 Static damping         CNVDamp         .... on
   Fraction old density DampFac         ....    0.7000
   Max. Damping (<1)    DampMax         ....    0.9800
   Min. Damping (>=0)   DampMin         ....    0.0000
   Turn off err/grad.   DampErr         ....    0.1000
 Fernandez-Rico         CNVRico         .... off

SCF Procedure:
 Maximum # iterations   MaxIter         ....   125
 SCF integral mode      SCFMode         .... Direct
   Integral package                     .... SHARK and LIBINT hybrid scheme
 Reset frequency        DirectResetFreq ....    20
 Integral Threshold     Thresh          ....  2.500e-11 Eh
 Primitive CutOff       TCut            ....  2.500e-12 Eh

Convergence Tolerance:
 Convergence Check Mode ConvCheckMode   .... Total+1el-Energy
 Convergence forced     ConvForced      .... 0
 Energy Change          TolE            ....  1.000e-08 Eh
 1-El. energy change                    ....  1.000e-05 Eh
 Orbital Gradient       TolG            ....  1.000e-05
 Orbital Rotation angle TolX            ....  1.000e-05
 DIIS Error             TolErr          ....  5.000e-07


Diagonalization of the overlap matrix:
Smallest eigenvalue                        ... 5.025e-04
Time for diagonalization                   ...    0.001 sec
Threshold for overlap eigenvalues          ... 1.000e-08
Number of eigenvalues below threshold      ... 0
Time for construction of square roots      ...    0.001 sec
Total time needed                          ...    0.003 sec

Time for model grid setup =    0.023 sec

------------------------------
INITIAL GUESS: MODEL POTENTIAL
------------------------------
Loading Hartree-Fock densities                     ... done
Calculating cut-offs                               ... done
Initializing the effective Hamiltonian             ... done
Setting up the integral package (SHARK)            ... done
Starting the Coulomb interaction                   ... done (   0.0 sec)
Reading the grid                                   ... done
Mapping shells                                     ... done
Starting the XC term evaluation                    ... done (   0.0 sec)
  promolecular density results
     # of electrons  =     23.997531366
     EX              =    -19.490421783
     EC              =     -0.769620773
     EX+EC           =    -20.260042556
Transforming the Hamiltonian                       ... done (   0.0 sec)
Diagonalizing the Hamiltonian                      ... done (   0.0 sec)
Back transforming the eigenvectors                 ... done (   0.0 sec)
Now organizing SCF variables                       ... done
                      ------------------
                      INITIAL GUESS DONE (   0.0 sec)
                      ------------------
-------------------
DFT GRID GENERATION
-------------------

General Integration Accuracy     IntAcc      ... 4.388
Radial Grid Type                 RadialGrid  ... OptM3 with GC (2021)
Angular Grid (max. ang.)         AngularGrid ... 4 (Lebedev-302)
Angular grid pruning method      GridPruning ... 4 (adaptive)
Weight generation scheme         WeightScheme... Becke
Basis function cutoff            BFCut       ... 1.0000e-11
Integration weight cutoff        WCut        ... 1.0000e-14
Angular grids for H and He will be reduced by one unit
Partially contracted basis set               ... off
Rotationally invariant grid construction     ... off

Total number of grid points                  ...    31335
Total number of batches                      ...      494
Average number of points per batch           ...       63
Average number of grid points per atom       ...     4476
Time for grid setup =    0.110 sec

--------------------
COSX GRID GENERATION
--------------------

GRIDX 1
-------
General Integration Accuracy     IntAcc      ... 3.816
Radial Grid Type                 RadialGrid  ... OptM3 with GC (2021)
Angular Grid (max. ang.)         AngularGrid ... 1 (Lebedev-50)
Angular grid pruning method      GridPruning ... 4 (adaptive)
Weight generation scheme         WeightScheme... Becke
Basis function cutoff            BFCut       ... 1.0000e-11
Integration weight cutoff        WCut        ... 1.0000e-14
Angular grids for H and He will be reduced by one unit
Partially contracted basis set               ... on
Rotationally invariant grid construction     ... off

Total number of grid points                  ...     4042
Total number of batches                      ...       67
Average number of points per batch           ...       60
Average number of grid points per atom       ...      577
UseSFitting                                  ... on

GRIDX 2
-------
General Integration Accuracy     IntAcc      ... 4.020
Radial Grid Type                 RadialGrid  ... OptM3 with GC (2021)
Angular Grid (max. ang.)         AngularGrid ... 2 (Lebedev-110)
Angular grid pruning method      GridPruning ... 4 (adaptive)
Weight generation scheme         WeightScheme... Becke
Basis function cutoff            BFCut       ... 1.0000e-11
Integration weight cutoff        WCut        ... 1.0000e-14
Angular grids for H and He will be reduced by one unit
Partially contracted basis set               ... on
Rotationally invariant grid construction     ... off

Total number of grid points                  ...     8741
Total number of batches                      ...      141
Average number of points per batch           ...       61
Average number of grid points per atom       ...     1249
UseSFitting                                  ... on

GRIDX 3
-------
General Integration Accuracy     IntAcc      ... 4.338
Radial Grid Type                 RadialGrid  ... OptM3 with GC (2021)
Angular Grid (max. ang.)         AngularGrid ... 3 (Lebedev-194)
Angular grid pruning method      GridPruning ... 4 (adaptive)
Weight generation scheme         WeightScheme... Becke
Basis function cutoff            BFCut       ... 1.0000e-11
Integration weight cutoff        WCut        ... 1.0000e-14
Angular grids for H and He will be reduced by one unit
Partially contracted basis set               ... on
Rotationally invariant grid construction     ... off

Total number of grid points                  ...    19294
Total number of batches                      ...      304
Average number of points per batch           ...       63
Average number of grid points per atom       ...     2756
UseSFitting                                  ... on

Time for X-Grid setup             =    0.073 sec

--------------
SCF ITERATIONS
--------------
ITER       Energy         Delta-E        Max-DP      RMS-DP      [F,P]     Damp
               ***  Starting incremental Fock matrix formation  ***
  0   -153.1721231488   0.000000000000 0.48694759  0.00907505  0.3741736 0.7000
  1   -153.3161239725  -0.144000823642 0.09832335  0.00284962  0.0980033 0.7000
                               ***Turning on DIIS***
  2   -153.2843216710   0.031802301493 0.12577718  0.00259006  0.1276316 0.7000
  3   -153.3288392102  -0.044517539282 0.36025548  0.00730272  0.0577974 0.0000
  4   -153.4111404257  -0.082301215409 0.00971776  0.00034521  0.1270740 0.7000
  5   -153.4162000784  -0.005059652695 0.01198997  0.00043569  0.1181852 0.7000
  6   -153.4193982351  -0.003198156734 0.01165986  0.00044339  0.1134566 0.7000
  7   -153.4212646100  -0.001866374959 0.01042996  0.00041416  0.1110862 0.7000
  8   -153.4225329128  -0.001268302738 0.04773076  0.00128202  0.1091860 0.7000
  9   -153.4363258163  -0.013792903488 0.04801526  0.00164909  0.0167764 0.0000
 10   -153.4346440405   0.001681775790 0.03474915  0.00080278  0.0910272 0.0000
 11   -153.4445406896  -0.009896649135 0.01685931  0.00046956  0.0469684 0.0000
 12   -153.4475717438  -0.003031054134 0.00710134  0.00026691  0.0210338 0.0000
 13   -153.4483566061  -0.000784862348 0.00464266  0.00016911  0.0071636 0.0000
                      *** Initiating the SOSCF procedure ***
                           *** Shutting down DIIS ***
                      *** Re-Reading the Fockian *** 
                      *** Removing any level shift *** 
ITER      Energy       Delta-E        Grad      Rot      Max-DP    RMS-DP
 14   -153.44862890  -0.0002722963  0.003269  0.003269  0.003776  0.000142
               *** Restarting incremental Fock matrix formation ***
 15   -153.44882412  -0.0001952191  0.002625  0.028701  0.008633  0.000443
 16   -153.44932629  -0.0005021660  0.002564  0.148190  0.043110  0.001958
 17   -153.44862167   0.0007046190  0.014070  0.111672  0.039278  0.001325
 18   -153.45023760  -0.0016159359  0.004319  0.011898  0.007438  0.000301
 19   -153.45059845  -0.0003608413  0.002468  0.025195  0.007280  0.000373
 20   -153.45070807  -0.0001096224  0.002191  0.023947  0.007577  0.000356
 21   -153.45073858  -0.0000305076  0.000908  0.011180  0.003716  0.000175
 22   -153.45075388  -0.0000153047  0.000405  0.002084  0.000876  0.000040
 23   -153.45075791  -0.0000040266  0.000183  0.000956  0.000313  0.000013
 24   -153.45075850  -0.0000005906  0.000075  0.002074  0.000617  0.000027
 25   -153.45075881  -0.0000003162  0.000022  0.002881  0.000801  0.000038
 26   -153.45075901  -0.0000001948  0.000016  0.000431  0.000131  0.000005
 27   -153.45075902  -0.0000000151  0.000012  0.000072  0.000036  0.000001
 28   -153.45075903  -0.0000000040  0.000003  0.000023  0.000009  0.000000
                  ***Gradient check signals convergence***
              ***Rediagonalizing the Fockian in SOSCF/NRSCF***

               *****************************************************
               *                     SUCCESS                       *
               *           SCF CONVERGED AFTER  29 CYCLES          *
               *****************************************************

Old exchange energy                            =     -4.961597588 Eh
New exchange energy                            =     -4.961613214 Eh
Exchange energy change after final integration =     -0.000015626 Eh
Total energy after final integration           =   -153.450774654 Eh
Final COS-X integration done in                =     0.299 sec

----------------
TOTAL SCF ENERGY
----------------

Total Energy       :         -153.45077465 Eh           -4175.60786 eV

Components:
Nuclear Repulsion  :           68.56654151 Eh            1865.79045 eV
Electronic Energy  :         -222.01731617 Eh           -6041.39831 eV
One Electron Energy:         -343.82224482 Eh           -9355.87893 eV
Two Electron Energy:          121.80492865 Eh            3314.48061 eV
Max COSX asymmetry :            0.00000467 Eh               0.00013 eV

Virial components:
Potential Energy   :         -306.55346326 Eh           -8341.74382 eV
Kinetic Energy     :          153.10268861 Eh            4166.13596 eV
Virial Ratio       :            2.00227355


DFT components:
N(Alpha)           :       11.999994452338 electrons
N(Beta)            :       11.999994452338 electrons
N(Total)           :       23.999988904676 electrons
E(X)               :      -14.914639144331 Eh       
E(C)               :       -0.776651085082 Eh       
E(XC)              :      -15.691290229412 Eh       
DFET-embed. en.    :        0.000000000000 Eh       

---------------
SCF CONVERGENCE
---------------

  Last Energy change         ...   -6.6422e-10  Tolerance :   1.0000e-08
  Last MAX-Density change    ...    7.7716e-16  Tolerance :   1.0000e-07
  Last RMS-Density change    ...    2.0391e-17  Tolerance :   5.0000e-09
  Last Orbital Gradient      ...    6.4693e-07  Tolerance :   1.0000e-05
  Last Orbital Rotation      ...    4.5738e-06  Tolerance :   1.0000e-05

             **** THE GBW FILE WAS UPDATED (ox_gs_G_orca0002.gbw) ****
             **** DENSITY ox_gs_G_orca0002.scfp WAS UPDATED ****
             **** ENERGY FILE WAS UPDATED (ox_gs_G_orca0002.en.tmp) ****
             **** THE GBW FILE WAS UPDATED (ox_gs_G_orca0002.gbw) ****
             **** DENSITY ox_gs_G_orca0002.scfp WAS UPDATED ****
----------------
ORBITAL ENERGIES
----------------

  NO   OCC          E(Eh)            E(eV) 
   0   2.0000     -19.171375      -521.6796 
   1   2.0000     -10.302887      -280.3558 
   2   2.0000     -10.277945      -279.6771 
   3   2.0000      -1.031792       -28.0765 
   4   2.0000      -0.775008       -21.0891 
   5   2.0000      -0.616046       -16.7635 
   6   2.0000      -0.531242       -14.4558 
   7   2.0000      -0.491111       -13.3638 
   8   2.0000      -0.433963       -11.8087 
   9   2.0000      -0.404639       -11.0108 
  10   2.0000      -0.246900        -6.7185 
  11   2.0000      -0.220766        -6.0073 
  12   0.0000      -0.159764        -4.3474 
  13   0.0000       0.035476         0.9653 
  14   0.0000       0.079359         2.1595 
  15   0.0000       0.091893         2.5005 
  16   0.0000       0.146312         3.9814 
  17   0.0000       0.151727         4.1287 
  18   0.0000       0.187253         5.0954 
  19   0.0000       0.223871         6.0918 
  20   0.0000       0.231288         6.2937 
  21   0.0000       0.234650         6.3852 
  22   0.0000       0.247349         6.7307 
  23   0.0000       0.340352         9.2615 
  24   0.0000       0.365323         9.9410 
  25   0.0000       0.376295        10.2395 
  26   0.0000       0.401224        10.9179 
  27   0.0000       0.416286        11.3277 
  28   0.0000       0.446388        12.1468 
  29   0.0000       0.452902        12.3241 
  30   0.0000       0.517674        14.0866 
  31   0.0000       0.532750        14.4969 
  32   0.0000       0.539280        14.6745 
  33   0.0000       0.628091        17.0912 
  34   0.0000       0.656165        17.8552 
  35   0.0000       0.740763        20.1572 
  36   0.0000       0.802961        21.8497 
  37   0.0000       0.873315        23.7641 
  38   0.0000       0.888928        24.1890 
  39   0.0000       0.930129        25.3101 
  40   0.0000       0.943641        25.6778 
  41   0.0000       0.995968        27.1017 
  42   0.0000       1.083142        29.4738 
  43   0.0000       1.135043        30.8861 
  44   0.0000       1.220129        33.2014 
  45   0.0000       1.349506        36.7219 
  46   0.0000       1.414303        38.4851 
  47   0.0000       1.438892        39.1542 
  48   0.0000       1.498554        40.7777 
  49   0.0000       1.503600        40.9150 
  50   0.0000       1.540957        41.9316 
  51   0.0000       1.588786        43.2331 
  52   0.0000       1.603197        43.6252 
  53   0.0000       1.618792        44.0496 
  54   0.0000       1.697584        46.1936 
  55   0.0000       1.736665        47.2571 
  56   0.0000       1.810121        49.2559 
  57   0.0000       1.871218        50.9184 
  58   0.0000       1.962859        53.4121 
  59   0.0000       1.982670        53.9512 
  60   0.0000       2.005083        54.5611 
  61   0.0000       2.017720        54.9050 
  62   0.0000       2.079645        56.5900 
  63   0.0000       2.258051        61.4447 
  64   0.0000       2.327287        63.3287 
  65   0.0000       2.347876        63.8890 
  66   0.0000       2.402883        65.3858 
  67   0.0000       2.442042        66.4513 
  68   0.0000       2.542392        69.1820 
  69   0.0000       2.564989        69.7969 
  70   0.0000       2.577942        70.1494 
  71   0.0000       2.595573        70.6291 
  72   0.0000       2.659220        72.3610 
  73   0.0000       2.738918        74.5297 
  74   0.0000       2.762949        75.1837 
  75   0.0000       2.785150        75.7878 
  76   0.0000       2.870802        78.1185 
  77   0.0000       2.963508        80.6412 
  78   0.0000       2.996635        81.5426 
  79   0.0000       3.026595        82.3578 
  80   0.0000       3.049496        82.9810 
  81   0.0000       3.076735        83.7222 
  82   0.0000       3.103853        84.4601 
  83   0.0000       3.149208        85.6943 
  84   0.0000       3.187996        86.7498 
  85   0.0000       3.234476        88.0146 
  86   0.0000       3.326837        90.5278 
  87   0.0000       3.378190        91.9252 
  88   0.0000       3.410080        92.7930 
  89   0.0000       3.511212        95.5449 
  90   0.0000       3.534594        96.1812 
  91   0.0000       3.627589        98.7117 
  92   0.0000       3.724943       101.3609 
  93   0.0000       3.818210       103.8988 
  94   0.0000       4.025730       109.5457 
  95   0.0000       4.134060       112.4935 
  96   0.0000       4.171152       113.5028 
  97   0.0000       4.235220       115.2462 
  98   0.0000       4.395538       119.6087 
  99   0.0000       4.520859       123.0188 
 100   0.0000       4.653598       126.6308 
 101   0.0000       4.729176       128.6874 
 102   0.0000       5.203604       141.5973 
 103   0.0000       5.261999       143.1863 
 104   0.0000       5.476840       149.0324 
 105   0.0000       5.513903       150.0409 
 106   0.0000       5.937389       161.5646 
 107   0.0000       6.028856       164.0535 
 108   0.0000       6.145528       167.2283 
 109   0.0000       6.413550       174.5216 
 110   0.0000       6.419940       174.6954 
 111   0.0000       6.855300       186.5422 
 112   0.0000       6.874895       187.0754 
 113   0.0000       6.974763       189.7930 
 114   0.0000      22.034825       599.5981 
 115   0.0000      22.687812       617.3667 
 116   0.0000      43.853085      1193.3031 

                    ********************************
                    * MULLIKEN POPULATION ANALYSIS *
                    ********************************

-----------------------
MULLIKEN ATOMIC CHARGES
-----------------------
   0 O :   -0.420935
   1 C :   -0.134885
   2 C :   -0.145764
   3 H :    0.234205
   4 H :    0.156239
   5 H :    0.158449
   6 H :    0.152690
Sum of atomic charges:   -0.0000000

--------------------------------
MULLIKEN REDUCED ORBITAL CHARGES
--------------------------------
  0 O s       :     3.886679  s :     3.886679
      pz      :     1.724458  p :     4.501805
      px      :     1.616804
      py      :     1.160543
      dz2     :     0.003311  d :     0.030711
      dxz     :     0.001913
      dyz     :     0.007299
      dx2y2   :     0.007584
      dxy     :     0.010604
      f0      :     0.000199  f :     0.001741
      f+1     :     0.000109
      f-1     :     0.000186
      f+2     :     0.000120
      f-2     :     0.000231
      f+3     :     0.000473
      f-3     :     0.000423
  1 C s       :     3.184166  s :     3.184166
      pz      :     1.041289  p :     2.774749
      px      :     0.881946
      py      :     0.851514
      dz2     :     0.011527  d :     0.160863
      dxz     :     0.033154
      dyz     :     0.041111
      dx2y2   :     0.054915
      dxy     :     0.020155
      f0      :     0.001769  f :     0.015107
      f+1     :     0.001411
      f-1     :     0.000327
      f+2     :     0.001181
      f-2     :     0.002380
      f+3     :     0.002130
      f-3     :     0.005908
  2 C s       :     3.332059  s :     3.332059
      pz      :     1.041192  p :     2.766377
      px      :     0.889992
      py      :     0.835193
      dz2     :     0.005600  d :     0.043722
      dxz     :     0.021684
      dyz     :     0.003586
      dx2y2   :     0.004750
      dxy     :     0.008102
      f0      :     0.000397  f :     0.003606
      f+1     :     0.000893
      f-1     :     0.000227
      f+2     :     0.000624
      f-2     :     0.000085
      f+3     :     0.000567
      f-3     :     0.000812
  3 H s       :     0.735354  s :     0.735354
      pz      :     0.012283  p :     0.030441
      px      :     0.009227
      py      :     0.008931
  4 H s       :     0.816564  s :     0.816564
      pz      :     0.009955  p :     0.027197
      px      :     0.009245
      py      :     0.007997
  5 H s       :     0.816823  s :     0.816823
      pz      :     0.011966  p :     0.024728
      px      :     0.006663
      py      :     0.006099
  6 H s       :     0.830261  s :     0.830261
      pz      :     0.008985  p :     0.017049
      px      :     0.004459
      py      :     0.003604


                     *******************************
                     * LOEWDIN POPULATION ANALYSIS *
                     *******************************

----------------------
LOEWDIN ATOMIC CHARGES
----------------------
   0 O :   -0.073200
   1 C :   -0.494937
   2 C :   -0.056953
   3 H :    0.218546
   4 H :    0.152967
   5 H :    0.094735
   6 H :    0.158842

-------------------------------
LOEWDIN REDUCED ORBITAL CHARGES
-------------------------------
  0 O s       :     3.498851  s :     3.498851
      pz      :     1.642519  p :     4.490492
      px      :     1.593928
      py      :     1.254045
      dz2     :     0.007238  d :     0.078269
      dxz     :     0.006188
      dyz     :     0.023481
      dx2y2   :     0.020301
      dxy     :     0.021062
      f0      :     0.000844  f :     0.005587
      f+1     :     0.000277
      f-1     :     0.000507
      f+2     :     0.000352
      f-2     :     0.001036
      f+3     :     0.001345
      f-3     :     0.001226
  1 C s       :     2.794746  s :     2.794746
      pz      :     1.029050  p :     2.984037
      px      :     1.020318
      py      :     0.934669
      dz2     :     0.072938  d :     0.618051
      dxz     :     0.113462
      dyz     :     0.109488
      dx2y2   :     0.197025
      dxy     :     0.125138
      f0      :     0.012402  f :     0.098103
      f+1     :     0.008789
      f-1     :     0.005124
      f+2     :     0.006112
      f-2     :     0.017622
      f+3     :     0.015852
      f-3     :     0.032202
  2 C s       :     2.955083  s :     2.955083
      pz      :     1.063716  p :     2.876520
      px      :     1.023996
      py      :     0.788808
      dz2     :     0.028076  d :     0.204567
      dxz     :     0.101783
      dyz     :     0.009499
      dx2y2   :     0.034720
      dxy     :     0.030488
      f0      :     0.003352  f :     0.020783
      f+1     :     0.003263
      f-1     :     0.001101
      f+2     :     0.003685
      f-2     :     0.001301
      f+3     :     0.004037
      f-3     :     0.004044
  3 H s       :     0.701906  s :     0.701906
      pz      :     0.033716  p :     0.079549
      px      :     0.023464
      py      :     0.022369
  4 H s       :     0.773048  s :     0.773048
      pz      :     0.028906  p :     0.073985
      px      :     0.022781
      py      :     0.022299
  5 H s       :     0.823625  s :     0.823625
      pz      :     0.040005  p :     0.081640
      px      :     0.020730
      py      :     0.020905
  6 H s       :     0.795671  s :     0.795671
      pz      :     0.025032  p :     0.045487
      px      :     0.010750
      py      :     0.009705


                      *****************************
                      * MAYER POPULATION ANALYSIS *
                      *****************************

  NA   - Mulliken gross atomic population
  ZA   - Total nuclear charge
  QA   - Mulliken gross atomic charge
  VA   - Mayer's total valence
  BVA  - Mayer's bonded valence
  FA   - Mayer's free valence

  ATOM       NA         ZA         QA         VA         BVA        FA
  0 O      8.4209     8.0000    -0.4209     1.7061     1.7061    -0.0000
  1 C      6.1349     6.0000    -0.1349     4.1300     4.1300    -0.0000
  2 C      6.1458     6.0000    -0.1458     3.6207     3.6207    -0.0000
  3 H      0.7658     1.0000     0.2342     0.9508     0.9508    -0.0000
  4 H      0.8438     1.0000     0.1562     0.9632     0.9632     0.0000
  5 H      0.8416     1.0000     0.1584     0.9626     0.9626     0.0000
  6 H      0.8473     1.0000     0.1527     0.9655     0.9655    -0.0000

  Mayer bond orders larger than 0.100000
B(  0-O ,  1-C ) :   1.1454 B(  0-O ,  2-C ) :   0.4813 B(  1-C ,  2-C ) :   1.1958 
B(  1-C ,  3-H ) :   0.8011 B(  1-C ,  4-H ) :   0.9699 B(  2-C ,  5-H ) :   0.9482 
B(  2-C ,  6-H ) :   0.9308 

-------
TIMINGS
-------

Total SCF time: 0 days 0 hours 0 min 5 sec 

Total time                  ....       5.435 sec
Sum of individual times     ....       5.080 sec  ( 93.5%)

Fock matrix formation       ....       4.752 sec  ( 87.4%)
  Split-RI-J                ....       0.434 sec  (  9.1% of F)
  Chain of spheres X        ....       3.262 sec  ( 68.6% of F)
  XC integration            ....       0.958 sec  ( 20.2% of F)
    Basis function eval.    ....       0.257 sec  ( 26.8% of XC)
    Density eval.           ....       0.191 sec  ( 20.0% of XC)
    XC-Functional eval.     ....       0.058 sec  (  6.0% of XC)
    XC-Potential eval.      ....       0.327 sec  ( 34.1% of XC)
Diagonalization             ....       0.034 sec  (  0.6%)
Density matrix formation    ....       0.003 sec  (  0.1%)
Population analysis         ....       0.002 sec  (  0.0%)
Initial guess               ....       0.016 sec  (  0.3%)
Orbital Transformation      ....       0.000 sec  (  0.0%)
Orbital Orthonormalization  ....       0.000 sec  (  0.0%)
DIIS solution               ....       0.032 sec  (  0.6%)
SOSCF solution              ....       0.033 sec  (  0.6%)
Grid generation             ....       0.205 sec  (  3.8%)

Maximum memory used throughout the entire SCF-calculation: 61.0 MB


-------------------------------------------------------------------------------
                          DFT DISPERSION CORRECTION                            
                                                                               
                              DFTD3 V3.1  Rev 1                                
                          USING Becke-Johnson damping                          
-------------------------------------------------------------------------------
The PBE0 functional is recognized
Active option DFTDOPT                   ...         4   

molecular C6(AA) [au] = 395.476237 


            DFT-D V3
 parameters
 s6 scaling factor         :     1.0000 
 a1 scaling factor         :     0.4145 
 s8 scaling factor         :     1.2177 
 a2 scaling factor         :     4.8593 
 ad hoc parameters k1-k3   :    16.0000     1.3333    -4.0000 

 Edisp/kcal,au: -1.620866861934  -0.002583015486 
 E6   /kcal   :  -1.057626508 
 E8   /kcal   :  -0.563240354 
 % E8         :  34.749328742 

-------------------------   ----------------
Dispersion correction           -0.002583015
-------------------------   ----------------


-------------------------   --------------------
FINAL SINGLE POINT ENERGY      -153.453357669842
-------------------------   --------------------



           ************************************************************
           *        Program running with 8 parallel MPI-processes     *
           *              working on a common directory               *
           ************************************************************
------------------------------------------------------------------------------
                         ORCA SCF GRADIENT CALCULATION
------------------------------------------------------------------------------

 ... reading COSX grid (gridx3)
Gradient of the Kohn-Sham DFT energy:
Kohn-Sham wavefunction type      ... RKS
Hartree-Fock exchange scaling    ...    0.250
Number of operators              ...    1
Number of atoms                  ...    7
Basis set dimensions             ...  117
Integral neglect threshold       ... 2.5e-11
Integral primitive cutoff        ... 2.5e-12
SHARK Integral package           ... ON

Nuc. rep. gradient       (SHARK) ... done (  0.0 sec)
HCore & Overlap gradient (SHARK) ... done (  0.0 sec)
RI-J gradient            (SHARK) ... done (  0.1 sec)
COSX-gradient                    ... done (  0.3 sec)
Exchange-correlation gradient    ... done
Dispersion correction            ... done

------------------
CARTESIAN GRADIENT
------------------

   1   O   :    0.044147136   -0.091256658   -0.047464059
   2   C   :   -0.038700903   -0.015457754    0.090945995
   3   C   :    0.027513924    0.018896513   -0.136915662
   4   H   :   -0.000258191    0.027677206   -0.042765824
   5   H   :   -0.027804708    0.057265776    0.019382006
   6   H   :   -0.030959518    0.027247138    0.058246079
   7   H   :    0.026103382   -0.024279432    0.058687450

Difference to translation invariance:
           :    0.0000411210    0.0000927887    0.0001159860

Difference to rotation invariance:
           :    0.0000975380    0.0003850614   -0.0001537856

Norm of the cartesian gradient     ...    0.2433704874
RMS gradient                       ...    0.0531077943
MAX gradient                       ...    0.1369156616

-------
TIMINGS
-------

Total SCF gradient time            ...        0.701 sec

One electron gradient       ....       0.009 sec  (  1.3%)
RI-J Coulomb gradient       ....       0.073 sec  ( 10.5%)
COSX gradient               ....       0.321 sec  ( 45.8%)
XC gradient                 ....       0.159 sec  ( 22.7%)

Maximum memory used throughout the entire SCFGRAD-calculation: 35.8 MB

                            ***************************************
                            *     ORCA property calculations      *
                            ***************************************

                                    ---------------------
                                    Active property flags
                                    ---------------------
   (+) Dipole Moment


------------------------------------------------------------------------------
                       ORCA ELECTRIC PROPERTIES CALCULATION
------------------------------------------------------------------------------

Dipole Moment Calculation                       ... on
Quadrupole Moment Calculation                   ... off
Polarizability Calculation                      ... off
GBWName                                         ... ox_gs_G_orca0002.gbw
Electron density                                ... ox_gs_G_orca0002.scfp
The origin for moment calculation is the CENTER OF MASS  = (-1.007672, -0.100337 -0.077746)

-------------
DIPOLE MOMENT
-------------
                                X             Y             Z
Electronic contribution:     -1.02767       1.44306      -0.10392
Nuclear contribution   :      2.02533      -2.37835       0.11623
                        -----------------------------------------
Total Dipole Moment    :      0.99767      -0.93530       0.01231
                        -----------------------------------------
Magnitude (a.u.)       :      1.36758
Magnitude (Debye)      :      3.47610



--------------------
Rotational spectrum 
--------------------
 
Rotational constants in cm-1:     2.054132     0.304643     0.297791 
Rotational constants in MHz : 61581.316658  9132.954937  8927.559930 

 Dipole components along the rotational axes: 
x,y,z [a.u.] :    -1.304430    -0.403629     0.076232 
x,y,z [Debye]:    -3.315599    -1.025944     0.193767 

 

Timings for individual modules:

Sum of individual times         ...        6.817 sec (=   0.114 min)
GTO integral calculation        ...        0.301 sec (=   0.005 min)   4.4 %
SCF iterations                  ...        5.605 sec (=   0.093 min)  82.2 %
SCF Gradient evaluation         ...        0.911 sec (=   0.015 min)  13.4 %
                             ****ORCA TERMINATED NORMALLY****
TOTAL RUN TIME: 0 days 0 hours 0 minutes 7 seconds 72 msec
