
                                 *****************
                                 * O   R   C   A *
                                 *****************

                                            #,                                       
                                            ###                                      
                                            ####                                     
                                            #####                                    
                                            ######                                   
                                           ########,                                 
                                     ,,################,,,,,                         
                               ,,#################################,,                 
                          ,,##########################################,,             
                       ,#########################################, ''#####,          
                    ,#############################################,,   '####,        
                  ,##################################################,,,,####,       
                ,###########''''           ''''###############################       
              ,#####''   ,,,,##########,,,,          '''####'''          '####       
            ,##' ,,,,###########################,,,                        '##       
           ' ,,###''''                  '''############,,,                           
         ,,##''                                '''############,,,,        ,,,,,,###''
      ,#''                                            '''#######################'''  
     '                                                          ''''####''''         
             ,#######,   #######,   ,#######,      ##                                
            ,#'     '#,  ##    ##  ,#'     '#,    #''#        ######   ,####,        
            ##       ##  ##   ,#'  ##            #'  '#       #        #'  '#        
            ##       ##  #######   ##           ,######,      #####,   #    #        
            '#,     ,#'  ##    ##  '#,     ,#' ,#      #,         ##   #,  ,#        
             '#######'   ##     ##  '#######'  #'      '#     #####' # '####'        



                  #######################################################
                  #                        -***-                        #
                  #          Department of theory and spectroscopy      #
                  #    Directorship and core code : Frank Neese         #
                  #        Max Planck Institute fuer Kohlenforschung    #
                  #                Kaiser Wilhelm Platz 1               #
                  #                 D-45470 Muelheim/Ruhr               #
                  #                      Germany                        #
                  #                                                     #
                  #                  All rights reserved                #
                  #                        -***-                        #
                  #######################################################


                         Program Version 5.0.2 -  RELEASE  -


 With contributions from (in alphabetic order):
   Daniel Aravena         : Magnetic Suceptibility
   Michael Atanasov       : Ab Initio Ligand Field Theory (pilot matlab implementation)
   Alexander A. Auer      : GIAO ZORA, VPT2 properties, NMR spectrum
   Ute Becker             : Parallelization
   Giovanni Bistoni       : ED, misc. LED, open-shell LED, HFLD
   Martin Brehm           : Molecular dynamics
   Dmytro Bykov           : SCF Hessian
   Vijay G. Chilkuri      : MRCI spin determinant printing, contributions to CSF-ICE
   Dipayan Datta          : RHF DLPNO-CCSD density
   Achintya Kumar Dutta   : EOM-CC, STEOM-CC
   Dmitry Ganyushin       : Spin-Orbit,Spin-Spin,Magnetic field MRCI
   Miquel Garcia          : C-PCM and meta-GGA Hessian, CC/C-PCM, Gaussian charge scheme
   Yang Guo               : DLPNO-NEVPT2, F12-NEVPT2, CIM, IAO-localization
   Andreas Hansen         : Spin unrestricted coupled pair/coupled cluster methods
   Benjamin Helmich-Paris : MC-RPA, TRAH-SCF, COSX integrals
   Lee Huntington         : MR-EOM, pCC
   Robert Izsak           : Overlap fitted RIJCOSX, COSX-SCS-MP3, EOM
   Marcus Kettner         : VPT2
   Christian Kollmar      : KDIIS, OOCD, Brueckner-CCSD(T), CCSD density, CASPT2, CASPT2-K
   Simone Kossmann        : Meta GGA functionals, TD-DFT gradient, OOMP2, MP2 Hessian
   Martin Krupicka        : Initial AUTO-CI
   Lucas Lang             : DCDCAS
   Marvin Lechner         : AUTO-CI (C++ implementation), FIC-MRCC
   Dagmar Lenk            : GEPOL surface, SMD
   Dimitrios Liakos       : Extrapolation schemes; Compound Job, initial MDCI parallelization
   Dimitrios Manganas     : Further ROCIS development; embedding schemes
   Dimitrios Pantazis     : SARC Basis sets
   Anastasios Papadopoulos: AUTO-CI, single reference methods and gradients
   Taras Petrenko         : DFT Hessian,TD-DFT gradient, ASA, ECA, R-Raman, ABS, FL, XAS/XES, NRVS
   Peter Pinski           : DLPNO-MP2, DLPNO-MP2 Gradient
   Christoph Reimann      : Effective Core Potentials
   Marius Retegan         : Local ZFS, SOC
   Christoph Riplinger    : Optimizer, TS searches, QM/MM, DLPNO-CCSD(T), (RO)-DLPNO pert. Triples
   Tobias Risthaus        : Range-separated hybrids, TD-DFT gradient, RPA, STAB
   Michael Roemelt        : Original ROCIS implementation
   Masaaki Saitow         : Open-shell DLPNO-CCSD energy and density
   Barbara Sandhoefer     : DKH picture change effects
   Avijit Sen             : IP-ROCIS
   Kantharuban Sivalingam : CASSCF convergence, NEVPT2, FIC-MRCI
   Bernardo de Souza      : ESD, SOC TD-DFT
   Georgi Stoychev        : AutoAux, RI-MP2 NMR, DLPNO-MP2 response
   Willem Van den Heuvel  : Paramagnetic NMR
   Boris Wezisla          : Elementary symmetry handling
   Frank Wennmohs         : Technical directorship


 We gratefully acknowledge several colleagues who have allowed us to
 interface, adapt or use parts of their codes:
   Stefan Grimme, W. Hujo, H. Kruse, P. Pracht,  : VdW corrections, initial TS optimization,
                  C. Bannwarth, S. Ehlert          DFT functionals, gCP, sTDA/sTD-DF
   Ed Valeev, F. Pavosevic, A. Kumar             : LibInt (2-el integral package), F12 methods
   Garnet Chan, S. Sharma, J. Yang, R. Olivares  : DMRG
   Ulf Ekstrom                                   : XCFun DFT Library
   Mihaly Kallay                                 : mrcc  (arbitrary order and MRCC methods)
   Jiri Pittner, Ondrej Demel                    : Mk-CCSD
   Frank Weinhold                                : gennbo (NPA and NBO analysis)
   Christopher J. Cramer and Donald G. Truhlar   : smd solvation model
   Lars Goerigk                                  : TD-DFT with DH, B97 family of functionals
   V. Asgeirsson, H. Jonsson                     : NEB implementation
   FAccTs GmbH                                   : IRC, NEB, NEB-TS, DLPNO-Multilevel, CI-OPT
                                                   MM, QMMM, 2- and 3-layer-ONIOM, Crystal-QMMM,
                                                   LR-CPCM, SF, NACMEs, symmetry and pop. for TD-DFT,
                                                   nearIR, NL-DFT gradient (VV10), updates on ESD,
                                                   ML-optimized integration grids
   S Lehtola, MJT Oliveira, MAL Marques          : LibXC Library
   Liviu Ungur et al                             : ANISO software


 Your calculation uses the libint2 library for the computation of 2-el integrals
 For citations please refer to: http://libint.valeyev.net

 Your ORCA version has been built with support for libXC version: 5.1.0
 For citations please refer to: https://tddft.org/programs/libxc/

 This ORCA versions uses:
   CBLAS   interface :  Fast vector & matrix operations
   LAPACKE interface :  Fast linear algebra routines
   SCALAPACK package :  Parallel linear algebra routines
   Shared memory     :  Shared parallel matrices
   BLAS/LAPACK       :  OpenBLAS 0.3.15  USE64BITINT DYNAMIC_ARCH NO_AFFINITY SkylakeX SINGLE_THREADED
        Core in use  :  SkylakeX
   Copyright (c) 2011-2014, The OpenBLAS Project


Your calculation utilizes the atom-pairwise dispersion correction
with the Becke-Johnson damping scheme (D3BJ)
Cite in your paper:
S.Grimme, S.Ehrlich, L.Goerigk, J Comput Chem, (2011), 32, 1456–1465 
S.Grimme, J.Antony, S.Ehrlich and H.Krieg, J.Chem.Phys., 132, (2010), 154104 
   

================================================================================

----- Orbital basis set information -----
Your calculation utilizes the basis: def2-TZVP
   F. Weigend and R. Ahlrichs, Phys. Chem. Chem. Phys. 7, 3297 (2005).

----- AuxJ basis set information -----
Your calculation utilizes the auxiliary basis: def2/J
   F. Weigend, Phys. Chem. Chem. Phys. 8, 1057 (2006).

================================================================================
                                        WARNINGS
                       Please study these warnings very carefully!
================================================================================


INFO   : the flag for use of the SHARK integral package has been found!

================================================================================
                                       INPUT FILE
================================================================================
NAME = ox_gs_B_orca0000.inp
|  1> ! engrad PBE0 D3BJ def2-TZVP  
|  2> %pal nprocs 8 end
|  3> %maxcore 3000
|  4>  
|  5> *xyz 0 1 
|  6> O   -0.22103106658483984 0.823997677270794 0.07163546898886669
|  7> C   -0.7445221848045857 -0.4830499266682506 0.04435814701538693
|  8> C   0.7718689606858707 -0.47884666522086744 0.0007848186057214459
|  9> H   -1.37595717770927 -0.6107690237640091 0.9695735211171339
| 10> H   -1.2161565635943785 -0.7693336510097486 -0.9366800882904048
| 11> H   1.2639287382341742 -0.6479981894214905 -0.9055216229509983
| 12> H   1.3298807796064693 -0.745616087661462 0.9098438537685409
| 13> *
| 14> 
| 15>                          ****END OF INPUT****
================================================================================

                     *******************************
                     * Energy+Gradient Calculation *
                     *******************************

---------------------------------
CARTESIAN COORDINATES (ANGSTROEM)
---------------------------------
  O     -0.221031    0.823998    0.071635
  C     -0.744522   -0.483050    0.044358
  C      0.771869   -0.478847    0.000785
  H     -1.375957   -0.610769    0.969574
  H     -1.216157   -0.769334   -0.936680
  H      1.263929   -0.647998   -0.905522
  H      1.329881   -0.745616    0.909844

----------------------------
CARTESIAN COORDINATES (A.U.)
----------------------------
  NO LB      ZA    FRAG     MASS         X           Y           Z
   0 O     8.0000    0    15.999   -0.417688    1.557130    0.135371
   1 C     6.0000    0    12.011   -1.406943   -0.912832    0.083825
   2 C     6.0000    0    12.011    1.458621   -0.904889    0.001483
   3 H     1.0000    0     1.008   -2.600182   -1.154186    1.832228
   4 H     1.0000    0     1.008   -2.298203   -1.453830   -1.770069
   5 H     1.0000    0     1.008    2.388479   -1.224539   -1.711188
   6 H     1.0000    0     1.008    2.513110   -1.409010    1.719356

--------------------------------
INTERNAL COORDINATES (ANGSTROEM)
--------------------------------
 O      0   0   0     0.000000000000     0.00000000     0.00000000
 C      1   0   0     1.408247294374     0.00000000     0.00000000
 C      2   1   0     1.517022876715    68.06263123     0.00000000
 H      2   1   3     1.127406673078   107.30437556   122.25244845
 H      2   1   3     1.125536928408   114.12475858   253.40196459
 H      3   2   1     1.045048529413   119.67725576   257.31533262
 H      3   2   1     1.099514185545   118.87343445   104.32067162

---------------------------
INTERNAL COORDINATES (A.U.)
---------------------------
 O      0   0   0     0.000000000000     0.00000000     0.00000000
 C      1   0   0     2.661201715203     0.00000000     0.00000000
 C      2   1   0     2.866757775885    68.06263123     0.00000000
 H      2   1   3     2.130489853673   107.30437556   122.25244845
 H      2   1   3     2.126956548307   114.12475858   253.40196459
 H      3   2   1     1.974855517247   119.67725576   257.31533262
 H      3   2   1     2.077780691042   118.87343445   104.32067162

---------------------
BASIS SET INFORMATION
---------------------
There are 3 groups of distinct atoms

 Group   1 Type O   : 11s6p2d1f contracted to 5s3p2d1f pattern {62111/411/11/1}
 Group   2 Type C   : 11s6p2d1f contracted to 5s3p2d1f pattern {62111/411/11/1}
 Group   3 Type H   : 5s1p contracted to 3s1p pattern {311/1}

Atom   0O    basis set group =>   1
Atom   1C    basis set group =>   2
Atom   2C    basis set group =>   2
Atom   3H    basis set group =>   3
Atom   4H    basis set group =>   3
Atom   5H    basis set group =>   3
Atom   6H    basis set group =>   3
---------------------------------
AUXILIARY/J BASIS SET INFORMATION
---------------------------------
There are 3 groups of distinct atoms

 Group   1 Type O   : 12s5p4d2f1g contracted to 6s4p3d1f1g pattern {711111/2111/211/2/1}
 Group   2 Type C   : 12s5p4d2f1g contracted to 6s4p3d1f1g pattern {711111/2111/211/2/1}
 Group   3 Type H   : 5s2p1d contracted to 3s1p1d pattern {311/2/1}

Atom   0O    basis set group =>   1
Atom   1C    basis set group =>   2
Atom   2C    basis set group =>   2
Atom   3H    basis set group =>   3
Atom   4H    basis set group =>   3
Atom   5H    basis set group =>   3
Atom   6H    basis set group =>   3


           ************************************************************
           *        Program running with 8 parallel MPI-processes     *
           *              working on a common directory               *
           ************************************************************
------------------------------------------------------------------------------
                           ORCA GTO INTEGRAL CALCULATION
                           -- RI-GTO INTEGRALS CHOSEN --
------------------------------------------------------------------------------
------------------------------------------------------------------------------
                   ___                                                        
                  /   \      - P O W E R E D   B Y -                         
                 /     \                                                     
                 |  |  |   _    _      __       _____    __    __             
                 |  |  |  | |  | |    /  \     |  _  \  |  |  /  |          
                  \  \/   | |  | |   /    \    | | | |  |  | /  /          
                 / \  \   | |__| |  /  /\  \   | |_| |  |  |/  /          
                |  |  |   |  __  | /  /__\  \  |    /   |      \           
                |  |  |   | |  | | |   __   |  |    \   |  |\   \          
                \     /   | |  | | |  |  |  |  | |\  \  |  | \   \       
                 \___/    |_|  |_| |__|  |__|  |_| \__\ |__|  \__/        
                                                                              
                      - O R C A' S   B I G   F R I E N D -                    
                                      &                                       
                       - I N T E G R A L  F E E D E R -                       
                                                                              
 v1 FN, 2020, v2 2021                                                         
------------------------------------------------------------------------------


Reading SHARK input file ox_gs_B_orca0000.SHARKINP.tmp ... ok
----------------------
SHARK INTEGRAL PACKAGE
----------------------

Number of atoms                             ...      7
Number of basis functions                   ...    117
Number of shells                            ...     49
Maximum angular momentum                    ...      3
Integral batch strategy                     ... SHARK/LIBINT Hybrid
RI-J (if used) integral strategy            ... SPLIT-RIJ (Revised 2003 algorithm where possible)
Printlevel                                  ...      1
Contraction scheme used                     ... SEGMENTED contraction
Coulomb Range Separation                    ... NOT USED
Exchange Range Separation                   ... NOT USED
Finite Nucleus Model                        ... NOT USED
Auxiliary Coulomb fitting basis             ... AVAILABLE
   # of basis functions in Aux-J            ...    191
   # of shells in Aux-J                     ...     65
   Maximum angular momentum in Aux-J        ...      4
Auxiliary J/K fitting basis                 ... NOT available
Auxiliary Correlation fitting basis         ... NOT available
Auxiliary 'external' fitting basis          ... NOT available
Integral threshold                          ...     2.500000e-11
Primitive cut-off                           ...     2.500000e-12
Primitive pair pre-selection threshold      ...     2.500000e-12

Calculating pre-screening integrals         ... done (  0.0 sec) Dimension = 49
Organizing shell pair data                  ... done (  0.0 sec)
Shell pair information
Total number of shell pairs                 ...      1225
Shell pairs after pre-screening             ...      1220
Total number of primitive shell pairs       ...      3648
Primitive shell pairs kept                  ...      3139
          la=0 lb=0:    373 shell pairs
          la=1 lb=0:    351 shell pairs
          la=1 lb=1:     91 shell pairs
          la=2 lb=0:    162 shell pairs
          la=2 lb=1:     78 shell pairs
          la=2 lb=2:     21 shell pairs
          la=3 lb=0:     81 shell pairs
          la=3 lb=1:     39 shell pairs
          la=3 lb=2:     18 shell pairs
          la=3 lb=3:      6 shell pairs

Calculating one electron integrals          ... done (  0.0 sec)
Calculating RI/J V-Matrix + Cholesky decomp.... done (  0.0 sec)
Calculating Nuclear repulsion               ... done (  0.0 sec) ENN=     72.241415273663 Eh

SHARK setup successfully completed in   0.2 seconds

Maximum memory used throughout the entire GTOINT-calculation: 14.9 MB


           ************************************************************
           *        Program running with 8 parallel MPI-processes     *
           *              working on a common directory               *
           ************************************************************
-------------------------------------------------------------------------------
                                 ORCA SCF
-------------------------------------------------------------------------------

------------
SCF SETTINGS
------------
Hamiltonian:
 Density Functional     Method          .... DFT(GTOs)
 Exchange Functional    Exchange        .... PBE
   PBE kappa parameter   XKappa         ....  0.804000
   PBE mue parameter    XMuePBE         ....  0.219520
 Correlation Functional Correlation     .... PBE
   PBE beta parameter  CBetaPBE         ....  0.066725
 LDA part of GGA corr.  LDAOpt          .... PW91-LDA
 Gradients option       PostSCFGGA      .... off
 Hybrid DFT is turned on
   Fraction HF Exchange ScalHFX         ....  0.250000
   Scaling of DF-GGA-X  ScalDFX         ....  0.750000
   Scaling of DF-GGA-C  ScalDFC         ....  1.000000
   Scaling of DF-LDA-C  ScalLDAC        ....  1.000000
   Perturbative correction              ....  0.000000
   Density functional embedding theory  .... OFF
   NL short-range parameter             ....  6.900000
 RI-approximation to the Coulomb term is turned on
   Number of AuxJ basis functions       .... 191
   RIJ-COSX (HFX calculated with COS-X)).... on


General Settings:
 Integral files         IntName         .... ox_gs_B_orca0000
 Hartree-Fock type      HFTyp           .... RHF
 Total Charge           Charge          ....    0
 Multiplicity           Mult            ....    1
 Number of Electrons    NEL             ....   24
 Basis Dimension        Dim             ....  117
 Nuclear Repulsion      ENuc            ....     72.2414152737 Eh

Convergence Acceleration:
 DIIS                   CNVDIIS         .... on
   Start iteration      DIISMaxIt       ....    12
   Startup error        DIISStart       ....  0.200000
   # of expansion vecs  DIISMaxEq       ....     5
   Bias factor          DIISBfac        ....   1.050
   Max. coefficient     DIISMaxC        ....  10.000
 Trust-Rad. Augm. Hess. CNVTRAH         .... auto
   Auto Start mean grad. ratio tolernc. ....  1.125000
   Auto Start start iteration           ....    20
   Auto Start num. interpolation iter.  ....    10
   Max. Number of Micro iterations      ....    16
   Max. Number of Macro iterations      .... Maxiter - #DIIS iter
   Number of Davidson start vectors     ....     2
   Converg. threshold I  (grad. norm)   ....   1.000e-05
   Converg. threshold II (energy diff.) ....   1.000e-08
   Grad. Scal. Fac. for Micro threshold ....   0.100
   Minimum threshold for Micro iter.    ....   0.010
   NR start threshold (gradient norm)   ....   0.001
   Initial trust radius                 ....   0.400
   Minimum AH scaling param. (alpha)    ....   1.000
   Maximum AH scaling param. (alpha)    .... 1000.000
   Orbital update algorithm             .... Taylor
   White noise on init. David. guess    .... on
   Maximum white noise                  ....   0.010
   Quad. conv. algorithm                .... NR
 SOSCF                  CNVSOSCF        .... on
   Start iteration      SOSCFMaxIt      ....   150
   Startup grad/error   SOSCFStart      ....  0.003300
 Level Shifting         CNVShift        .... on
   Level shift para.    LevelShift      ....    0.2500
   Turn off err/grad.   ShiftErr        ....    0.0010
 Zerner damping         CNVZerner       .... off
 Static damping         CNVDamp         .... on
   Fraction old density DampFac         ....    0.7000
   Max. Damping (<1)    DampMax         ....    0.9800
   Min. Damping (>=0)   DampMin         ....    0.0000
   Turn off err/grad.   DampErr         ....    0.1000
 Fernandez-Rico         CNVRico         .... off

SCF Procedure:
 Maximum # iterations   MaxIter         ....   125
 SCF integral mode      SCFMode         .... Direct
   Integral package                     .... SHARK and LIBINT hybrid scheme
 Reset frequency        DirectResetFreq ....    20
 Integral Threshold     Thresh          ....  2.500e-11 Eh
 Primitive CutOff       TCut            ....  2.500e-12 Eh

Convergence Tolerance:
 Convergence Check Mode ConvCheckMode   .... Total+1el-Energy
 Convergence forced     ConvForced      .... 0
 Energy Change          TolE            ....  1.000e-08 Eh
 1-El. energy change                    ....  1.000e-05 Eh
 Orbital Gradient       TolG            ....  1.000e-05
 Orbital Rotation angle TolX            ....  1.000e-05
 DIIS Error             TolErr          ....  5.000e-07


Diagonalization of the overlap matrix:
Smallest eigenvalue                        ... 5.669e-04
Time for diagonalization                   ...    0.020 sec
Threshold for overlap eigenvalues          ... 1.000e-08
Number of eigenvalues below threshold      ... 0
Time for construction of square roots      ...    0.003 sec
Total time needed                          ...    0.023 sec

Time for model grid setup =    0.037 sec

------------------------------
INITIAL GUESS: MODEL POTENTIAL
------------------------------
Loading Hartree-Fock densities                     ... done
Calculating cut-offs                               ... done
Initializing the effective Hamiltonian             ... done
Setting up the integral package (SHARK)            ... done
Starting the Coulomb interaction                   ... done (   0.0 sec)
Reading the grid                                   ... done
Mapping shells                                     ... done
Starting the XC term evaluation                    ... done (   0.0 sec)
  promolecular density results
     # of electrons  =     23.997174428
     EX              =    -19.482589151
     EC              =     -0.773383102
     EX+EC           =    -20.255972252
Transforming the Hamiltonian                       ... done (   0.0 sec)
Diagonalizing the Hamiltonian                      ... done (   0.0 sec)
Back transforming the eigenvectors                 ... done (   0.0 sec)
Now organizing SCF variables                       ... done
                      ------------------
                      INITIAL GUESS DONE (   0.1 sec)
                      ------------------
-------------------
DFT GRID GENERATION
-------------------

General Integration Accuracy     IntAcc      ... 4.388
Radial Grid Type                 RadialGrid  ... OptM3 with GC (2021)
Angular Grid (max. ang.)         AngularGrid ... 4 (Lebedev-302)
Angular grid pruning method      GridPruning ... 4 (adaptive)
Weight generation scheme         WeightScheme... Becke
Basis function cutoff            BFCut       ... 1.0000e-11
Integration weight cutoff        WCut        ... 1.0000e-14
Angular grids for H and He will be reduced by one unit
Partially contracted basis set               ... off
Rotationally invariant grid construction     ... off

Total number of grid points                  ...    31337
Total number of batches                      ...      493
Average number of points per batch           ...       63
Average number of grid points per atom       ...     4477
Time for grid setup =    0.110 sec

--------------------
COSX GRID GENERATION
--------------------

GRIDX 1
-------
General Integration Accuracy     IntAcc      ... 3.816
Radial Grid Type                 RadialGrid  ... OptM3 with GC (2021)
Angular Grid (max. ang.)         AngularGrid ... 1 (Lebedev-50)
Angular grid pruning method      GridPruning ... 4 (adaptive)
Weight generation scheme         WeightScheme... Becke
Basis function cutoff            BFCut       ... 1.0000e-11
Integration weight cutoff        WCut        ... 1.0000e-14
Angular grids for H and He will be reduced by one unit
Partially contracted basis set               ... on
Rotationally invariant grid construction     ... off

Total number of grid points                  ...     4036
Total number of batches                      ...       68
Average number of points per batch           ...       59
Average number of grid points per atom       ...      577
UseSFitting                                  ... on

GRIDX 2
-------
General Integration Accuracy     IntAcc      ... 4.020
Radial Grid Type                 RadialGrid  ... OptM3 with GC (2021)
Angular Grid (max. ang.)         AngularGrid ... 2 (Lebedev-110)
Angular grid pruning method      GridPruning ... 4 (adaptive)
Weight generation scheme         WeightScheme... Becke
Basis function cutoff            BFCut       ... 1.0000e-11
Integration weight cutoff        WCut        ... 1.0000e-14
Angular grids for H and He will be reduced by one unit
Partially contracted basis set               ... on
Rotationally invariant grid construction     ... off

Total number of grid points                  ...     8733
Total number of batches                      ...      141
Average number of points per batch           ...       61
Average number of grid points per atom       ...     1248
UseSFitting                                  ... on

GRIDX 3
-------
General Integration Accuracy     IntAcc      ... 4.338
Radial Grid Type                 RadialGrid  ... OptM3 with GC (2021)
Angular Grid (max. ang.)         AngularGrid ... 3 (Lebedev-194)
Angular grid pruning method      GridPruning ... 4 (adaptive)
Weight generation scheme         WeightScheme... Becke
Basis function cutoff            BFCut       ... 1.0000e-11
Integration weight cutoff        WCut        ... 1.0000e-14
Angular grids for H and He will be reduced by one unit
Partially contracted basis set               ... on
Rotationally invariant grid construction     ... off

Total number of grid points                  ...    19265
Total number of batches                      ...      304
Average number of points per batch           ...       63
Average number of grid points per atom       ...     2752
UseSFitting                                  ... on

Time for X-Grid setup             =    0.073 sec

--------------
SCF ITERATIONS
--------------
ITER       Energy         Delta-E        Max-DP      RMS-DP      [F,P]     Damp
               ***  Starting incremental Fock matrix formation  ***
  0   -153.5860976620   0.000000000000 0.03391499  0.00115344  0.1848144 0.7000
  1   -153.6139528234  -0.027855161459 0.01775606  0.00081626  0.0702222 0.7000
                               ***Turning on DIIS***
  2   -153.6244144706  -0.010461647138 0.02414937  0.00131851  0.0321731 0.0000
  3   -153.6428007632  -0.018386292681 0.01400038  0.00062936  0.0390293 0.0000
  4   -153.6457480066  -0.002947243401 0.00495746  0.00017727  0.0130509 0.0000
                      *** Initiating the SOSCF procedure ***
                           *** Shutting down DIIS ***
                      *** Re-Reading the Fockian *** 
                      *** Removing any level shift *** 
ITER      Energy       Delta-E        Grad      Rot      Max-DP    RMS-DP
  5   -153.64607741  -0.0003294072  0.000507  0.000507  0.001100  0.000050
               *** Restarting incremental Fock matrix formation ***
  6   -153.64610210  -0.0000246862  0.000129  0.000198  0.000608  0.000021
  7   -153.64610230  -0.0000001964  0.000189  0.000165  0.000328  0.000011
  8   -153.64610268  -0.0000003826  0.000073  0.000134  0.000128  0.000005
  9   -153.64610267   0.0000000042  0.000061  0.000067  0.000071  0.000002
 10   -153.64610275  -0.0000000717  0.000007  0.000011  0.000028  0.000001
 11   -153.64610275  -0.0000000007  0.000005  0.000005  0.000009  0.000000
                  ***Gradient check signals convergence***
              ***Rediagonalizing the Fockian in SOSCF/NRSCF***

               *****************************************************
               *                     SUCCESS                       *
               *           SCF CONVERGED AFTER  12 CYCLES          *
               *****************************************************

Old exchange energy                            =     -4.969422253 Eh
New exchange energy                            =     -4.969427577 Eh
Exchange energy change after final integration =     -0.000005325 Eh
Total energy after final integration           =   -153.646108073 Eh
Final COS-X integration done in                =     0.246 sec

----------------
TOTAL SCF ENERGY
----------------

Total Energy       :         -153.64610807 Eh           -4180.92315 eV

Components:
Nuclear Repulsion  :           72.24141527 Eh            1965.78885 eV
Electronic Energy  :         -225.88752335 Eh           -6146.71200 eV
One Electron Energy:         -351.31595818 Eh           -9559.79323 eV
Two Electron Energy:          125.42843484 Eh            3413.08123 eV
Max COSX asymmetry :            0.00000221 Eh               0.00006 eV

Virial components:
Potential Energy   :         -306.29321606 Eh           -8334.66214 eV
Kinetic Energy     :          152.64710799 Eh            4153.73898 eV
Virial Ratio       :            2.00654451


DFT components:
N(Alpha)           :       12.000002106223 electrons
N(Beta)            :       12.000002106223 electrons
N(Total)           :       24.000004212447 electrons
E(X)               :      -14.893689432642 Eh       
E(C)               :       -0.782398210362 Eh       
E(XC)              :      -15.676087643004 Eh       
DFET-embed. en.    :        0.000000000000 Eh       

---------------
SCF CONVERGENCE
---------------

  Last Energy change         ...   -1.7195e-09  Tolerance :   1.0000e-08
  Last MAX-Density change    ...    4.4409e-16  Tolerance :   1.0000e-07
  Last RMS-Density change    ...    1.4619e-17  Tolerance :   5.0000e-09
  Last Orbital Gradient      ...    1.2127e-06  Tolerance :   1.0000e-05
  Last Orbital Rotation      ...    1.7982e-06  Tolerance :   1.0000e-05

             **** THE GBW FILE WAS UPDATED (ox_gs_B_orca0000.gbw) ****
             **** DENSITY ox_gs_B_orca0000.scfp WAS UPDATED ****
             **** ENERGY FILE WAS UPDATED (ox_gs_B_orca0000.en.tmp) ****
             **** THE GBW FILE WAS UPDATED (ox_gs_B_orca0000.gbw) ****
             **** DENSITY ox_gs_B_orca0000.scfp WAS UPDATED ****
----------------
ORBITAL ENERGIES
----------------

  NO   OCC          E(Eh)            E(eV) 
   0   2.0000     -19.222689      -523.0760 
   1   2.0000     -10.290409      -280.0163 
   2   2.0000     -10.286339      -279.9055 
   3   2.0000      -1.058533       -28.8042 
   4   2.0000      -0.715967       -19.4825 
   5   2.0000      -0.640255       -17.4222 
   6   2.0000      -0.515956       -14.0399 
   7   2.0000      -0.488734       -13.2991 
   8   2.0000      -0.413330       -11.2473 
   9   2.0000      -0.393101       -10.6968 
  10   2.0000      -0.323723        -8.8090 
  11   2.0000      -0.283352        -7.7104 
  12   0.0000       0.013985         0.3805 
  13   0.0000       0.063123         1.7177 
  14   0.0000       0.072762         1.9799 
  15   0.0000       0.093957         2.5567 
  16   0.0000       0.108481         2.9519 
  17   0.0000       0.148520         4.0414 
  18   0.0000       0.187885         5.1126 
  19   0.0000       0.198370         5.3979 
  20   0.0000       0.255542         6.9537 
  21   0.0000       0.268001         7.2927 
  22   0.0000       0.281078         7.6485 
  23   0.0000       0.310482         8.4486 
  24   0.0000       0.388837        10.5808 
  25   0.0000       0.395496        10.7620 
  26   0.0000       0.406391        11.0585 
  27   0.0000       0.409971        11.1559 
  28   0.0000       0.443815        12.0768 
  29   0.0000       0.474767        12.9191 
  30   0.0000       0.484442        13.1823 
  31   0.0000       0.510558        13.8930 
  32   0.0000       0.534209        14.5366 
  33   0.0000       0.670972        18.2581 
  34   0.0000       0.697991        18.9933 
  35   0.0000       0.739864        20.1327 
  36   0.0000       0.810473        22.0541 
  37   0.0000       0.848272        23.0827 
  38   0.0000       0.886673        24.1276 
  39   0.0000       0.925963        25.1967 
  40   0.0000       0.983804        26.7707 
  41   0.0000       1.028964        27.9995 
  42   0.0000       1.053152        28.6577 
  43   0.0000       1.081782        29.4368 
  44   0.0000       1.151713        31.3397 
  45   0.0000       1.355605        36.8879 
  46   0.0000       1.452377        39.5212 
  47   0.0000       1.471294        40.0359 
  48   0.0000       1.506234        40.9867 
  49   0.0000       1.513321        41.1796 
  50   0.0000       1.585052        43.1315 
  51   0.0000       1.625447        44.2307 
  52   0.0000       1.642590        44.6971 
  53   0.0000       1.679836        45.7106 
  54   0.0000       1.750835        47.6426 
  55   0.0000       1.793399        48.8009 
  56   0.0000       1.846287        50.2400 
  57   0.0000       1.871331        50.9215 
  58   0.0000       1.925474        52.3948 
  59   0.0000       1.953245        53.1505 
  60   0.0000       2.094825        57.0031 
  61   0.0000       2.095794        57.0295 
  62   0.0000       2.160527        58.7909 
  63   0.0000       2.219049        60.3834 
  64   0.0000       2.260271        61.5051 
  65   0.0000       2.353466        64.0411 
  66   0.0000       2.428691        66.0880 
  67   0.0000       2.458504        66.8993 
  68   0.0000       2.501722        68.0753 
  69   0.0000       2.531013        68.8724 
  70   0.0000       2.567517        69.8657 
  71   0.0000       2.602907        70.8287 
  72   0.0000       2.649890        72.1072 
  73   0.0000       2.710213        73.7486 
  74   0.0000       2.716833        73.9288 
  75   0.0000       2.774490        75.4977 
  76   0.0000       2.858530        77.7846 
  77   0.0000       2.952903        80.3526 
  78   0.0000       2.980983        81.1167 
  79   0.0000       3.037799        82.6627 
  80   0.0000       3.053998        83.1035 
  81   0.0000       3.092011        84.1379 
  82   0.0000       3.133303        85.2615 
  83   0.0000       3.190889        86.8285 
  84   0.0000       3.246713        88.3476 
  85   0.0000       3.270322        88.9900 
  86   0.0000       3.330025        90.6146 
  87   0.0000       3.345791        91.0436 
  88   0.0000       3.501689        95.2858 
  89   0.0000       3.548910        96.5707 
  90   0.0000       3.638602        99.0114 
  91   0.0000       3.651412        99.3600 
  92   0.0000       3.838935       104.4627 
  93   0.0000       3.968259       107.9818 
  94   0.0000       4.010353       109.1272 
  95   0.0000       4.092198       111.3544 
  96   0.0000       4.128723       112.3483 
  97   0.0000       4.215232       114.7023 
  98   0.0000       4.310290       117.2889 
  99   0.0000       4.556000       123.9751 
 100   0.0000       4.617998       125.6621 
 101   0.0000       4.838101       131.6514 
 102   0.0000       5.278546       143.6366 
 103   0.0000       5.322189       144.8241 
 104   0.0000       5.467583       148.7805 
 105   0.0000       5.652687       153.8174 
 106   0.0000       5.743628       156.2921 
 107   0.0000       5.781510       157.3229 
 108   0.0000       5.985242       162.8667 
 109   0.0000       6.517230       177.3428 
 110   0.0000       6.560311       178.5151 
 111   0.0000       6.772568       184.2909 
 112   0.0000       6.948161       189.0691 
 113   0.0000       7.138726       194.2546 
 114   0.0000      22.209669       604.3558 
 115   0.0000      22.267702       605.9350 
 116   0.0000      43.771032      1191.0703 

                    ********************************
                    * MULLIKEN POPULATION ANALYSIS *
                    ********************************

-----------------------
MULLIKEN ATOMIC CHARGES
-----------------------
   0 O :   -0.321150
   1 C :   -0.038360
   2 C :   -0.142829
   3 H :    0.123562
   4 H :    0.102387
   5 H :    0.139839
   6 H :    0.136550
Sum of atomic charges:   -0.0000000

--------------------------------
MULLIKEN REDUCED ORBITAL CHARGES
--------------------------------
  0 O s       :     3.879113  s :     3.879113
      pz      :     1.865224  p :     4.405819
      px      :     1.311095
      py      :     1.229500
      dz2     :     0.004826  d :     0.034518
      dxz     :     0.001670
      dyz     :     0.005569
      dx2y2   :     0.009723
      dxy     :     0.012729
      f0      :     0.000196  f :     0.001700
      f+1     :     0.000147
      f-1     :     0.000399
      f+2     :     0.000092
      f-2     :     0.000124
      f+3     :     0.000378
      f-3     :     0.000364
  1 C s       :     3.228149  s :     3.228149
      pz      :     1.039730  p :     2.673244
      px      :     0.899660
      py      :     0.733854
      dz2     :     0.007081  d :     0.125493
      dxz     :     0.024002
      dyz     :     0.038001
      dx2y2   :     0.030930
      dxy     :     0.025479
      f0      :     0.001663  f :     0.011474
      f+1     :     0.001307
      f-1     :     0.000747
      f+2     :     0.001861
      f-2     :     0.001101
      f+3     :     0.001748
      f-3     :     0.003047
  2 C s       :     3.267129  s :     3.267129
      pz      :     1.044657  p :     2.784682
      px      :     0.927982
      py      :     0.812043
      dz2     :     0.008350  d :     0.082653
      dxz     :     0.021318
      dyz     :     0.016815
      dx2y2   :     0.018011
      dxy     :     0.018158
      f0      :     0.000916  f :     0.008366
      f+1     :     0.001309
      f-1     :     0.000360
      f+2     :     0.000802
      f-2     :     0.001073
      f+3     :     0.001979
      f-3     :     0.001927
  3 H s       :     0.856442  s :     0.856442
      pz      :     0.010092  p :     0.019997
      px      :     0.006631
      py      :     0.003273
  4 H s       :     0.877770  s :     0.877770
      pz      :     0.010923  p :     0.019842
      px      :     0.005315
      py      :     0.003604
  5 H s       :     0.836969  s :     0.836969
      pz      :     0.011709  p :     0.023192
      px      :     0.006915
      py      :     0.004569
  6 H s       :     0.841818  s :     0.841818
      pz      :     0.010515  p :     0.021632
      px      :     0.006721
      py      :     0.004395


                     *******************************
                     * LOEWDIN POPULATION ANALYSIS *
                     *******************************

----------------------
LOEWDIN ATOMIC CHARGES
----------------------
   0 O :    0.040635
   1 C :   -0.350625
   2 C :   -0.163822
   3 H :    0.123110
   4 H :    0.117960
   5 H :    0.108861
   6 H :    0.123881

-------------------------------
LOEWDIN REDUCED ORBITAL CHARGES
-------------------------------
  0 O s       :     3.467689  s :     3.467689
      pz      :     1.771499  p :     4.412820
      px      :     1.295885
      py      :     1.345436
      dz2     :     0.010243  d :     0.074003
      dxz     :     0.004708
      dyz     :     0.012539
      dx2y2   :     0.023907
      dxy     :     0.022606
      f0      :     0.000446  f :     0.004853
      f+1     :     0.000200
      f-1     :     0.000764
      f+2     :     0.000307
      f-2     :     0.000542
      f+3     :     0.001118
      f-3     :     0.001475
  1 C s       :     2.853458  s :     2.853458
      pz      :     1.051134  p :     2.904925
      px      :     1.021274
      py      :     0.832518
      dz2     :     0.057853  d :     0.517211
      dxz     :     0.117406
      dyz     :     0.105186
      dx2y2   :     0.126463
      dxy     :     0.110304
      f0      :     0.010467  f :     0.075031
      f+1     :     0.004988
      f-1     :     0.006806
      f+2     :     0.011852
      f-2     :     0.004774
      f+3     :     0.014212
      f-3     :     0.021931
  2 C s       :     2.865267  s :     2.865267
      pz      :     1.078238  p :     2.923945
      px      :     1.038328
      py      :     0.807379
      dz2     :     0.044740  d :     0.333559
      dxz     :     0.106592
      dyz     :     0.043429
      dx2y2   :     0.068991
      dxy     :     0.069808
      f0      :     0.004936  f :     0.041051
      f+1     :     0.004595
      f-1     :     0.003190
      f+2     :     0.004428
      f-2     :     0.003699
      f+3     :     0.009920
      f-3     :     0.010283
  3 H s       :     0.820677  s :     0.820677
      pz      :     0.029588  p :     0.056213
      px      :     0.017391
      py      :     0.009234
  4 H s       :     0.826189  s :     0.826189
      pz      :     0.031638  p :     0.055850
      px      :     0.014122
      py      :     0.010091
  5 H s       :     0.819470  s :     0.819470
      pz      :     0.037223  p :     0.071669
      px      :     0.020077
      py      :     0.014369
  6 H s       :     0.813626  s :     0.813626
      pz      :     0.031629  p :     0.062493
      px      :     0.018049
      py      :     0.012815


                      *****************************
                      * MAYER POPULATION ANALYSIS *
                      *****************************

  NA   - Mulliken gross atomic population
  ZA   - Total nuclear charge
  QA   - Mulliken gross atomic charge
  VA   - Mayer's total valence
  BVA  - Mayer's bonded valence
  FA   - Mayer's free valence

  ATOM       NA         ZA         QA         VA         BVA        FA
  0 O      8.3211     8.0000    -0.3211     1.9746     1.9746    -0.0000
  1 C      6.0384     6.0000    -0.0384     3.9712     3.9712    -0.0000
  2 C      6.1428     6.0000    -0.1428     3.9335     3.9335     0.0000
  3 H      0.8764     1.0000     0.1236     0.9625     0.9625    -0.0000
  4 H      0.8976     1.0000     0.1024     0.9557     0.9557    -0.0000
  5 H      0.8602     1.0000     0.1398     0.9595     0.9595     0.0000
  6 H      0.8634     1.0000     0.1366     0.9599     0.9599     0.0000

  Mayer bond orders larger than 0.100000
B(  0-O ,  1-C ) :   1.0010 B(  0-O ,  2-C ) :   0.9569 B(  1-C ,  2-C ) :   1.0597 
B(  1-C ,  3-H ) :   0.9538 B(  1-C ,  4-H ) :   0.9453 B(  2-C ,  5-H ) :   0.9517 
B(  2-C ,  6-H ) :   0.9501 

-------
TIMINGS
-------

Total SCF time: 0 days 0 hours 0 min 2 sec 

Total time                  ....       2.993 sec
Sum of individual times     ....       2.618 sec  ( 87.5%)

Fock matrix formation       ....       2.310 sec  ( 77.2%)
  Split-RI-J                ....       0.305 sec  ( 13.2% of F)
  Chain of spheres X        ....       1.544 sec  ( 66.8% of F)
  XC integration            ....       0.414 sec  ( 17.9% of F)
    Basis function eval.    ....       0.110 sec  ( 26.7% of XC)
    Density eval.           ....       0.081 sec  ( 19.7% of XC)
    XC-Functional eval.     ....       0.024 sec  (  5.8% of XC)
    XC-Potential eval.      ....       0.137 sec  ( 33.0% of XC)
Diagonalization             ....       0.013 sec  (  0.4%)
Density matrix formation    ....       0.002 sec  (  0.1%)
Population analysis         ....       0.003 sec  (  0.1%)
Initial guess               ....       0.044 sec  (  1.5%)
Orbital Transformation      ....       0.000 sec  (  0.0%)
Orbital Orthonormalization  ....       0.000 sec  (  0.0%)
DIIS solution               ....       0.010 sec  (  0.3%)
SOSCF solution              ....       0.015 sec  (  0.5%)
Grid generation             ....       0.221 sec  (  7.4%)

Maximum memory used throughout the entire SCF-calculation: 61.1 MB


-------------------------------------------------------------------------------
                          DFT DISPERSION CORRECTION                            
                                                                               
                              DFTD3 V3.1  Rev 1                                
                          USING Becke-Johnson damping                          
-------------------------------------------------------------------------------
The PBE0 functional is recognized
Active option DFTDOPT                   ...         4   

molecular C6(AA) [au] = 352.215552 


            DFT-D V3
 parameters
 s6 scaling factor         :     1.0000 
 a1 scaling factor         :     0.4145 
 s8 scaling factor         :     1.2177 
 a2 scaling factor         :     4.8593 
 ad hoc parameters k1-k3   :    16.0000     1.3333    -4.0000 

 Edisp/kcal,au: -1.503918152480  -0.002396645874 
 E6   /kcal   :  -0.984934850 
 E8   /kcal   :  -0.518983302 
 % E8         :  34.508746461 

-------------------------   ----------------
Dispersion correction           -0.002396646
-------------------------   ----------------


-------------------------   --------------------
FINAL SINGLE POINT ENERGY      -153.648504719338
-------------------------   --------------------



           ************************************************************
           *        Program running with 8 parallel MPI-processes     *
           *              working on a common directory               *
           ************************************************************
------------------------------------------------------------------------------
                         ORCA SCF GRADIENT CALCULATION
------------------------------------------------------------------------------

 ... reading COSX grid (gridx3)
Gradient of the Kohn-Sham DFT energy:
Kohn-Sham wavefunction type      ... RKS
Hartree-Fock exchange scaling    ...    0.250
Number of operators              ...    1
Number of atoms                  ...    7
Basis set dimensions             ...  117
Integral neglect threshold       ... 2.5e-11
Integral primitive cutoff        ... 2.5e-12
SHARK Integral package           ... ON

Nuc. rep. gradient       (SHARK) ... done (  0.0 sec)
HCore & Overlap gradient (SHARK) ... done (  0.0 sec)
RI-J gradient            (SHARK) ... done (  0.2 sec)
COSX-gradient                    ... done (  0.3 sec)
Exchange-correlation gradient    ... done
Dispersion correction            ... done

------------------
CARTESIAN GRADIENT
------------------

   1   O   :   -0.054549062    0.047156018    0.011713523
   2   C   :   -0.002957155   -0.009081573    0.007158268
   3   C   :    0.077599103   -0.031852995   -0.050694893
   4   H   :   -0.017027972    0.015711065    0.018791655
   5   H   :   -0.001821598   -0.003868882   -0.020667673
   6   H   :   -0.008322487   -0.003871286    0.028038938
   7   H   :    0.007068615   -0.014044939    0.005622624

Difference to translation invariance:
           :   -0.0000105552    0.0001474071   -0.0000375590

Difference to rotation invariance:
           :   -0.0000062393    0.0000738752    0.0000421399

Norm of the cartesian gradient     ...    0.1325510864
RMS gradient                       ...    0.0289250184
MAX gradient                       ...    0.0775991027

-------
TIMINGS
-------

Total SCF gradient time            ...        0.835 sec

One electron gradient       ....       0.014 sec  (  1.7%)
RI-J Coulomb gradient       ....       0.152 sec  ( 18.2%)
COSX gradient               ....       0.321 sec  ( 38.4%)
XC gradient                 ....       0.151 sec  ( 18.1%)

Maximum memory used throughout the entire SCFGRAD-calculation: 35.9 MB

                            ***************************************
                            *     ORCA property calculations      *
                            ***************************************

                                    ---------------------
                                    Active property flags
                                    ---------------------
   (+) Dipole Moment


------------------------------------------------------------------------------
                       ORCA ELECTRIC PROPERTIES CALCULATION
------------------------------------------------------------------------------

Dipole Moment Calculation                       ... on
Quadrupole Moment Calculation                   ... off
Polarizability Calculation                      ... off
GBWName                                         ... ox_gs_B_orca0000.gbw
Electron density                                ... ox_gs_B_orca0000.scfp
The origin for moment calculation is the CENTER OF MASS  = (-0.137531, -0.050022  0.074032)

-------------
DIPOLE MOMENT
-------------
                                X             Y             Z
Electronic contribution:     -0.11125       1.63059       0.07422
Nuclear contribution   :      0.27251      -2.49032      -0.11162
                        -----------------------------------------
Total Dipole Moment    :      0.16126      -0.85973      -0.03740
                        -----------------------------------------
Magnitude (a.u.)       :      0.87553
Magnitude (Debye)      :      2.22541



--------------------
Rotational spectrum 
--------------------
 
Rotational constants in cm-1:     0.852173     0.630751     0.426208 
Rotational constants in MHz : 25547.500545 18909.440037 12777.407593 

 Dipole components along the rotational axes: 
x,y,z [a.u.] :    -0.605810    -0.632062     0.006244 
x,y,z [Debye]:    -1.539848    -1.606574     0.015870 

 

Timings for individual modules:

Sum of individual times         ...        5.002 sec (=   0.083 min)
GTO integral calculation        ...        0.682 sec (=   0.011 min)  13.6 %
SCF iterations                  ...        3.224 sec (=   0.054 min)  64.5 %
SCF Gradient evaluation         ...        1.095 sec (=   0.018 min)  21.9 %
                             ****ORCA TERMINATED NORMALLY****
TOTAL RUN TIME: 0 days 0 hours 0 minutes 5 seconds 561 msec
