
                                 *****************
                                 * O   R   C   A *
                                 *****************

                                            #,                                       
                                            ###                                      
                                            ####                                     
                                            #####                                    
                                            ######                                   
                                           ########,                                 
                                     ,,################,,,,,                         
                               ,,#################################,,                 
                          ,,##########################################,,             
                       ,#########################################, ''#####,          
                    ,#############################################,,   '####,        
                  ,##################################################,,,,####,       
                ,###########''''           ''''###############################       
              ,#####''   ,,,,##########,,,,          '''####'''          '####       
            ,##' ,,,,###########################,,,                        '##       
           ' ,,###''''                  '''############,,,                           
         ,,##''                                '''############,,,,        ,,,,,,###''
      ,#''                                            '''#######################'''  
     '                                                          ''''####''''         
             ,#######,   #######,   ,#######,      ##                                
            ,#'     '#,  ##    ##  ,#'     '#,    #''#        ######   ,####,        
            ##       ##  ##   ,#'  ##            #'  '#       #        #'  '#        
            ##       ##  #######   ##           ,######,      #####,   #    #        
            '#,     ,#'  ##    ##  '#,     ,#' ,#      #,         ##   #,  ,#        
             '#######'   ##     ##  '#######'  #'      '#     #####' # '####'        



                  #######################################################
                  #                        -***-                        #
                  #          Department of theory and spectroscopy      #
                  #    Directorship and core code : Frank Neese         #
                  #        Max Planck Institute fuer Kohlenforschung    #
                  #                Kaiser Wilhelm Platz 1               #
                  #                 D-45470 Muelheim/Ruhr               #
                  #                      Germany                        #
                  #                                                     #
                  #                  All rights reserved                #
                  #                        -***-                        #
                  #######################################################


                         Program Version 5.0.2 -  RELEASE  -


 With contributions from (in alphabetic order):
   Daniel Aravena         : Magnetic Suceptibility
   Michael Atanasov       : Ab Initio Ligand Field Theory (pilot matlab implementation)
   Alexander A. Auer      : GIAO ZORA, VPT2 properties, NMR spectrum
   Ute Becker             : Parallelization
   Giovanni Bistoni       : ED, misc. LED, open-shell LED, HFLD
   Martin Brehm           : Molecular dynamics
   Dmytro Bykov           : SCF Hessian
   Vijay G. Chilkuri      : MRCI spin determinant printing, contributions to CSF-ICE
   Dipayan Datta          : RHF DLPNO-CCSD density
   Achintya Kumar Dutta   : EOM-CC, STEOM-CC
   Dmitry Ganyushin       : Spin-Orbit,Spin-Spin,Magnetic field MRCI
   Miquel Garcia          : C-PCM and meta-GGA Hessian, CC/C-PCM, Gaussian charge scheme
   Yang Guo               : DLPNO-NEVPT2, F12-NEVPT2, CIM, IAO-localization
   Andreas Hansen         : Spin unrestricted coupled pair/coupled cluster methods
   Benjamin Helmich-Paris : MC-RPA, TRAH-SCF, COSX integrals
   Lee Huntington         : MR-EOM, pCC
   Robert Izsak           : Overlap fitted RIJCOSX, COSX-SCS-MP3, EOM
   Marcus Kettner         : VPT2
   Christian Kollmar      : KDIIS, OOCD, Brueckner-CCSD(T), CCSD density, CASPT2, CASPT2-K
   Simone Kossmann        : Meta GGA functionals, TD-DFT gradient, OOMP2, MP2 Hessian
   Martin Krupicka        : Initial AUTO-CI
   Lucas Lang             : DCDCAS
   Marvin Lechner         : AUTO-CI (C++ implementation), FIC-MRCC
   Dagmar Lenk            : GEPOL surface, SMD
   Dimitrios Liakos       : Extrapolation schemes; Compound Job, initial MDCI parallelization
   Dimitrios Manganas     : Further ROCIS development; embedding schemes
   Dimitrios Pantazis     : SARC Basis sets
   Anastasios Papadopoulos: AUTO-CI, single reference methods and gradients
   Taras Petrenko         : DFT Hessian,TD-DFT gradient, ASA, ECA, R-Raman, ABS, FL, XAS/XES, NRVS
   Peter Pinski           : DLPNO-MP2, DLPNO-MP2 Gradient
   Christoph Reimann      : Effective Core Potentials
   Marius Retegan         : Local ZFS, SOC
   Christoph Riplinger    : Optimizer, TS searches, QM/MM, DLPNO-CCSD(T), (RO)-DLPNO pert. Triples
   Tobias Risthaus        : Range-separated hybrids, TD-DFT gradient, RPA, STAB
   Michael Roemelt        : Original ROCIS implementation
   Masaaki Saitow         : Open-shell DLPNO-CCSD energy and density
   Barbara Sandhoefer     : DKH picture change effects
   Avijit Sen             : IP-ROCIS
   Kantharuban Sivalingam : CASSCF convergence, NEVPT2, FIC-MRCI
   Bernardo de Souza      : ESD, SOC TD-DFT
   Georgi Stoychev        : AutoAux, RI-MP2 NMR, DLPNO-MP2 response
   Willem Van den Heuvel  : Paramagnetic NMR
   Boris Wezisla          : Elementary symmetry handling
   Frank Wennmohs         : Technical directorship


 We gratefully acknowledge several colleagues who have allowed us to
 interface, adapt or use parts of their codes:
   Stefan Grimme, W. Hujo, H. Kruse, P. Pracht,  : VdW corrections, initial TS optimization,
                  C. Bannwarth, S. Ehlert          DFT functionals, gCP, sTDA/sTD-DF
   Ed Valeev, F. Pavosevic, A. Kumar             : LibInt (2-el integral package), F12 methods
   Garnet Chan, S. Sharma, J. Yang, R. Olivares  : DMRG
   Ulf Ekstrom                                   : XCFun DFT Library
   Mihaly Kallay                                 : mrcc  (arbitrary order and MRCC methods)
   Jiri Pittner, Ondrej Demel                    : Mk-CCSD
   Frank Weinhold                                : gennbo (NPA and NBO analysis)
   Christopher J. Cramer and Donald G. Truhlar   : smd solvation model
   Lars Goerigk                                  : TD-DFT with DH, B97 family of functionals
   V. Asgeirsson, H. Jonsson                     : NEB implementation
   FAccTs GmbH                                   : IRC, NEB, NEB-TS, DLPNO-Multilevel, CI-OPT
                                                   MM, QMMM, 2- and 3-layer-ONIOM, Crystal-QMMM,
                                                   LR-CPCM, SF, NACMEs, symmetry and pop. for TD-DFT,
                                                   nearIR, NL-DFT gradient (VV10), updates on ESD,
                                                   ML-optimized integration grids
   S Lehtola, MJT Oliveira, MAL Marques          : LibXC Library
   Liviu Ungur et al                             : ANISO software


 Your calculation uses the libint2 library for the computation of 2-el integrals
 For citations please refer to: http://libint.valeyev.net

 Your ORCA version has been built with support for libXC version: 5.1.0
 For citations please refer to: https://tddft.org/programs/libxc/

 This ORCA versions uses:
   CBLAS   interface :  Fast vector & matrix operations
   LAPACKE interface :  Fast linear algebra routines
   SCALAPACK package :  Parallel linear algebra routines
   Shared memory     :  Shared parallel matrices
   BLAS/LAPACK       :  OpenBLAS 0.3.15  USE64BITINT DYNAMIC_ARCH NO_AFFINITY SkylakeX SINGLE_THREADED
        Core in use  :  SkylakeX
   Copyright (c) 2011-2014, The OpenBLAS Project


Your calculation utilizes the atom-pairwise dispersion correction
with the Becke-Johnson damping scheme (D3BJ)
Cite in your paper:
S.Grimme, S.Ehrlich, L.Goerigk, J Comput Chem, (2011), 32, 1456–1465 
S.Grimme, J.Antony, S.Ehrlich and H.Krieg, J.Chem.Phys., 132, (2010), 154104 
   

================================================================================

----- Orbital basis set information -----
Your calculation utilizes the basis: def2-TZVP
   F. Weigend and R. Ahlrichs, Phys. Chem. Chem. Phys. 7, 3297 (2005).

----- AuxJ basis set information -----
Your calculation utilizes the auxiliary basis: def2/J
   F. Weigend, Phys. Chem. Chem. Phys. 8, 1057 (2006).

================================================================================
                                        WARNINGS
                       Please study these warnings very carefully!
================================================================================


INFO   : the flag for use of the SHARK integral package has been found!

================================================================================
                                       INPUT FILE
================================================================================
NAME = ox_gs_A_orca0038.inp
|  1> ! engrad PBE0 D3BJ def2-TZVP  
|  2> %pal nprocs 8 end
|  3> %maxcore 3000
|  4>  
|  5> *xyz 0 1 
|  6> O   0.0014159688065230587 0.7684121169747873 0.04691430029879989
|  7> C   -0.7546918264108686 -0.4422144511529508 -0.023113764435252124
|  8> C   0.7071647286283842 -0.46247909617343197 0.011106688581685642
|  9> H   -1.2877603610831738 -0.6054830037213239 0.8752458548890248
| 10> H   -1.2731663522080678 -0.6902574629137088 -0.8476273257823134
| 11> H   1.2736505588255786 -0.6166786330265683 -0.9942542386518486
| 12> H   1.277175383293463 -0.6237892702188281 0.9240903694637712
| 13> *
| 14> 
| 15>                          ****END OF INPUT****
================================================================================

                     *******************************
                     * Energy+Gradient Calculation *
                     *******************************

---------------------------------
CARTESIAN COORDINATES (ANGSTROEM)
---------------------------------
  O      0.001416    0.768412    0.046914
  C     -0.754692   -0.442214   -0.023114
  C      0.707165   -0.462479    0.011107
  H     -1.287760   -0.605483    0.875246
  H     -1.273166   -0.690257   -0.847627
  H      1.273651   -0.616679   -0.994254
  H      1.277175   -0.623789    0.924090

----------------------------
CARTESIAN COORDINATES (A.U.)
----------------------------
  NO LB      ZA    FRAG     MASS         X           Y           Z
   0 O     8.0000    0    15.999    0.002676    1.452088    0.088655
   1 C     6.0000    0    12.011   -1.426161   -0.835664   -0.043679
   2 C     6.0000    0    12.011    1.336348   -0.873959    0.020989
   3 H     1.0000    0     1.008   -2.433514   -1.144197    1.653975
   4 H     1.0000    0     1.008   -2.405936   -1.304398   -1.601784
   5 H     1.0000    0     1.008    2.406851   -1.165354   -1.878868
   6 H     1.0000    0     1.008    2.413512   -1.178791    1.746278

--------------------------------
INTERNAL COORDINATES (ANGSTROEM)
--------------------------------
 O      0   0   0     0.000000000000     0.00000000     0.00000000
 C      1   0   0     1.429062495238     0.00000000     0.00000000
 C      1   2   0     1.419315565916    61.78189793     0.00000000
 H      2   1   3     1.057293094912   110.85110221   111.85366092
 H      2   1   3     1.005069043613   121.48040404   249.04918574
 H      3   1   2     1.164231199972   112.24684502   110.22433851
 H      3   1   2     1.088334654525   111.58042922   243.42518910

---------------------------
INTERNAL COORDINATES (A.U.)
---------------------------
 O      0   0   0     0.000000000000     0.00000000     0.00000000
 C      1   0   0     2.700536744258     0.00000000     0.00000000
 C      1   2   0     2.682117717193    61.78189793     0.00000000
 H      2   1   3     1.997994392669   110.85110221   111.85366092
 H      2   1   3     1.899305238111   121.48040404   249.04918574
 H      3   1   2     2.200078124513   112.24684502   110.22433851
 H      3   1   2     2.056654439107   111.58042922   243.42518910

---------------------
BASIS SET INFORMATION
---------------------
There are 3 groups of distinct atoms

 Group   1 Type O   : 11s6p2d1f contracted to 5s3p2d1f pattern {62111/411/11/1}
 Group   2 Type C   : 11s6p2d1f contracted to 5s3p2d1f pattern {62111/411/11/1}
 Group   3 Type H   : 5s1p contracted to 3s1p pattern {311/1}

Atom   0O    basis set group =>   1
Atom   1C    basis set group =>   2
Atom   2C    basis set group =>   2
Atom   3H    basis set group =>   3
Atom   4H    basis set group =>   3
Atom   5H    basis set group =>   3
Atom   6H    basis set group =>   3
---------------------------------
AUXILIARY/J BASIS SET INFORMATION
---------------------------------
There are 3 groups of distinct atoms

 Group   1 Type O   : 12s5p4d2f1g contracted to 6s4p3d1f1g pattern {711111/2111/211/2/1}
 Group   2 Type C   : 12s5p4d2f1g contracted to 6s4p3d1f1g pattern {711111/2111/211/2/1}
 Group   3 Type H   : 5s2p1d contracted to 3s1p1d pattern {311/2/1}

Atom   0O    basis set group =>   1
Atom   1C    basis set group =>   2
Atom   2C    basis set group =>   2
Atom   3H    basis set group =>   3
Atom   4H    basis set group =>   3
Atom   5H    basis set group =>   3
Atom   6H    basis set group =>   3


           ************************************************************
           *        Program running with 8 parallel MPI-processes     *
           *              working on a common directory               *
           ************************************************************
------------------------------------------------------------------------------
                           ORCA GTO INTEGRAL CALCULATION
                           -- RI-GTO INTEGRALS CHOSEN --
------------------------------------------------------------------------------
------------------------------------------------------------------------------
                   ___                                                        
                  /   \      - P O W E R E D   B Y -                         
                 /     \                                                     
                 |  |  |   _    _      __       _____    __    __             
                 |  |  |  | |  | |    /  \     |  _  \  |  |  /  |          
                  \  \/   | |  | |   /    \    | | | |  |  | /  /          
                 / \  \   | |__| |  /  /\  \   | |_| |  |  |/  /          
                |  |  |   |  __  | /  /__\  \  |    /   |      \           
                |  |  |   | |  | | |   __   |  |    \   |  |\   \          
                \     /   | |  | | |  |  |  |  | |\  \  |  | \   \       
                 \___/    |_|  |_| |__|  |__|  |_| \__\ |__|  \__/        
                                                                              
                      - O R C A' S   B I G   F R I E N D -                    
                                      &                                       
                       - I N T E G R A L  F E E D E R -                       
                                                                              
 v1 FN, 2020, v2 2021                                                         
------------------------------------------------------------------------------


Reading SHARK input file ox_gs_A_orca0038.SHARKINP.tmp ... ok
----------------------
SHARK INTEGRAL PACKAGE
----------------------

Number of atoms                             ...      7
Number of basis functions                   ...    117
Number of shells                            ...     49
Maximum angular momentum                    ...      3
Integral batch strategy                     ... SHARK/LIBINT Hybrid
RI-J (if used) integral strategy            ... SPLIT-RIJ (Revised 2003 algorithm where possible)
Printlevel                                  ...      1
Contraction scheme used                     ... SEGMENTED contraction
Coulomb Range Separation                    ... NOT USED
Exchange Range Separation                   ... NOT USED
Finite Nucleus Model                        ... NOT USED
Auxiliary Coulomb fitting basis             ... AVAILABLE
   # of basis functions in Aux-J            ...    191
   # of shells in Aux-J                     ...     65
   Maximum angular momentum in Aux-J        ...      4
Auxiliary J/K fitting basis                 ... NOT available
Auxiliary Correlation fitting basis         ... NOT available
Auxiliary 'external' fitting basis          ... NOT available
Integral threshold                          ...     2.500000e-11
Primitive cut-off                           ...     2.500000e-12
Primitive pair pre-selection threshold      ...     2.500000e-12

Calculating pre-screening integrals         ... done (  0.1 sec) Dimension = 49
Organizing shell pair data                  ... done (  0.0 sec)
Shell pair information
Total number of shell pairs                 ...      1225
Shell pairs after pre-screening             ...      1220
Total number of primitive shell pairs       ...      3648
Primitive shell pairs kept                  ...      3149
          la=0 lb=0:    373 shell pairs
          la=1 lb=0:    351 shell pairs
          la=1 lb=1:     91 shell pairs
          la=2 lb=0:    162 shell pairs
          la=2 lb=1:     78 shell pairs
          la=2 lb=2:     21 shell pairs
          la=3 lb=0:     81 shell pairs
          la=3 lb=1:     39 shell pairs
          la=3 lb=2:     18 shell pairs
          la=3 lb=3:      6 shell pairs

Calculating one electron integrals          ... done (  0.0 sec)
Calculating RI/J V-Matrix + Cholesky decomp.... done (  0.0 sec)
Calculating Nuclear repulsion               ... done (  0.0 sec) ENN=     75.620523282663 Eh

SHARK setup successfully completed in   0.3 seconds

Maximum memory used throughout the entire GTOINT-calculation: 14.9 MB


           ************************************************************
           *        Program running with 8 parallel MPI-processes     *
           *              working on a common directory               *
           ************************************************************
-------------------------------------------------------------------------------
                                 ORCA SCF
-------------------------------------------------------------------------------

------------
SCF SETTINGS
------------
Hamiltonian:
 Density Functional     Method          .... DFT(GTOs)
 Exchange Functional    Exchange        .... PBE
   PBE kappa parameter   XKappa         ....  0.804000
   PBE mue parameter    XMuePBE         ....  0.219520
 Correlation Functional Correlation     .... PBE
   PBE beta parameter  CBetaPBE         ....  0.066725
 LDA part of GGA corr.  LDAOpt          .... PW91-LDA
 Gradients option       PostSCFGGA      .... off
 Hybrid DFT is turned on
   Fraction HF Exchange ScalHFX         ....  0.250000
   Scaling of DF-GGA-X  ScalDFX         ....  0.750000
   Scaling of DF-GGA-C  ScalDFC         ....  1.000000
   Scaling of DF-LDA-C  ScalLDAC        ....  1.000000
   Perturbative correction              ....  0.000000
   Density functional embedding theory  .... OFF
   NL short-range parameter             ....  6.900000
 RI-approximation to the Coulomb term is turned on
   Number of AuxJ basis functions       .... 191
   RIJ-COSX (HFX calculated with COS-X)).... on


General Settings:
 Integral files         IntName         .... ox_gs_A_orca0038
 Hartree-Fock type      HFTyp           .... RHF
 Total Charge           Charge          ....    0
 Multiplicity           Mult            ....    1
 Number of Electrons    NEL             ....   24
 Basis Dimension        Dim             ....  117
 Nuclear Repulsion      ENuc            ....     75.6205232827 Eh

Convergence Acceleration:
 DIIS                   CNVDIIS         .... on
   Start iteration      DIISMaxIt       ....    12
   Startup error        DIISStart       ....  0.200000
   # of expansion vecs  DIISMaxEq       ....     5
   Bias factor          DIISBfac        ....   1.050
   Max. coefficient     DIISMaxC        ....  10.000
 Trust-Rad. Augm. Hess. CNVTRAH         .... auto
   Auto Start mean grad. ratio tolernc. ....  1.125000
   Auto Start start iteration           ....    20
   Auto Start num. interpolation iter.  ....    10
   Max. Number of Micro iterations      ....    16
   Max. Number of Macro iterations      .... Maxiter - #DIIS iter
   Number of Davidson start vectors     ....     2
   Converg. threshold I  (grad. norm)   ....   1.000e-05
   Converg. threshold II (energy diff.) ....   1.000e-08
   Grad. Scal. Fac. for Micro threshold ....   0.100
   Minimum threshold for Micro iter.    ....   0.010
   NR start threshold (gradient norm)   ....   0.001
   Initial trust radius                 ....   0.400
   Minimum AH scaling param. (alpha)    ....   1.000
   Maximum AH scaling param. (alpha)    .... 1000.000
   Orbital update algorithm             .... Taylor
   White noise on init. David. guess    .... on
   Maximum white noise                  ....   0.010
   Quad. conv. algorithm                .... NR
 SOSCF                  CNVSOSCF        .... on
   Start iteration      SOSCFMaxIt      ....   150
   Startup grad/error   SOSCFStart      ....  0.003300
 Level Shifting         CNVShift        .... on
   Level shift para.    LevelShift      ....    0.2500
   Turn off err/grad.   ShiftErr        ....    0.0010
 Zerner damping         CNVZerner       .... off
 Static damping         CNVDamp         .... on
   Fraction old density DampFac         ....    0.7000
   Max. Damping (<1)    DampMax         ....    0.9800
   Min. Damping (>=0)   DampMin         ....    0.0000
   Turn off err/grad.   DampErr         ....    0.1000
 Fernandez-Rico         CNVRico         .... off

SCF Procedure:
 Maximum # iterations   MaxIter         ....   125
 SCF integral mode      SCFMode         .... Direct
   Integral package                     .... SHARK and LIBINT hybrid scheme
 Reset frequency        DirectResetFreq ....    20
 Integral Threshold     Thresh          ....  2.500e-11 Eh
 Primitive CutOff       TCut            ....  2.500e-12 Eh

Convergence Tolerance:
 Convergence Check Mode ConvCheckMode   .... Total+1el-Energy
 Convergence forced     ConvForced      .... 0
 Energy Change          TolE            ....  1.000e-08 Eh
 1-El. energy change                    ....  1.000e-05 Eh
 Orbital Gradient       TolG            ....  1.000e-05
 Orbital Rotation angle TolX            ....  1.000e-05
 DIIS Error             TolErr          ....  5.000e-07


Diagonalization of the overlap matrix:
Smallest eigenvalue                        ... 3.800e-04
Time for diagonalization                   ...    0.008 sec
Threshold for overlap eigenvalues          ... 1.000e-08
Number of eigenvalues below threshold      ... 0
Time for construction of square roots      ...    0.005 sec
Total time needed                          ...    0.015 sec

Time for model grid setup =    0.062 sec

------------------------------
INITIAL GUESS: MODEL POTENTIAL
------------------------------
Loading Hartree-Fock densities                     ... done
Calculating cut-offs                               ... done
Initializing the effective Hamiltonian             ... done
Setting up the integral package (SHARK)            ... done
Starting the Coulomb interaction                   ... done (   0.0 sec)
Reading the grid                                   ... done
Mapping shells                                     ... done
Starting the XC term evaluation                    ... done (   0.0 sec)
  promolecular density results
     # of electrons  =     23.996921406
     EX              =    -19.552224031
     EC              =     -0.783308874
     EX+EC           =    -20.335532905
Transforming the Hamiltonian                       ... done (   0.0 sec)
Diagonalizing the Hamiltonian                      ... done (   0.0 sec)
Back transforming the eigenvectors                 ... done (   0.0 sec)
Now organizing SCF variables                       ... done
                      ------------------
                      INITIAL GUESS DONE (   0.1 sec)
                      ------------------
-------------------
DFT GRID GENERATION
-------------------

General Integration Accuracy     IntAcc      ... 4.388
Radial Grid Type                 RadialGrid  ... OptM3 with GC (2021)
Angular Grid (max. ang.)         AngularGrid ... 4 (Lebedev-302)
Angular grid pruning method      GridPruning ... 4 (adaptive)
Weight generation scheme         WeightScheme... Becke
Basis function cutoff            BFCut       ... 1.0000e-11
Integration weight cutoff        WCut        ... 1.0000e-14
Angular grids for H and He will be reduced by one unit
Partially contracted basis set               ... off
Rotationally invariant grid construction     ... off

Total number of grid points                  ...    31307
Total number of batches                      ...      493
Average number of points per batch           ...       63
Average number of grid points per atom       ...     4472
Time for grid setup =    0.182 sec

--------------------
COSX GRID GENERATION
--------------------

GRIDX 1
-------
General Integration Accuracy     IntAcc      ... 3.816
Radial Grid Type                 RadialGrid  ... OptM3 with GC (2021)
Angular Grid (max. ang.)         AngularGrid ... 1 (Lebedev-50)
Angular grid pruning method      GridPruning ... 4 (adaptive)
Weight generation scheme         WeightScheme... Becke
Basis function cutoff            BFCut       ... 1.0000e-11
Integration weight cutoff        WCut        ... 1.0000e-14
Angular grids for H and He will be reduced by one unit
Partially contracted basis set               ... on
Rotationally invariant grid construction     ... off

Total number of grid points                  ...     4038
Total number of batches                      ...       67
Average number of points per batch           ...       60
Average number of grid points per atom       ...      577
UseSFitting                                  ... on

GRIDX 2
-------
General Integration Accuracy     IntAcc      ... 4.020
Radial Grid Type                 RadialGrid  ... OptM3 with GC (2021)
Angular Grid (max. ang.)         AngularGrid ... 2 (Lebedev-110)
Angular grid pruning method      GridPruning ... 4 (adaptive)
Weight generation scheme         WeightScheme... Becke
Basis function cutoff            BFCut       ... 1.0000e-11
Integration weight cutoff        WCut        ... 1.0000e-14
Angular grids for H and He will be reduced by one unit
Partially contracted basis set               ... on
Rotationally invariant grid construction     ... off

Total number of grid points                  ...     8708
Total number of batches                      ...      138
Average number of points per batch           ...       63
Average number of grid points per atom       ...     1244
UseSFitting                                  ... on

GRIDX 3
-------
General Integration Accuracy     IntAcc      ... 4.338
Radial Grid Type                 RadialGrid  ... OptM3 with GC (2021)
Angular Grid (max. ang.)         AngularGrid ... 3 (Lebedev-194)
Angular grid pruning method      GridPruning ... 4 (adaptive)
Weight generation scheme         WeightScheme... Becke
Basis function cutoff            BFCut       ... 1.0000e-11
Integration weight cutoff        WCut        ... 1.0000e-14
Angular grids for H and He will be reduced by one unit
Partially contracted basis set               ... on
Rotationally invariant grid construction     ... off

Total number of grid points                  ...    19244
Total number of batches                      ...      303
Average number of points per batch           ...       63
Average number of grid points per atom       ...     2749
UseSFitting                                  ... on

Time for X-Grid setup             =    0.127 sec

--------------
SCF ITERATIONS
--------------
ITER       Energy         Delta-E        Max-DP      RMS-DP      [F,P]     Damp
               ***  Starting incremental Fock matrix formation  ***
  0   -153.5976910588   0.000000000000 0.03306595  0.00115336  0.1746378 0.7000
  1   -153.6270948045  -0.029403745718 0.01805624  0.00085250  0.0742949 0.7000
                               ***Turning on DIIS***
  2   -153.6393146165  -0.012219811977 0.02740622  0.00145489  0.0340904 0.0000
  3   -153.6589626366  -0.019648020175 0.01438498  0.00063682  0.0398693 0.0000
  4   -153.6627759724  -0.003813335735 0.00365925  0.00017555  0.0075308 0.0000
  5   -153.6629468363  -0.000170863897 0.00141264  0.00006305  0.0040170 0.0000
                      *** Initiating the SOSCF procedure ***
                           *** Shutting down DIIS ***
                      *** Re-Reading the Fockian *** 
                      *** Removing any level shift *** 
ITER      Energy       Delta-E        Grad      Rot      Max-DP    RMS-DP
  6   -153.66297133  -0.0000244890  0.000132  0.000132  0.000838  0.000030
               *** Restarting incremental Fock matrix formation ***
  7   -153.66295703   0.0000142971  0.000047  0.000072  0.000102  0.000004
  8   -153.66295700   0.0000000266  0.000076  0.000047  0.000064  0.000002
  9   -153.66295706  -0.0000000606  0.000007  0.000012  0.000017  0.000001
 10   -153.66295706   0.0000000005  0.000009  0.000007  0.000010  0.000000
                 **** Energy Check signals convergence ****
              ***Rediagonalizing the Fockian in SOSCF/NRSCF***

               *****************************************************
               *                     SUCCESS                       *
               *           SCF CONVERGED AFTER  11 CYCLES          *
               *****************************************************

Old exchange energy                            =     -5.002495476 Eh
New exchange energy                            =     -5.002483487 Eh
Exchange energy change after final integration =      0.000011989 Eh
Total energy after final integration           =   -153.662945075 Eh
Final COS-X integration done in                =     0.431 sec

----------------
TOTAL SCF ENERGY
----------------

Total Energy       :         -153.66294507 Eh           -4181.38131 eV

Components:
Nuclear Repulsion  :           75.62052328 Eh            2057.73905 eV
Electronic Energy  :         -229.28346836 Eh           -6239.12036 eV
One Electron Energy:         -357.89781712 Eh           -9738.89472 eV
Two Electron Energy:          128.61434876 Eh            3499.77435 eV
Max COSX asymmetry :            0.00000282 Eh               0.00008 eV

Virial components:
Potential Energy   :         -306.71882053 Eh           -8346.24342 eV
Kinetic Energy     :          153.05587545 Eh            4164.86211 eV
Virial Ratio       :            2.00396633


DFT components:
N(Alpha)           :       12.000001913466 electrons
N(Beta)            :       12.000001913466 electrons
N(Total)           :       24.000003826932 electrons
E(X)               :      -14.975414180254 Eh       
E(C)               :       -0.791402935768 Eh       
E(XC)              :      -15.766817116022 Eh       
DFET-embed. en.    :        0.000000000000 Eh       

---------------
SCF CONVERGENCE
---------------

  Last Energy change         ...   -1.8727e-09  Tolerance :   1.0000e-08
  Last MAX-Density change    ...    1.2212e-15  Tolerance :   1.0000e-07
  Last RMS-Density change    ...    2.0900e-17  Tolerance :   5.0000e-09
  Last Orbital Gradient      ...    3.1161e-07  Tolerance :   1.0000e-05
  Last Orbital Rotation      ...    5.3838e-07  Tolerance :   1.0000e-05

             **** THE GBW FILE WAS UPDATED (ox_gs_A_orca0038.gbw) ****
             **** DENSITY ox_gs_A_orca0038.scfp WAS UPDATED ****
             **** ENERGY FILE WAS UPDATED (ox_gs_A_orca0038.en.tmp) ****
             **** THE GBW FILE WAS UPDATED (ox_gs_A_orca0038.gbw) ****
             **** DENSITY ox_gs_A_orca0038.scfp WAS UPDATED ****
----------------
ORBITAL ENERGIES
----------------

  NO   OCC          E(Eh)            E(eV) 
   0   2.0000     -19.219923      -523.0007 
   1   2.0000     -10.281946      -279.7860 
   2   2.0000     -10.265470      -279.3376 
   3   2.0000      -1.107396       -30.1338 
   4   2.0000      -0.703512       -19.1435 
   5   2.0000      -0.657750       -17.8983 
   6   2.0000      -0.533156       -14.5079 
   7   2.0000      -0.505176       -13.7465 
   8   2.0000      -0.413155       -11.2425 
   9   2.0000      -0.396526       -10.7900 
  10   2.0000      -0.335364        -9.1257 
  11   2.0000      -0.287272        -7.8171 
  12   0.0000       0.064203         1.7471 
  13   0.0000       0.078717         2.1420 
  14   0.0000       0.081005         2.2043 
  15   0.0000       0.099774         2.7150 
  16   0.0000       0.110001         2.9933 
  17   0.0000       0.154365         4.2005 
  18   0.0000       0.191846         5.2204 
  19   0.0000       0.213885         5.8201 
  20   0.0000       0.269236         7.3263 
  21   0.0000       0.273185         7.4337 
  22   0.0000       0.287136         7.8134 
  23   0.0000       0.334943         9.1143 
  24   0.0000       0.397197        10.8083 
  25   0.0000       0.402754        10.9595 
  26   0.0000       0.412124        11.2145 
  27   0.0000       0.431004        11.7282 
  28   0.0000       0.451873        12.2961 
  29   0.0000       0.466498        12.6941 
  30   0.0000       0.511390        13.9156 
  31   0.0000       0.520594        14.1661 
  32   0.0000       0.537778        14.6337 
  33   0.0000       0.701973        19.1017 
  34   0.0000       0.714238        19.4354 
  35   0.0000       0.728937        19.8354 
  36   0.0000       0.825587        22.4654 
  37   0.0000       0.842782        22.9333 
  38   0.0000       0.883765        24.0485 
  39   0.0000       0.941867        25.6295 
  40   0.0000       1.019137        27.7321 
  41   0.0000       1.034308        28.1449 
  42   0.0000       1.073871        29.2215 
  43   0.0000       1.085066        29.5261 
  44   0.0000       1.175903        31.9980 
  45   0.0000       1.353033        36.8179 
  46   0.0000       1.466794        39.9135 
  47   0.0000       1.492081        40.6016 
  48   0.0000       1.512267        41.1509 
  49   0.0000       1.531868        41.6843 
  50   0.0000       1.590624        43.2831 
  51   0.0000       1.635668        44.5088 
  52   0.0000       1.643201        44.7138 
  53   0.0000       1.714216        46.6462 
  54   0.0000       1.760658        47.9100 
  55   0.0000       1.810527        49.2670 
  56   0.0000       1.837584        50.0032 
  57   0.0000       1.899874        51.6982 
  58   0.0000       1.933095        52.6022 
  59   0.0000       1.988664        54.1143 
  60   0.0000       2.146861        58.4191 
  61   0.0000       2.169718        59.0410 
  62   0.0000       2.198004        59.8107 
  63   0.0000       2.235929        60.8427 
  64   0.0000       2.272455        61.8366 
  65   0.0000       2.416978        65.7693 
  66   0.0000       2.425066        65.9894 
  67   0.0000       2.497176        67.9516 
  68   0.0000       2.572496        70.0012 
  69   0.0000       2.603819        70.8535 
  70   0.0000       2.654401        72.2299 
  71   0.0000       2.686079        73.0919 
  72   0.0000       2.703720        73.5720 
  73   0.0000       2.734762        74.4167 
  74   0.0000       2.752701        74.9048 
  75   0.0000       2.784052        75.7579 
  76   0.0000       2.872529        78.1655 
  77   0.0000       2.964336        80.6637 
  78   0.0000       2.987196        81.2857 
  79   0.0000       3.025932        82.3398 
  80   0.0000       3.037600        82.6573 
  81   0.0000       3.112289        84.6897 
  82   0.0000       3.136123        85.3382 
  83   0.0000       3.261409        88.7475 
  84   0.0000       3.324038        90.4517 
  85   0.0000       3.333589        90.7116 
  86   0.0000       3.345118        91.0253 
  87   0.0000       3.442631        93.6787 
  88   0.0000       3.553876        96.7059 
  89   0.0000       3.627548        98.7106 
  90   0.0000       3.647271        99.2473 
  91   0.0000       3.711791       101.0030 
  92   0.0000       3.909116       106.3724 
  93   0.0000       4.033581       109.7593 
  94   0.0000       4.100256       111.5736 
  95   0.0000       4.187063       113.9358 
  96   0.0000       4.257670       115.8571 
  97   0.0000       4.329991       117.8251 
  98   0.0000       4.381720       119.2327 
  99   0.0000       4.604040       125.2823 
 100   0.0000       4.780488       130.0837 
 101   0.0000       4.820160       131.1632 
 102   0.0000       5.307942       144.4364 
 103   0.0000       5.462020       148.6291 
 104   0.0000       5.729122       155.8973 
 105   0.0000       5.757176       156.6607 
 106   0.0000       5.789858       157.5501 
 107   0.0000       5.915880       160.9793 
 108   0.0000       6.055579       164.7807 
 109   0.0000       6.606091       179.7609 
 110   0.0000       6.648836       180.9240 
 111   0.0000       6.801819       185.0869 
 112   0.0000       6.971205       189.6961 
 113   0.0000       7.182360       195.4419 
 114   0.0000      22.267763       605.9366 
 115   0.0000      22.565589       614.0409 
 116   0.0000      43.866844      1193.6775 

                    ********************************
                    * MULLIKEN POPULATION ANALYSIS *
                    ********************************

-----------------------
MULLIKEN ATOMIC CHARGES
-----------------------
   0 O :   -0.318617
   1 C :   -0.068462
   2 C :   -0.074978
   3 H :    0.108612
   4 H :    0.116559
   5 H :    0.113958
   6 H :    0.122928
Sum of atomic charges:    0.0000000

--------------------------------
MULLIKEN REDUCED ORBITAL CHARGES
--------------------------------
  0 O s       :     3.855104  s :     3.855104
      pz      :     1.841377  p :     4.417869
      px      :     1.316107
      py      :     1.260384
      dz2     :     0.005824  d :     0.043409
      dxz     :     0.002819
      dyz     :     0.006806
      dx2y2   :     0.012425
      dxy     :     0.015535
      f0      :     0.000263  f :     0.002235
      f+1     :     0.000200
      f-1     :     0.000475
      f+2     :     0.000089
      f-2     :     0.000217
      f+3     :     0.000384
      f-3     :     0.000609
  1 C s       :     3.210679  s :     3.210679
      pz      :     1.051201  p :     2.737175
      px      :     0.901497
      py      :     0.784476
      dz2     :     0.005276  d :     0.108919
      dxz     :     0.025340
      dyz     :     0.028801
      dx2y2   :     0.029284
      dxy     :     0.020217
      f0      :     0.001493  f :     0.011690
      f+1     :     0.001417
      f-1     :     0.000626
      f+2     :     0.001286
      f-2     :     0.001736
      f+3     :     0.002173
      f-3     :     0.002958
  2 C s       :     3.234520  s :     3.234520
      pz      :     1.041352  p :     2.714332
      px      :     0.897719
      py      :     0.775261
      dz2     :     0.006372  d :     0.114275
      dxz     :     0.027113
      dyz     :     0.030822
      dx2y2   :     0.030183
      dxy     :     0.019785
      f0      :     0.001643  f :     0.011850
      f+1     :     0.001417
      f-1     :     0.000555
      f+2     :     0.001479
      f-2     :     0.001604
      f+3     :     0.002082
      f-3     :     0.003070
  3 H s       :     0.869089  s :     0.869089
      pz      :     0.011121  p :     0.022300
      px      :     0.006815
      py      :     0.004364
  4 H s       :     0.860009  s :     0.860009
      pz      :     0.010691  p :     0.023432
      px      :     0.007712
      py      :     0.005029
  5 H s       :     0.867419  s :     0.867419
      pz      :     0.010294  p :     0.018624
      px      :     0.005352
      py      :     0.002978
  6 H s       :     0.855653  s :     0.855653
      pz      :     0.010857  p :     0.021418
      px      :     0.006636
      py      :     0.003925


                     *******************************
                     * LOEWDIN POPULATION ANALYSIS *
                     *******************************

----------------------
LOEWDIN ATOMIC CHARGES
----------------------
   0 O :    0.124237
   1 C :   -0.278091
   2 C :   -0.303206
   3 H :    0.113091
   4 H :    0.095272
   5 H :    0.131832
   6 H :    0.116865

-------------------------------
LOEWDIN REDUCED ORBITAL CHARGES
-------------------------------
  0 O s       :     3.380392  s :     3.380392
      pz      :     1.722917  p :     4.393979
      px      :     1.301713
      py      :     1.369349
      dz2     :     0.011766  d :     0.094557
      dxz     :     0.008312
      dyz     :     0.015472
      dx2y2   :     0.033176
      dxy     :     0.025831
      f0      :     0.000663  f :     0.006835
      f+1     :     0.000260
      f-1     :     0.000919
      f+2     :     0.000181
      f-2     :     0.000985
      f+3     :     0.001219
      f-3     :     0.002607
  1 C s       :     2.798991  s :     2.798991
      pz      :     1.065768  p :     2.928523
      px      :     1.028990
      py      :     0.833765
      dz2     :     0.052571  d :     0.477202
      dxz     :     0.134397
      dyz     :     0.083023
      dx2y2   :     0.106910
      dxy     :     0.100301
      f0      :     0.009405  f :     0.073376
      f+1     :     0.006453
      f-1     :     0.005841
      f+2     :     0.008064
      f-2     :     0.007583
      f+3     :     0.015163
      f-3     :     0.020867
  2 C s       :     2.840118  s :     2.840118
      pz      :     1.042057  p :     2.907044
      px      :     1.026013
      py      :     0.838974
      dz2     :     0.054876  d :     0.480757
      dxz     :     0.135918
      dyz     :     0.082135
      dx2y2   :     0.109697
      dxy     :     0.098131
      f0      :     0.010464  f :     0.075287
      f+1     :     0.005722
      f-1     :     0.005728
      f+2     :     0.009375
      f-2     :     0.006912
      f+3     :     0.015254
      f-3     :     0.021832
  3 H s       :     0.821153  s :     0.821153
      pz      :     0.033795  p :     0.065756
      px      :     0.018575
      py      :     0.013386
  4 H s       :     0.829447  s :     0.829447
      pz      :     0.035855  p :     0.075281
      px      :     0.022849
      py      :     0.016578
  5 H s       :     0.817831  s :     0.817831
      pz      :     0.028749  p :     0.050337
      px      :     0.013408
      py      :     0.008180
  6 H s       :     0.821245  s :     0.821245
      pz      :     0.032553  p :     0.061890
      px      :     0.017756
      py      :     0.011580


                      *****************************
                      * MAYER POPULATION ANALYSIS *
                      *****************************

  NA   - Mulliken gross atomic population
  ZA   - Total nuclear charge
  QA   - Mulliken gross atomic charge
  VA   - Mayer's total valence
  BVA  - Mayer's bonded valence
  FA   - Mayer's free valence

  ATOM       NA         ZA         QA         VA         BVA        FA
  0 O      8.3186     8.0000    -0.3186     1.9848     1.9848     0.0000
  1 C      6.0685     6.0000    -0.0685     3.9970     3.9970     0.0000
  2 C      6.0750     6.0000    -0.0750     3.9655     3.9655    -0.0000
  3 H      0.8914     1.0000     0.1086     0.9636     0.9636     0.0000
  4 H      0.8834     1.0000     0.1166     0.9549     0.9549    -0.0000
  5 H      0.8860     1.0000     0.1140     0.9635     0.9635    -0.0000
  6 H      0.8771     1.0000     0.1229     0.9625     0.9625    -0.0000

  Mayer bond orders larger than 0.100000
B(  0-O ,  1-C ) :   0.9916 B(  0-O ,  2-C ) :   0.9799 B(  1-C ,  2-C ) :   1.0702 
B(  1-C ,  3-H ) :   0.9641 B(  1-C ,  4-H ) :   0.9542 B(  2-C ,  5-H ) :   0.9478 
B(  2-C ,  6-H ) :   0.9538 

-------
TIMINGS
-------

Total SCF time: 0 days 0 hours 0 min 5 sec 

Total time                  ....       5.706 sec
Sum of individual times     ....       4.476 sec  ( 78.5%)

Fock matrix formation       ....       3.955 sec  ( 69.3%)
  Split-RI-J                ....       0.461 sec  ( 11.6% of F)
  Chain of spheres X        ....       2.491 sec  ( 63.0% of F)
  XC integration            ....       0.874 sec  ( 22.1% of F)
    Basis function eval.    ....       0.216 sec  ( 24.8% of XC)
    Density eval.           ....       0.223 sec  ( 25.5% of XC)
    XC-Functional eval.     ....       0.043 sec  (  4.9% of XC)
    XC-Potential eval.      ....       0.283 sec  ( 32.4% of XC)
Diagonalization             ....       0.036 sec  (  0.6%)
Density matrix formation    ....       0.004 sec  (  0.1%)
Population analysis         ....       0.010 sec  (  0.2%)
Initial guess               ....       0.040 sec  (  0.7%)
Orbital Transformation      ....       0.000 sec  (  0.0%)
Orbital Orthonormalization  ....       0.000 sec  (  0.0%)
DIIS solution               ....       0.036 sec  (  0.6%)
SOSCF solution              ....       0.024 sec  (  0.4%)
Grid generation             ....       0.371 sec  (  6.5%)

Maximum memory used throughout the entire SCF-calculation: 61.1 MB


-------------------------------------------------------------------------------
                          DFT DISPERSION CORRECTION                            
                                                                               
                              DFTD3 V3.1  Rev 1                                
                          USING Becke-Johnson damping                          
-------------------------------------------------------------------------------
The PBE0 functional is recognized
Active option DFTDOPT                   ...         4   

molecular C6(AA) [au] = 350.901277 


            DFT-D V3
 parameters
 s6 scaling factor         :     1.0000 
 a1 scaling factor         :     0.4145 
 s8 scaling factor         :     1.2177 
 a2 scaling factor         :     4.8593 
 ad hoc parameters k1-k3   :    16.0000     1.3333    -4.0000 

 Edisp/kcal,au: -1.509763099471  -0.002405960389 
 E6   /kcal   :  -0.989962134 
 E8   /kcal   :  -0.519800965 
 % E8         :  34.429306533 

-------------------------   ----------------
Dispersion correction           -0.002405960
-------------------------   ----------------


-------------------------   --------------------
FINAL SINGLE POINT ENERGY      -153.665351035198
-------------------------   --------------------



           ************************************************************
           *        Program running with 8 parallel MPI-processes     *
           *              working on a common directory               *
           ************************************************************
------------------------------------------------------------------------------
                         ORCA SCF GRADIENT CALCULATION
------------------------------------------------------------------------------

 ... reading COSX grid (gridx3)
Gradient of the Kohn-Sham DFT energy:
Kohn-Sham wavefunction type      ... RKS
Hartree-Fock exchange scaling    ...    0.250
Number of operators              ...    1
Number of atoms                  ...    7
Basis set dimensions             ...  117
Integral neglect threshold       ... 2.5e-11
Integral primitive cutoff        ... 2.5e-12
SHARK Integral package           ... ON

Nuc. rep. gradient       (SHARK) ... done (  0.0 sec)
HCore & Overlap gradient (SHARK) ... done (  0.0 sec)
RI-J gradient            (SHARK) ... done (  0.2 sec)
COSX-gradient                    ... done (  0.8 sec)
Exchange-correlation gradient    ... done
Dispersion correction            ... done

------------------
CARTESIAN GRADIENT
------------------

   1   O   :    0.006714309    0.003701534    0.013839957
   2   C   :   -0.047496354   -0.019837292   -0.056836352
   3   C   :   -0.018658601   -0.009247434    0.033486807
   4   H   :    0.009445377    0.008587338   -0.019255100
   5   H   :    0.029968406    0.008831899    0.062944482
   6   H   :    0.018019526   -0.000760237   -0.036749056
   7   H   :    0.001949288    0.008602063    0.002741999

Difference to translation invariance:
           :   -0.0000580485   -0.0001221284    0.0001727380

Difference to rotation invariance:
           :    0.0003402976    0.0000150512    0.0001756871

Norm of the cartesian gradient     ...    0.1221395319
RMS gradient                       ...    0.0266530310
MAX gradient                       ...    0.0629444822

-------
TIMINGS
-------

Total SCF gradient time            ...        1.825 sec

One electron gradient       ....       0.030 sec  (  1.6%)
RI-J Coulomb gradient       ....       0.231 sec  ( 12.6%)
COSX gradient               ....       0.753 sec  ( 41.3%)
XC gradient                 ....       0.426 sec  ( 23.3%)

Maximum memory used throughout the entire SCFGRAD-calculation: 35.9 MB

                            ***************************************
                            *     ORCA property calculations      *
                            ***************************************

                                    ---------------------
                                    Active property flags
                                    ---------------------
   (+) Dipole Moment


------------------------------------------------------------------------------
                       ORCA ELECTRIC PROPERTIES CALCULATION
------------------------------------------------------------------------------

Dipole Moment Calculation                       ... on
Quadrupole Moment Calculation                   ... off
Polarizability Calculation                      ... off
GBWName                                         ... ox_gs_A_orca0038.gbw
Electron density                                ... ox_gs_A_orca0038.scfp
The origin for moment calculation is the CENTER OF MASS  = (-0.023952, -0.048428  0.024171)

-------------
DIPOLE MOMENT
-------------
                                X             Y             Z
Electronic contribution:     -0.07898       1.55765       0.06163
Nuclear contribution   :      0.03830      -2.27150      -0.08741
                        -----------------------------------------
Total Dipole Moment    :     -0.04068      -0.71384      -0.02578
                        -----------------------------------------
Magnitude (a.u.)       :      0.71547
Magnitude (Debye)      :      1.81857



--------------------
Rotational spectrum 
--------------------
 
Rotational constants in cm-1:     0.871635     0.740040     0.475775 
Rotational constants in MHz : 26130.946831 22185.849914 14263.366092 

 Dipole components along the rotational axes: 
x,y,z [a.u.] :    -0.075922    -0.711232     0.016663 
x,y,z [Debye]:    -0.192979    -1.807809     0.042355 

 

Timings for individual modules:

Sum of individual times         ...        9.159 sec (=   0.153 min)
GTO integral calculation        ...        0.727 sec (=   0.012 min)   7.9 %
SCF iterations                  ...        6.120 sec (=   0.102 min)  66.8 %
SCF Gradient evaluation         ...        2.312 sec (=   0.039 min)  25.2 %
                             ****ORCA TERMINATED NORMALLY****
TOTAL RUN TIME: 0 days 0 hours 0 minutes 9 seconds 969 msec
