
                                 *****************
                                 * O   R   C   A *
                                 *****************

                                            #,                                       
                                            ###                                      
                                            ####                                     
                                            #####                                    
                                            ######                                   
                                           ########,                                 
                                     ,,################,,,,,                         
                               ,,#################################,,                 
                          ,,##########################################,,             
                       ,#########################################, ''#####,          
                    ,#############################################,,   '####,        
                  ,##################################################,,,,####,       
                ,###########''''           ''''###############################       
              ,#####''   ,,,,##########,,,,          '''####'''          '####       
            ,##' ,,,,###########################,,,                        '##       
           ' ,,###''''                  '''############,,,                           
         ,,##''                                '''############,,,,        ,,,,,,###''
      ,#''                                            '''#######################'''  
     '                                                          ''''####''''         
             ,#######,   #######,   ,#######,      ##                                
            ,#'     '#,  ##    ##  ,#'     '#,    #''#        ######   ,####,        
            ##       ##  ##   ,#'  ##            #'  '#       #        #'  '#        
            ##       ##  #######   ##           ,######,      #####,   #    #        
            '#,     ,#'  ##    ##  '#,     ,#' ,#      #,         ##   #,  ,#        
             '#######'   ##     ##  '#######'  #'      '#     #####' # '####'        



                  #######################################################
                  #                        -***-                        #
                  #          Department of theory and spectroscopy      #
                  #    Directorship and core code : Frank Neese         #
                  #        Max Planck Institute fuer Kohlenforschung    #
                  #                Kaiser Wilhelm Platz 1               #
                  #                 D-45470 Muelheim/Ruhr               #
                  #                      Germany                        #
                  #                                                     #
                  #                  All rights reserved                #
                  #                        -***-                        #
                  #######################################################


                         Program Version 5.0.2 -  RELEASE  -


 With contributions from (in alphabetic order):
   Daniel Aravena         : Magnetic Suceptibility
   Michael Atanasov       : Ab Initio Ligand Field Theory (pilot matlab implementation)
   Alexander A. Auer      : GIAO ZORA, VPT2 properties, NMR spectrum
   Ute Becker             : Parallelization
   Giovanni Bistoni       : ED, misc. LED, open-shell LED, HFLD
   Martin Brehm           : Molecular dynamics
   Dmytro Bykov           : SCF Hessian
   Vijay G. Chilkuri      : MRCI spin determinant printing, contributions to CSF-ICE
   Dipayan Datta          : RHF DLPNO-CCSD density
   Achintya Kumar Dutta   : EOM-CC, STEOM-CC
   Dmitry Ganyushin       : Spin-Orbit,Spin-Spin,Magnetic field MRCI
   Miquel Garcia          : C-PCM and meta-GGA Hessian, CC/C-PCM, Gaussian charge scheme
   Yang Guo               : DLPNO-NEVPT2, F12-NEVPT2, CIM, IAO-localization
   Andreas Hansen         : Spin unrestricted coupled pair/coupled cluster methods
   Benjamin Helmich-Paris : MC-RPA, TRAH-SCF, COSX integrals
   Lee Huntington         : MR-EOM, pCC
   Robert Izsak           : Overlap fitted RIJCOSX, COSX-SCS-MP3, EOM
   Marcus Kettner         : VPT2
   Christian Kollmar      : KDIIS, OOCD, Brueckner-CCSD(T), CCSD density, CASPT2, CASPT2-K
   Simone Kossmann        : Meta GGA functionals, TD-DFT gradient, OOMP2, MP2 Hessian
   Martin Krupicka        : Initial AUTO-CI
   Lucas Lang             : DCDCAS
   Marvin Lechner         : AUTO-CI (C++ implementation), FIC-MRCC
   Dagmar Lenk            : GEPOL surface, SMD
   Dimitrios Liakos       : Extrapolation schemes; Compound Job, initial MDCI parallelization
   Dimitrios Manganas     : Further ROCIS development; embedding schemes
   Dimitrios Pantazis     : SARC Basis sets
   Anastasios Papadopoulos: AUTO-CI, single reference methods and gradients
   Taras Petrenko         : DFT Hessian,TD-DFT gradient, ASA, ECA, R-Raman, ABS, FL, XAS/XES, NRVS
   Peter Pinski           : DLPNO-MP2, DLPNO-MP2 Gradient
   Christoph Reimann      : Effective Core Potentials
   Marius Retegan         : Local ZFS, SOC
   Christoph Riplinger    : Optimizer, TS searches, QM/MM, DLPNO-CCSD(T), (RO)-DLPNO pert. Triples
   Tobias Risthaus        : Range-separated hybrids, TD-DFT gradient, RPA, STAB
   Michael Roemelt        : Original ROCIS implementation
   Masaaki Saitow         : Open-shell DLPNO-CCSD energy and density
   Barbara Sandhoefer     : DKH picture change effects
   Avijit Sen             : IP-ROCIS
   Kantharuban Sivalingam : CASSCF convergence, NEVPT2, FIC-MRCI
   Bernardo de Souza      : ESD, SOC TD-DFT
   Georgi Stoychev        : AutoAux, RI-MP2 NMR, DLPNO-MP2 response
   Willem Van den Heuvel  : Paramagnetic NMR
   Boris Wezisla          : Elementary symmetry handling
   Frank Wennmohs         : Technical directorship


 We gratefully acknowledge several colleagues who have allowed us to
 interface, adapt or use parts of their codes:
   Stefan Grimme, W. Hujo, H. Kruse, P. Pracht,  : VdW corrections, initial TS optimization,
                  C. Bannwarth, S. Ehlert          DFT functionals, gCP, sTDA/sTD-DF
   Ed Valeev, F. Pavosevic, A. Kumar             : LibInt (2-el integral package), F12 methods
   Garnet Chan, S. Sharma, J. Yang, R. Olivares  : DMRG
   Ulf Ekstrom                                   : XCFun DFT Library
   Mihaly Kallay                                 : mrcc  (arbitrary order and MRCC methods)
   Jiri Pittner, Ondrej Demel                    : Mk-CCSD
   Frank Weinhold                                : gennbo (NPA and NBO analysis)
   Christopher J. Cramer and Donald G. Truhlar   : smd solvation model
   Lars Goerigk                                  : TD-DFT with DH, B97 family of functionals
   V. Asgeirsson, H. Jonsson                     : NEB implementation
   FAccTs GmbH                                   : IRC, NEB, NEB-TS, DLPNO-Multilevel, CI-OPT
                                                   MM, QMMM, 2- and 3-layer-ONIOM, Crystal-QMMM,
                                                   LR-CPCM, SF, NACMEs, symmetry and pop. for TD-DFT,
                                                   nearIR, NL-DFT gradient (VV10), updates on ESD,
                                                   ML-optimized integration grids
   S Lehtola, MJT Oliveira, MAL Marques          : LibXC Library
   Liviu Ungur et al                             : ANISO software


 Your calculation uses the libint2 library for the computation of 2-el integrals
 For citations please refer to: http://libint.valeyev.net

 Your ORCA version has been built with support for libXC version: 5.1.0
 For citations please refer to: https://tddft.org/programs/libxc/

 This ORCA versions uses:
   CBLAS   interface :  Fast vector & matrix operations
   LAPACKE interface :  Fast linear algebra routines
   SCALAPACK package :  Parallel linear algebra routines
   Shared memory     :  Shared parallel matrices
   BLAS/LAPACK       :  OpenBLAS 0.3.15  USE64BITINT DYNAMIC_ARCH NO_AFFINITY SkylakeX SINGLE_THREADED
        Core in use  :  SkylakeX
   Copyright (c) 2011-2014, The OpenBLAS Project


Your calculation utilizes the atom-pairwise dispersion correction
with the Becke-Johnson damping scheme (D3BJ)
Cite in your paper:
S.Grimme, S.Ehrlich, L.Goerigk, J Comput Chem, (2011), 32, 1456–1465 
S.Grimme, J.Antony, S.Ehrlich and H.Krieg, J.Chem.Phys., 132, (2010), 154104 
   

================================================================================

----- Orbital basis set information -----
Your calculation utilizes the basis: def2-TZVP
   F. Weigend and R. Ahlrichs, Phys. Chem. Chem. Phys. 7, 3297 (2005).

----- AuxJ basis set information -----
Your calculation utilizes the auxiliary basis: def2/J
   F. Weigend, Phys. Chem. Chem. Phys. 8, 1057 (2006).

================================================================================
                                        WARNINGS
                       Please study these warnings very carefully!
================================================================================


INFO   : the flag for use of the SHARK integral package has been found!

================================================================================
                                       INPUT FILE
================================================================================
NAME = ox_gs_A_orca0026.inp
|  1> ! engrad PBE0 D3BJ def2-TZVP  
|  2> %pal nprocs 8 end
|  3> %maxcore 3000
|  4>  
|  5> *xyz 0 1 
|  6> O   0.028853656359027004 0.7567720406978504 0.018557403668565443
|  7> C   -0.759088849335791 -0.442691000626355 -0.007783861769603974
|  8> C   0.7872786430829903 -0.43429944783493935 0.01688013310376011
|  9> H   -1.2844167783061233 -0.6926511212036247 0.898348310609019
| 10> H   -1.244100162881085 -0.6893201340410132 -0.9054874771551794
| 11> H   1.3675928599322718 -0.6247146248284154 -0.936277396608392
| 12> H   1.3238835661081974 -0.6886745786510775 0.8180699432411073
| 13> *
| 14> 
| 15>                          ****END OF INPUT****
================================================================================

                     *******************************
                     * Energy+Gradient Calculation *
                     *******************************

---------------------------------
CARTESIAN COORDINATES (ANGSTROEM)
---------------------------------
  O      0.028854    0.756772    0.018557
  C     -0.759089   -0.442691   -0.007784
  C      0.787279   -0.434299    0.016880
  H     -1.284417   -0.692651    0.898348
  H     -1.244100   -0.689320   -0.905487
  H      1.367593   -0.624715   -0.936277
  H      1.323884   -0.688675    0.818070

----------------------------
CARTESIAN COORDINATES (A.U.)
----------------------------
  NO LB      ZA    FRAG     MASS         X           Y           Z
   0 O     8.0000    0    15.999    0.054526    1.430092    0.035068
   1 C     6.0000    0    12.011   -1.434470   -0.836565   -0.014709
   2 C     6.0000    0    12.011    1.487741   -0.820707    0.031899
   3 H     1.0000    0     1.008   -2.427196   -1.308921    1.697632
   4 H     1.0000    0     1.008   -2.351009   -1.302626   -1.711123
   5 H     1.0000    0     1.008    2.584376   -1.180540   -1.769308
   6 H     1.0000    0     1.008    2.501777   -1.301406    1.545928

--------------------------------
INTERNAL COORDINATES (ANGSTROEM)
--------------------------------
 O      0   0   0     0.000000000000     0.00000000     0.00000000
 C      1   0   0     1.435360178509     0.00000000     0.00000000
 C      1   2   0     1.412041983979    65.79170296     0.00000000
 H      2   1   3     1.076812429653   116.50944536   107.85576253
 H      2   1   3     1.049730291452   117.75299467   252.70794758
 H      3   1   2     1.132047616646   114.72215858   110.99923638
 H      3   1   2     0.997274617375   120.21225259   247.36704719

---------------------------
INTERNAL COORDINATES (A.U.)
---------------------------
 O      0   0   0     0.000000000000     0.00000000     0.00000000
 C      1   0   0     2.712437640918     0.00000000     0.00000000
 C      1   2   0     2.668372639319    65.79170296     0.00000000
 H      2   1   3     2.034880589646   116.50944536   107.85576253
 H      2   1   3     1.983702765326   117.75299467   252.70794758
 H      3   1   2     2.139259966019   114.72215858   110.99923638
 H      3   1   2     1.884575907150   120.21225259   247.36704719

---------------------
BASIS SET INFORMATION
---------------------
There are 3 groups of distinct atoms

 Group   1 Type O   : 11s6p2d1f contracted to 5s3p2d1f pattern {62111/411/11/1}
 Group   2 Type C   : 11s6p2d1f contracted to 5s3p2d1f pattern {62111/411/11/1}
 Group   3 Type H   : 5s1p contracted to 3s1p pattern {311/1}

Atom   0O    basis set group =>   1
Atom   1C    basis set group =>   2
Atom   2C    basis set group =>   2
Atom   3H    basis set group =>   3
Atom   4H    basis set group =>   3
Atom   5H    basis set group =>   3
Atom   6H    basis set group =>   3
---------------------------------
AUXILIARY/J BASIS SET INFORMATION
---------------------------------
There are 3 groups of distinct atoms

 Group   1 Type O   : 12s5p4d2f1g contracted to 6s4p3d1f1g pattern {711111/2111/211/2/1}
 Group   2 Type C   : 12s5p4d2f1g contracted to 6s4p3d1f1g pattern {711111/2111/211/2/1}
 Group   3 Type H   : 5s2p1d contracted to 3s1p1d pattern {311/2/1}

Atom   0O    basis set group =>   1
Atom   1C    basis set group =>   2
Atom   2C    basis set group =>   2
Atom   3H    basis set group =>   3
Atom   4H    basis set group =>   3
Atom   5H    basis set group =>   3
Atom   6H    basis set group =>   3


           ************************************************************
           *        Program running with 8 parallel MPI-processes     *
           *              working on a common directory               *
           ************************************************************
------------------------------------------------------------------------------
                           ORCA GTO INTEGRAL CALCULATION
                           -- RI-GTO INTEGRALS CHOSEN --
------------------------------------------------------------------------------
------------------------------------------------------------------------------
                   ___                                                        
                  /   \      - P O W E R E D   B Y -                         
                 /     \                                                     
                 |  |  |   _    _      __       _____    __    __             
                 |  |  |  | |  | |    /  \     |  _  \  |  |  /  |          
                  \  \/   | |  | |   /    \    | | | |  |  | /  /          
                 / \  \   | |__| |  /  /\  \   | |_| |  |  |/  /          
                |  |  |   |  __  | /  /__\  \  |    /   |      \           
                |  |  |   | |  | | |   __   |  |    \   |  |\   \          
                \     /   | |  | | |  |  |  |  | |\  \  |  | \   \       
                 \___/    |_|  |_| |__|  |__|  |_| \__\ |__|  \__/        
                                                                              
                      - O R C A' S   B I G   F R I E N D -                    
                                      &                                       
                       - I N T E G R A L  F E E D E R -                       
                                                                              
 v1 FN, 2020, v2 2021                                                         
------------------------------------------------------------------------------


Reading SHARK input file ox_gs_A_orca0026.SHARKINP.tmp ... ok
----------------------
SHARK INTEGRAL PACKAGE
----------------------

Number of atoms                             ...      7
Number of basis functions                   ...    117
Number of shells                            ...     49
Maximum angular momentum                    ...      3
Integral batch strategy                     ... SHARK/LIBINT Hybrid
RI-J (if used) integral strategy            ... SPLIT-RIJ (Revised 2003 algorithm where possible)
Printlevel                                  ...      1
Contraction scheme used                     ... SEGMENTED contraction
Coulomb Range Separation                    ... NOT USED
Exchange Range Separation                   ... NOT USED
Finite Nucleus Model                        ... NOT USED
Auxiliary Coulomb fitting basis             ... AVAILABLE
   # of basis functions in Aux-J            ...    191
   # of shells in Aux-J                     ...     65
   Maximum angular momentum in Aux-J        ...      4
Auxiliary J/K fitting basis                 ... NOT available
Auxiliary Correlation fitting basis         ... NOT available
Auxiliary 'external' fitting basis          ... NOT available
Integral threshold                          ...     2.500000e-11
Primitive cut-off                           ...     2.500000e-12
Primitive pair pre-selection threshold      ...     2.500000e-12

Calculating pre-screening integrals         ... done (  0.0 sec) Dimension = 49
Organizing shell pair data                  ... done (  0.0 sec)
Shell pair information
Total number of shell pairs                 ...      1225
Shell pairs after pre-screening             ...      1220
Total number of primitive shell pairs       ...      3648
Primitive shell pairs kept                  ...      3144
          la=0 lb=0:    373 shell pairs
          la=1 lb=0:    351 shell pairs
          la=1 lb=1:     91 shell pairs
          la=2 lb=0:    162 shell pairs
          la=2 lb=1:     78 shell pairs
          la=2 lb=2:     21 shell pairs
          la=3 lb=0:     81 shell pairs
          la=3 lb=1:     39 shell pairs
          la=3 lb=2:     18 shell pairs
          la=3 lb=3:      6 shell pairs

Calculating one electron integrals          ... done (  0.0 sec)
Calculating RI/J V-Matrix + Cholesky decomp.... done (  0.0 sec)
Calculating Nuclear repulsion               ... done (  0.0 sec) ENN=     74.830159247087 Eh

SHARK setup successfully completed in   0.1 seconds

Maximum memory used throughout the entire GTOINT-calculation: 14.9 MB


           ************************************************************
           *        Program running with 8 parallel MPI-processes     *
           *              working on a common directory               *
           ************************************************************
-------------------------------------------------------------------------------
                                 ORCA SCF
-------------------------------------------------------------------------------

------------
SCF SETTINGS
------------
Hamiltonian:
 Density Functional     Method          .... DFT(GTOs)
 Exchange Functional    Exchange        .... PBE
   PBE kappa parameter   XKappa         ....  0.804000
   PBE mue parameter    XMuePBE         ....  0.219520
 Correlation Functional Correlation     .... PBE
   PBE beta parameter  CBetaPBE         ....  0.066725
 LDA part of GGA corr.  LDAOpt          .... PW91-LDA
 Gradients option       PostSCFGGA      .... off
 Hybrid DFT is turned on
   Fraction HF Exchange ScalHFX         ....  0.250000
   Scaling of DF-GGA-X  ScalDFX         ....  0.750000
   Scaling of DF-GGA-C  ScalDFC         ....  1.000000
   Scaling of DF-LDA-C  ScalLDAC        ....  1.000000
   Perturbative correction              ....  0.000000
   Density functional embedding theory  .... OFF
   NL short-range parameter             ....  6.900000
 RI-approximation to the Coulomb term is turned on
   Number of AuxJ basis functions       .... 191
   RIJ-COSX (HFX calculated with COS-X)).... on


General Settings:
 Integral files         IntName         .... ox_gs_A_orca0026
 Hartree-Fock type      HFTyp           .... RHF
 Total Charge           Charge          ....    0
 Multiplicity           Mult            ....    1
 Number of Electrons    NEL             ....   24
 Basis Dimension        Dim             ....  117
 Nuclear Repulsion      ENuc            ....     74.8301592471 Eh

Convergence Acceleration:
 DIIS                   CNVDIIS         .... on
   Start iteration      DIISMaxIt       ....    12
   Startup error        DIISStart       ....  0.200000
   # of expansion vecs  DIISMaxEq       ....     5
   Bias factor          DIISBfac        ....   1.050
   Max. coefficient     DIISMaxC        ....  10.000
 Trust-Rad. Augm. Hess. CNVTRAH         .... auto
   Auto Start mean grad. ratio tolernc. ....  1.125000
   Auto Start start iteration           ....    20
   Auto Start num. interpolation iter.  ....    10
   Max. Number of Micro iterations      ....    16
   Max. Number of Macro iterations      .... Maxiter - #DIIS iter
   Number of Davidson start vectors     ....     2
   Converg. threshold I  (grad. norm)   ....   1.000e-05
   Converg. threshold II (energy diff.) ....   1.000e-08
   Grad. Scal. Fac. for Micro threshold ....   0.100
   Minimum threshold for Micro iter.    ....   0.010
   NR start threshold (gradient norm)   ....   0.001
   Initial trust radius                 ....   0.400
   Minimum AH scaling param. (alpha)    ....   1.000
   Maximum AH scaling param. (alpha)    .... 1000.000
   Orbital update algorithm             .... Taylor
   White noise on init. David. guess    .... on
   Maximum white noise                  ....   0.010
   Quad. conv. algorithm                .... NR
 SOSCF                  CNVSOSCF        .... on
   Start iteration      SOSCFMaxIt      ....   150
   Startup grad/error   SOSCFStart      ....  0.003300
 Level Shifting         CNVShift        .... on
   Level shift para.    LevelShift      ....    0.2500
   Turn off err/grad.   ShiftErr        ....    0.0010
 Zerner damping         CNVZerner       .... off
 Static damping         CNVDamp         .... on
   Fraction old density DampFac         ....    0.7000
   Max. Damping (<1)    DampMax         ....    0.9800
   Min. Damping (>=0)   DampMin         ....    0.0000
   Turn off err/grad.   DampErr         ....    0.1000
 Fernandez-Rico         CNVRico         .... off

SCF Procedure:
 Maximum # iterations   MaxIter         ....   125
 SCF integral mode      SCFMode         .... Direct
   Integral package                     .... SHARK and LIBINT hybrid scheme
 Reset frequency        DirectResetFreq ....    20
 Integral Threshold     Thresh          ....  2.500e-11 Eh
 Primitive CutOff       TCut            ....  2.500e-12 Eh

Convergence Tolerance:
 Convergence Check Mode ConvCheckMode   .... Total+1el-Energy
 Convergence forced     ConvForced      .... 0
 Energy Change          TolE            ....  1.000e-08 Eh
 1-El. energy change                    ....  1.000e-05 Eh
 Orbital Gradient       TolG            ....  1.000e-05
 Orbital Rotation angle TolX            ....  1.000e-05
 DIIS Error             TolErr          ....  5.000e-07


Diagonalization of the overlap matrix:
Smallest eigenvalue                        ... 6.253e-04
Time for diagonalization                   ...    0.001 sec
Threshold for overlap eigenvalues          ... 1.000e-08
Number of eigenvalues below threshold      ... 0
Time for construction of square roots      ...    0.001 sec
Total time needed                          ...    0.003 sec

Time for model grid setup =    0.022 sec

------------------------------
INITIAL GUESS: MODEL POTENTIAL
------------------------------
Loading Hartree-Fock densities                     ... done
Calculating cut-offs                               ... done
Initializing the effective Hamiltonian             ... done
Setting up the integral package (SHARK)            ... done
Starting the Coulomb interaction                   ... done (   0.0 sec)
Reading the grid                                   ... done
Mapping shells                                     ... done
Starting the XC term evaluation                    ... done (   0.0 sec)
  promolecular density results
     # of electrons  =     23.996671104
     EX              =    -19.540851703
     EC              =     -0.781132144
     EX+EC           =    -20.321983846
Transforming the Hamiltonian                       ... done (   0.0 sec)
Diagonalizing the Hamiltonian                      ... done (   0.0 sec)
Back transforming the eigenvectors                 ... done (   0.0 sec)
Now organizing SCF variables                       ... done
                      ------------------
                      INITIAL GUESS DONE (   0.0 sec)
                      ------------------
-------------------
DFT GRID GENERATION
-------------------

General Integration Accuracy     IntAcc      ... 4.388
Radial Grid Type                 RadialGrid  ... OptM3 with GC (2021)
Angular Grid (max. ang.)         AngularGrid ... 4 (Lebedev-302)
Angular grid pruning method      GridPruning ... 4 (adaptive)
Weight generation scheme         WeightScheme... Becke
Basis function cutoff            BFCut       ... 1.0000e-11
Integration weight cutoff        WCut        ... 1.0000e-14
Angular grids for H and He will be reduced by one unit
Partially contracted basis set               ... off
Rotationally invariant grid construction     ... off

Total number of grid points                  ...    31301
Total number of batches                      ...      493
Average number of points per batch           ...       63
Average number of grid points per atom       ...     4472
Time for grid setup =    0.112 sec

--------------------
COSX GRID GENERATION
--------------------

GRIDX 1
-------
General Integration Accuracy     IntAcc      ... 3.816
Radial Grid Type                 RadialGrid  ... OptM3 with GC (2021)
Angular Grid (max. ang.)         AngularGrid ... 1 (Lebedev-50)
Angular grid pruning method      GridPruning ... 4 (adaptive)
Weight generation scheme         WeightScheme... Becke
Basis function cutoff            BFCut       ... 1.0000e-11
Integration weight cutoff        WCut        ... 1.0000e-14
Angular grids for H and He will be reduced by one unit
Partially contracted basis set               ... on
Rotationally invariant grid construction     ... off

Total number of grid points                  ...     4034
Total number of batches                      ...       68
Average number of points per batch           ...       59
Average number of grid points per atom       ...      576
UseSFitting                                  ... on

GRIDX 2
-------
General Integration Accuracy     IntAcc      ... 4.020
Radial Grid Type                 RadialGrid  ... OptM3 with GC (2021)
Angular Grid (max. ang.)         AngularGrid ... 2 (Lebedev-110)
Angular grid pruning method      GridPruning ... 4 (adaptive)
Weight generation scheme         WeightScheme... Becke
Basis function cutoff            BFCut       ... 1.0000e-11
Integration weight cutoff        WCut        ... 1.0000e-14
Angular grids for H and He will be reduced by one unit
Partially contracted basis set               ... on
Rotationally invariant grid construction     ... off

Total number of grid points                  ...     8712
Total number of batches                      ...      141
Average number of points per batch           ...       61
Average number of grid points per atom       ...     1245
UseSFitting                                  ... on

GRIDX 3
-------
General Integration Accuracy     IntAcc      ... 4.338
Radial Grid Type                 RadialGrid  ... OptM3 with GC (2021)
Angular Grid (max. ang.)         AngularGrid ... 3 (Lebedev-194)
Angular grid pruning method      GridPruning ... 4 (adaptive)
Weight generation scheme         WeightScheme... Becke
Basis function cutoff            BFCut       ... 1.0000e-11
Integration weight cutoff        WCut        ... 1.0000e-14
Angular grids for H and He will be reduced by one unit
Partially contracted basis set               ... on
Rotationally invariant grid construction     ... off

Total number of grid points                  ...    19258
Total number of batches                      ...      304
Average number of points per batch           ...       63
Average number of grid points per atom       ...     2751
UseSFitting                                  ... on

Time for X-Grid setup             =    0.073 sec

--------------
SCF ITERATIONS
--------------
ITER       Energy         Delta-E        Max-DP      RMS-DP      [F,P]     Damp
               ***  Starting incremental Fock matrix formation  ***
  0   -153.6010643427   0.000000000000 0.03188869  0.00108216  0.1689605 0.7000
  1   -153.6274904835  -0.026426140792 0.01749302  0.00079962  0.0725274 0.7000
                               ***Turning on DIIS***
  2   -153.6387078435  -0.011217359988 0.02520539  0.00138991  0.0316251 0.0000
  3   -153.6570262635  -0.018318420034 0.01369957  0.00059570  0.0383103 0.0000
  4   -153.6603057222  -0.003279458662 0.00363553  0.00015722  0.0080646 0.0000
  5   -153.6604706670  -0.000164944783 0.00124139  0.00005264  0.0033460 0.0000
                      *** Initiating the SOSCF procedure ***
                           *** Shutting down DIIS ***
                      *** Re-Reading the Fockian *** 
                      *** Removing any level shift *** 
ITER      Energy       Delta-E        Grad      Rot      Max-DP    RMS-DP
  6   -153.66048981  -0.0000191409  0.000091  0.000091  0.000655  0.000024
               *** Restarting incremental Fock matrix formation ***
  7   -153.66047614   0.0000136695  0.000033  0.000045  0.000078  0.000004
  8   -153.66047612   0.0000000145  0.000049  0.000037  0.000045  0.000002
  9   -153.66047617  -0.0000000411  0.000006  0.000009  0.000013  0.000001
 10   -153.66047616   0.0000000007  0.000007  0.000005  0.000008  0.000000
                  ***Gradient check signals convergence***
              ***Rediagonalizing the Fockian in SOSCF/NRSCF***

               *****************************************************
               *                     SUCCESS                       *
               *           SCF CONVERGED AFTER  11 CYCLES          *
               *****************************************************

Old exchange energy                            =     -4.998293638 Eh
New exchange energy                            =     -4.998293023 Eh
Exchange energy change after final integration =      0.000000614 Eh
Total energy after final integration           =   -153.660475553 Eh
Final COS-X integration done in                =     0.266 sec

----------------
TOTAL SCF ENERGY
----------------

Total Energy       :         -153.66047555 Eh           -4181.31411 eV

Components:
Nuclear Repulsion  :           74.83015925 Eh            2036.23215 eV
Electronic Energy  :         -228.49063480 Eh           -6217.54627 eV
One Electron Energy:         -356.29869313 Eh           -9695.38034 eV
Two Electron Energy:          127.80805833 Eh            3477.83408 eV
Max COSX asymmetry :            0.00000316 Eh               0.00009 eV

Virial components:
Potential Energy   :         -306.64277963 Eh           -8344.17424 eV
Kinetic Energy     :          152.98230407 Eh            4162.86013 eV
Virial Ratio       :            2.00443301


DFT components:
N(Alpha)           :       12.000001308244 electrons
N(Beta)            :       12.000001308244 electrons
N(Total)           :       24.000002616489 electrons
E(X)               :      -14.965113757516 Eh       
E(C)               :       -0.789470933110 Eh       
E(XC)              :      -15.754584690627 Eh       
DFET-embed. en.    :        0.000000000000 Eh       

---------------
SCF CONVERGENCE
---------------

  Last Energy change         ...   -2.4044e-09  Tolerance :   1.0000e-08
  Last MAX-Density change    ...    1.2212e-15  Tolerance :   1.0000e-07
  Last RMS-Density change    ...    2.3405e-17  Tolerance :   5.0000e-09
  Last Orbital Gradient      ...    6.4651e-07  Tolerance :   1.0000e-05
  Last Orbital Rotation      ...    1.2433e-06  Tolerance :   1.0000e-05

             **** THE GBW FILE WAS UPDATED (ox_gs_A_orca0026.gbw) ****
             **** DENSITY ox_gs_A_orca0026.scfp WAS UPDATED ****
             **** ENERGY FILE WAS UPDATED (ox_gs_A_orca0026.en.tmp) ****
             **** THE GBW FILE WAS UPDATED (ox_gs_A_orca0026.gbw) ****
             **** DENSITY ox_gs_A_orca0026.scfp WAS UPDATED ****
----------------
ORBITAL ENERGIES
----------------

  NO   OCC          E(Eh)            E(eV) 
   0   2.0000     -19.226621      -523.1830 
   1   2.0000     -10.277764      -279.6722 
   2   2.0000     -10.274345      -279.5792 
   3   2.0000      -1.103169       -30.0188 
   4   2.0000      -0.694086       -18.8870 
   5   2.0000      -0.670319       -18.2403 
   6   2.0000      -0.526518       -14.3273 
   7   2.0000      -0.501512       -13.6468 
   8   2.0000      -0.430794       -11.7225 
   9   2.0000      -0.405306       -11.0289 
  10   2.0000      -0.314849        -8.5675 
  11   2.0000      -0.292128        -7.9492 
  12   0.0000       0.066030         1.7968 
  13   0.0000       0.069526         1.8919 
  14   0.0000       0.084092         2.2883 
  15   0.0000       0.103200         2.8082 
  16   0.0000       0.111344         3.0298 
  17   0.0000       0.154423         4.2021 
  18   0.0000       0.195176         5.3110 
  19   0.0000       0.212544         5.7836 
  20   0.0000       0.266202         7.2437 
  21   0.0000       0.269822         7.3422 
  22   0.0000       0.285412         7.7665 
  23   0.0000       0.335298         9.1239 
  24   0.0000       0.377995        10.2858 
  25   0.0000       0.387643        10.5483 
  26   0.0000       0.409014        11.1298 
  27   0.0000       0.410865        11.1802 
  28   0.0000       0.454503        12.3677 
  29   0.0000       0.469289        12.7700 
  30   0.0000       0.500313        13.6142 
  31   0.0000       0.525170        14.2906 
  32   0.0000       0.539877        14.6908 
  33   0.0000       0.703976        19.1562 
  34   0.0000       0.714019        19.4294 
  35   0.0000       0.717666        19.5287 
  36   0.0000       0.824245        22.4288 
  37   0.0000       0.858034        23.3483 
  38   0.0000       0.907173        24.6854 
  39   0.0000       0.931532        25.3483 
  40   0.0000       1.004683        27.3388 
  41   0.0000       1.015071        27.6215 
  42   0.0000       1.073798        29.2195 
  43   0.0000       1.078053        29.3353 
  44   0.0000       1.146663        31.2023 
  45   0.0000       1.350474        36.7483 
  46   0.0000       1.448939        39.4276 
  47   0.0000       1.489247        40.5245 
  48   0.0000       1.504419        40.9373 
  49   0.0000       1.509381        41.0724 
  50   0.0000       1.585426        43.1416 
  51   0.0000       1.614170        43.9238 
  52   0.0000       1.679307        45.6963 
  53   0.0000       1.724922        46.9375 
  54   0.0000       1.777031        48.3555 
  55   0.0000       1.811149        49.2839 
  56   0.0000       1.861494        50.6538 
  57   0.0000       1.909011        51.9468 
  58   0.0000       1.929212        52.4965 
  59   0.0000       1.950346        53.0716 
  60   0.0000       2.130172        57.9649 
  61   0.0000       2.156241        58.6743 
  62   0.0000       2.191058        59.6217 
  63   0.0000       2.233671        60.7813 
  64   0.0000       2.266087        61.6634 
  65   0.0000       2.418873        65.8209 
  66   0.0000       2.453483        66.7627 
  67   0.0000       2.516783        68.4852 
  68   0.0000       2.527495        68.7766 
  69   0.0000       2.558967        69.6330 
  70   0.0000       2.627382        71.4947 
  71   0.0000       2.649500        72.0966 
  72   0.0000       2.678635        72.8894 
  73   0.0000       2.723312        74.1051 
  74   0.0000       2.766964        75.2929 
  75   0.0000       2.831690        77.0542 
  76   0.0000       2.855405        77.6995 
  77   0.0000       2.942626        80.0729 
  78   0.0000       2.986731        81.2731 
  79   0.0000       3.013078        81.9900 
  80   0.0000       3.043226        82.8104 
  81   0.0000       3.088652        84.0465 
  82   0.0000       3.156273        85.8866 
  83   0.0000       3.207194        87.2722 
  84   0.0000       3.297126        89.7194 
  85   0.0000       3.307224        89.9941 
  86   0.0000       3.351128        91.1888 
  87   0.0000       3.428688        93.2993 
  88   0.0000       3.554328        96.7182 
  89   0.0000       3.601403        97.9992 
  90   0.0000       3.647270        99.2473 
  91   0.0000       3.704568       100.8064 
  92   0.0000       3.826362       104.1206 
  93   0.0000       3.976675       108.2108 
  94   0.0000       4.081741       111.0698 
  95   0.0000       4.173289       113.5610 
  96   0.0000       4.253946       115.7558 
  97   0.0000       4.290985       116.7636 
  98   0.0000       4.389130       119.4343 
  99   0.0000       4.572058       124.4120 
 100   0.0000       4.737835       128.9230 
 101   0.0000       4.837441       131.6335 
 102   0.0000       5.317783       144.7042 
 103   0.0000       5.471602       148.8899 
 104   0.0000       5.714926       155.5110 
 105   0.0000       5.775762       157.1665 
 106   0.0000       5.804216       157.9407 
 107   0.0000       5.905354       160.6928 
 108   0.0000       6.056712       164.8115 
 109   0.0000       6.634879       180.5442 
 110   0.0000       6.640041       180.6847 
 111   0.0000       6.781471       184.5332 
 112   0.0000       6.959299       189.3722 
 113   0.0000       7.184614       195.5033 
 114   0.0000      22.354292       608.2912 
 115   0.0000      22.420894       610.1035 
 116   0.0000      43.862119      1193.5489 

                    ********************************
                    * MULLIKEN POPULATION ANALYSIS *
                    ********************************

-----------------------
MULLIKEN ATOMIC CHARGES
-----------------------
   0 O :   -0.304841
   1 C :   -0.083185
   2 C :   -0.078801
   3 H :    0.117956
   4 H :    0.119054
   5 H :    0.108153
   6 H :    0.121664
Sum of atomic charges:    0.0000000

--------------------------------
MULLIKEN REDUCED ORBITAL CHARGES
--------------------------------
  0 O s       :     3.848424  s :     3.848424
      pz      :     1.839428  p :     4.410515
      px      :     1.287721
      py      :     1.283366
      dz2     :     0.005817  d :     0.043756
      dxz     :     0.002778
      dyz     :     0.006529
      dx2y2   :     0.012364
      dxy     :     0.016268
      f0      :     0.000259  f :     0.002147
      f+1     :     0.000223
      f-1     :     0.000458
      f+2     :     0.000065
      f-2     :     0.000214
      f+3     :     0.000338
      f-3     :     0.000591
  1 C s       :     3.230633  s :     3.230633
      pz      :     1.044080  p :     2.738119
      px      :     0.897092
      py      :     0.796947
      dz2     :     0.006186  d :     0.103402
      dxz     :     0.023567
      dyz     :     0.028441
      dx2y2   :     0.026679
      dxy     :     0.018528
      f0      :     0.001432  f :     0.011032
      f+1     :     0.001416
      f-1     :     0.000623
      f+2     :     0.000920
      f-2     :     0.001739
      f+3     :     0.002293
      f-3     :     0.002609
  2 C s       :     3.222583  s :     3.222583
      pz      :     1.054329  p :     2.736774
      px      :     0.889341
      py      :     0.793105
      dz2     :     0.005239  d :     0.107913
      dxz     :     0.025985
      dyz     :     0.029776
      dx2y2   :     0.028548
      dxy     :     0.018365
      f0      :     0.001460  f :     0.011530
      f+1     :     0.001435
      f-1     :     0.000627
      f+2     :     0.001104
      f-2     :     0.001828
      f+3     :     0.002320
      f-3     :     0.002757
  3 H s       :     0.860272  s :     0.860272
      pz      :     0.010806  p :     0.021772
      px      :     0.006636
      py      :     0.004330
  4 H s       :     0.858296  s :     0.858296
      pz      :     0.011226  p :     0.022650
      px      :     0.006741
      py      :     0.004683
  5 H s       :     0.872180  s :     0.872180
      pz      :     0.010152  p :     0.019667
      px      :     0.006132
      py      :     0.003383
  6 H s       :     0.854526  s :     0.854526
      pz      :     0.010380  p :     0.023810
      px      :     0.008070
      py      :     0.005360


                     *******************************
                     * LOEWDIN POPULATION ANALYSIS *
                     *******************************

----------------------
LOEWDIN ATOMIC CHARGES
----------------------
   0 O :    0.127714
   1 C :   -0.264871
   2 C :   -0.285153
   3 H :    0.112125
   4 H :    0.104402
   5 H :    0.121105
   6 H :    0.084678

-------------------------------
LOEWDIN REDUCED ORBITAL CHARGES
-------------------------------
  0 O s       :     3.374896  s :     3.374896
      pz      :     1.719341  p :     4.393038
      px      :     1.280838
      py      :     1.392860
      dz2     :     0.011641  d :     0.097533
      dxz     :     0.008818
      dyz     :     0.014786
      dx2y2   :     0.034215
      dxy     :     0.028073
      f0      :     0.000645  f :     0.006819
      f+1     :     0.000304
      f-1     :     0.000856
      f+2     :     0.000122
      f-2     :     0.001031
      f+3     :     0.001246
      f-3     :     0.002615
  1 C s       :     2.832070  s :     2.832070
      pz      :     1.070473  p :     2.930737
      px      :     1.004599
      py      :     0.855666
      dz2     :     0.052423  d :     0.436774
      dxz     :     0.115368
      dyz     :     0.083250
      dx2y2   :     0.096907
      dxy     :     0.088826
      f0      :     0.008883  f :     0.065290
      f+1     :     0.005669
      f-1     :     0.005340
      f+2     :     0.005871
      f-2     :     0.007554
      f+3     :     0.014834
      f-3     :     0.017139
  2 C s       :     2.823646  s :     2.823646
      pz      :     1.072245  p :     2.931158
      px      :     0.997282
      py      :     0.861632
      dz2     :     0.050363  d :     0.460808
      dxz     :     0.126484
      dyz     :     0.085859
      dx2y2   :     0.104521
      dxy     :     0.093582
      f0      :     0.008785  f :     0.069540
      f+1     :     0.005904
      f-1     :     0.005628
      f+2     :     0.007148
      f-2     :     0.008233
      f+3     :     0.015361
      f-3     :     0.018481
  3 H s       :     0.823384  s :     0.823384
      pz      :     0.033084  p :     0.064491
      px      :     0.018225
      py      :     0.013182
  4 H s       :     0.826507  s :     0.826507
      pz      :     0.035459  p :     0.069092
      px      :     0.019031
      py      :     0.014601
  5 H s       :     0.823682  s :     0.823682
      pz      :     0.029600  p :     0.055213
      px      :     0.015788
      py      :     0.009825
  6 H s       :     0.836708  s :     0.836708
      pz      :     0.036325  p :     0.078613
      px      :     0.024420
      py      :     0.017867


                      *****************************
                      * MAYER POPULATION ANALYSIS *
                      *****************************

  NA   - Mulliken gross atomic population
  ZA   - Total nuclear charge
  QA   - Mulliken gross atomic charge
  VA   - Mayer's total valence
  BVA  - Mayer's bonded valence
  FA   - Mayer's free valence

  ATOM       NA         ZA         QA         VA         BVA        FA
  0 O      8.3048     8.0000    -0.3048     1.9987     1.9987     0.0000
  1 C      6.0832     6.0000    -0.0832     3.9623     3.9623     0.0000
  2 C      6.0788     6.0000    -0.0788     3.9636     3.9636     0.0000
  3 H      0.8820     1.0000     0.1180     0.9608     0.9608     0.0000
  4 H      0.8809     1.0000     0.1191     0.9591     0.9591     0.0000
  5 H      0.8918     1.0000     0.1082     0.9637     0.9637     0.0000
  6 H      0.8783     1.0000     0.1217     0.9546     0.9546     0.0000

  Mayer bond orders larger than 0.100000
B(  0-O ,  1-C ) :   0.9896 B(  0-O ,  2-C ) :   0.9895 B(  1-C ,  2-C ) :   1.0486 
B(  1-C ,  3-H ) :   0.9566 B(  1-C ,  4-H ) :   0.9559 B(  2-C ,  5-H ) :   0.9566 
B(  2-C ,  6-H ) :   0.9586 

-------
TIMINGS
-------

Total SCF time: 0 days 0 hours 0 min 2 sec 

Total time                  ....       2.650 sec
Sum of individual times     ....       2.460 sec  ( 92.8%)

Fock matrix formation       ....       2.188 sec  ( 82.6%)
  Split-RI-J                ....       0.247 sec  ( 11.3% of F)
  Chain of spheres X        ....       1.472 sec  ( 67.3% of F)
  XC integration            ....       0.434 sec  ( 19.8% of F)
    Basis function eval.    ....       0.113 sec  ( 25.9% of XC)
    Density eval.           ....       0.092 sec  ( 21.1% of XC)
    XC-Functional eval.     ....       0.025 sec  (  5.8% of XC)
    XC-Potential eval.      ....       0.149 sec  ( 34.3% of XC)
Diagonalization             ....       0.017 sec  (  0.7%)
Density matrix formation    ....       0.002 sec  (  0.1%)
Population analysis         ....       0.003 sec  (  0.1%)
Initial guess               ....       0.017 sec  (  0.6%)
Orbital Transformation      ....       0.000 sec  (  0.0%)
Orbital Orthonormalization  ....       0.000 sec  (  0.0%)
DIIS solution               ....       0.015 sec  (  0.6%)
SOSCF solution              ....       0.011 sec  (  0.4%)
Grid generation             ....       0.207 sec  (  7.8%)

Maximum memory used throughout the entire SCF-calculation: 61.0 MB


-------------------------------------------------------------------------------
                          DFT DISPERSION CORRECTION                            
                                                                               
                              DFTD3 V3.1  Rev 1                                
                          USING Becke-Johnson damping                          
-------------------------------------------------------------------------------
The PBE0 functional is recognized
Active option DFTDOPT                   ...         4   

molecular C6(AA) [au] = 350.862702 


            DFT-D V3
 parameters
 s6 scaling factor         :     1.0000 
 a1 scaling factor         :     0.4145 
 s8 scaling factor         :     1.2177 
 a2 scaling factor         :     4.8593 
 ad hoc parameters k1-k3   :    16.0000     1.3333    -4.0000 

 Edisp/kcal,au: -1.503951516830  -0.002396699044 
 E6   /kcal   :  -0.985619090 
 E8   /kcal   :  -0.518332427 
 % E8         :  34.464703231 

-------------------------   ----------------
Dispersion correction           -0.002396699
-------------------------   ----------------


-------------------------   --------------------
FINAL SINGLE POINT ENERGY      -153.662872251609
-------------------------   --------------------



           ************************************************************
           *        Program running with 8 parallel MPI-processes     *
           *              working on a common directory               *
           ************************************************************
------------------------------------------------------------------------------
                         ORCA SCF GRADIENT CALCULATION
------------------------------------------------------------------------------

 ... reading COSX grid (gridx3)
Gradient of the Kohn-Sham DFT energy:
Kohn-Sham wavefunction type      ... RKS
Hartree-Fock exchange scaling    ...    0.250
Number of operators              ...    1
Number of atoms                  ...    7
Basis set dimensions             ...  117
Integral neglect threshold       ... 2.5e-11
Integral primitive cutoff        ... 2.5e-12
SHARK Integral package           ... ON

Nuc. rep. gradient       (SHARK) ... done (  0.0 sec)
HCore & Overlap gradient (SHARK) ... done (  0.0 sec)
RI-J gradient            (SHARK) ... done (  0.1 sec)
COSX-gradient                    ... done (  0.3 sec)
Exchange-correlation gradient    ... done
Dispersion correction            ... done

------------------
CARTESIAN GRADIENT
------------------

   1   O   :    0.007415438    0.006691163   -0.003580118
   2   C   :   -0.068857815   -0.006587105   -0.018961604
   3   C   :    0.064148835   -0.010881425    0.091659593
   4   H   :    0.001504665   -0.001674964   -0.006806324
   5   H   :    0.010839259    0.001389001    0.024639854
   6   H   :    0.018367721   -0.003511576   -0.016887868
   7   H   :   -0.033406248    0.014373330   -0.070007478

Difference to translation invariance:
           :    0.0000118549   -0.0002015753    0.0000560540

Difference to rotation invariance:
           :    0.0001770259    0.0000099936    0.0000449842

Norm of the cartesian gradient     ...    0.1597758629
RMS gradient                       ...    0.0348659517
MAX gradient                       ...    0.0916595928

-------
TIMINGS
-------

Total SCF gradient time            ...        0.704 sec

One electron gradient       ....       0.010 sec  (  1.4%)
RI-J Coulomb gradient       ....       0.081 sec  ( 11.5%)
COSX gradient               ....       0.318 sec  ( 45.2%)
XC gradient                 ....       0.157 sec  ( 22.3%)

Maximum memory used throughout the entire SCFGRAD-calculation: 35.9 MB

                            ***************************************
                            *     ORCA property calculations      *
                            ***************************************

                                    ---------------------
                                    Active property flags
                                    ---------------------
   (+) Dipole Moment


------------------------------------------------------------------------------
                       ORCA ELECTRIC PROPERTIES CALCULATION
------------------------------------------------------------------------------

Dipole Moment Calculation                       ... on
Quadrupole Moment Calculation                   ... off
Polarizability Calculation                      ... off
GBWName                                         ... ox_gs_A_orca0026.gbw
Electron density                                ... ox_gs_A_orca0026.scfp
The origin for moment calculation is the CENTER OF MASS  = ( 0.041373, -0.049025  0.012003)

-------------
DIPOLE MOMENT
-------------
                                X             Y             Z
Electronic contribution:     -0.07902       1.72194       0.15307
Nuclear contribution   :      0.07083      -2.41979      -0.14125
                        -----------------------------------------
Total Dipole Moment    :     -0.00819      -0.69786       0.01182
                        -----------------------------------------
Magnitude (a.u.)       :      0.69800
Magnitude (Debye)      :      1.77419



--------------------
Rotational spectrum 
--------------------
 
Rotational constants in cm-1:     0.897729     0.689486     0.457807 
Rotational constants in MHz : 26913.238844 20670.275924 13724.704509 

 Dipole components along the rotational axes: 
x,y,z [a.u.] :    -0.043267    -0.696262     0.023589 
x,y,z [Debye]:    -0.109975    -1.769758     0.059958 

 

Timings for individual modules:

Sum of individual times         ...        4.114 sec (=   0.069 min)
GTO integral calculation        ...        0.327 sec (=   0.005 min)   7.9 %
SCF iterations                  ...        2.839 sec (=   0.047 min)  69.0 %
SCF Gradient evaluation         ...        0.948 sec (=   0.016 min)  23.0 %
                             ****ORCA TERMINATED NORMALLY****
TOTAL RUN TIME: 0 days 0 hours 0 minutes 4 seconds 394 msec
