
                                 *****************
                                 * O   R   C   A *
                                 *****************

                                            #,                                       
                                            ###                                      
                                            ####                                     
                                            #####                                    
                                            ######                                   
                                           ########,                                 
                                     ,,################,,,,,                         
                               ,,#################################,,                 
                          ,,##########################################,,             
                       ,#########################################, ''#####,          
                    ,#############################################,,   '####,        
                  ,##################################################,,,,####,       
                ,###########''''           ''''###############################       
              ,#####''   ,,,,##########,,,,          '''####'''          '####       
            ,##' ,,,,###########################,,,                        '##       
           ' ,,###''''                  '''############,,,                           
         ,,##''                                '''############,,,,        ,,,,,,###''
      ,#''                                            '''#######################'''  
     '                                                          ''''####''''         
             ,#######,   #######,   ,#######,      ##                                
            ,#'     '#,  ##    ##  ,#'     '#,    #''#        ######   ,####,        
            ##       ##  ##   ,#'  ##            #'  '#       #        #'  '#        
            ##       ##  #######   ##           ,######,      #####,   #    #        
            '#,     ,#'  ##    ##  '#,     ,#' ,#      #,         ##   #,  ,#        
             '#######'   ##     ##  '#######'  #'      '#     #####' # '####'        



                  #######################################################
                  #                        -***-                        #
                  #          Department of theory and spectroscopy      #
                  #    Directorship and core code : Frank Neese         #
                  #        Max Planck Institute fuer Kohlenforschung    #
                  #                Kaiser Wilhelm Platz 1               #
                  #                 D-45470 Muelheim/Ruhr               #
                  #                      Germany                        #
                  #                                                     #
                  #                  All rights reserved                #
                  #                        -***-                        #
                  #######################################################


                         Program Version 5.0.2 -  RELEASE  -


 With contributions from (in alphabetic order):
   Daniel Aravena         : Magnetic Suceptibility
   Michael Atanasov       : Ab Initio Ligand Field Theory (pilot matlab implementation)
   Alexander A. Auer      : GIAO ZORA, VPT2 properties, NMR spectrum
   Ute Becker             : Parallelization
   Giovanni Bistoni       : ED, misc. LED, open-shell LED, HFLD
   Martin Brehm           : Molecular dynamics
   Dmytro Bykov           : SCF Hessian
   Vijay G. Chilkuri      : MRCI spin determinant printing, contributions to CSF-ICE
   Dipayan Datta          : RHF DLPNO-CCSD density
   Achintya Kumar Dutta   : EOM-CC, STEOM-CC
   Dmitry Ganyushin       : Spin-Orbit,Spin-Spin,Magnetic field MRCI
   Miquel Garcia          : C-PCM and meta-GGA Hessian, CC/C-PCM, Gaussian charge scheme
   Yang Guo               : DLPNO-NEVPT2, F12-NEVPT2, CIM, IAO-localization
   Andreas Hansen         : Spin unrestricted coupled pair/coupled cluster methods
   Benjamin Helmich-Paris : MC-RPA, TRAH-SCF, COSX integrals
   Lee Huntington         : MR-EOM, pCC
   Robert Izsak           : Overlap fitted RIJCOSX, COSX-SCS-MP3, EOM
   Marcus Kettner         : VPT2
   Christian Kollmar      : KDIIS, OOCD, Brueckner-CCSD(T), CCSD density, CASPT2, CASPT2-K
   Simone Kossmann        : Meta GGA functionals, TD-DFT gradient, OOMP2, MP2 Hessian
   Martin Krupicka        : Initial AUTO-CI
   Lucas Lang             : DCDCAS
   Marvin Lechner         : AUTO-CI (C++ implementation), FIC-MRCC
   Dagmar Lenk            : GEPOL surface, SMD
   Dimitrios Liakos       : Extrapolation schemes; Compound Job, initial MDCI parallelization
   Dimitrios Manganas     : Further ROCIS development; embedding schemes
   Dimitrios Pantazis     : SARC Basis sets
   Anastasios Papadopoulos: AUTO-CI, single reference methods and gradients
   Taras Petrenko         : DFT Hessian,TD-DFT gradient, ASA, ECA, R-Raman, ABS, FL, XAS/XES, NRVS
   Peter Pinski           : DLPNO-MP2, DLPNO-MP2 Gradient
   Christoph Reimann      : Effective Core Potentials
   Marius Retegan         : Local ZFS, SOC
   Christoph Riplinger    : Optimizer, TS searches, QM/MM, DLPNO-CCSD(T), (RO)-DLPNO pert. Triples
   Tobias Risthaus        : Range-separated hybrids, TD-DFT gradient, RPA, STAB
   Michael Roemelt        : Original ROCIS implementation
   Masaaki Saitow         : Open-shell DLPNO-CCSD energy and density
   Barbara Sandhoefer     : DKH picture change effects
   Avijit Sen             : IP-ROCIS
   Kantharuban Sivalingam : CASSCF convergence, NEVPT2, FIC-MRCI
   Bernardo de Souza      : ESD, SOC TD-DFT
   Georgi Stoychev        : AutoAux, RI-MP2 NMR, DLPNO-MP2 response
   Willem Van den Heuvel  : Paramagnetic NMR
   Boris Wezisla          : Elementary symmetry handling
   Frank Wennmohs         : Technical directorship


 We gratefully acknowledge several colleagues who have allowed us to
 interface, adapt or use parts of their codes:
   Stefan Grimme, W. Hujo, H. Kruse, P. Pracht,  : VdW corrections, initial TS optimization,
                  C. Bannwarth, S. Ehlert          DFT functionals, gCP, sTDA/sTD-DF
   Ed Valeev, F. Pavosevic, A. Kumar             : LibInt (2-el integral package), F12 methods
   Garnet Chan, S. Sharma, J. Yang, R. Olivares  : DMRG
   Ulf Ekstrom                                   : XCFun DFT Library
   Mihaly Kallay                                 : mrcc  (arbitrary order and MRCC methods)
   Jiri Pittner, Ondrej Demel                    : Mk-CCSD
   Frank Weinhold                                : gennbo (NPA and NBO analysis)
   Christopher J. Cramer and Donald G. Truhlar   : smd solvation model
   Lars Goerigk                                  : TD-DFT with DH, B97 family of functionals
   V. Asgeirsson, H. Jonsson                     : NEB implementation
   FAccTs GmbH                                   : IRC, NEB, NEB-TS, DLPNO-Multilevel, CI-OPT
                                                   MM, QMMM, 2- and 3-layer-ONIOM, Crystal-QMMM,
                                                   LR-CPCM, SF, NACMEs, symmetry and pop. for TD-DFT,
                                                   nearIR, NL-DFT gradient (VV10), updates on ESD,
                                                   ML-optimized integration grids
   S Lehtola, MJT Oliveira, MAL Marques          : LibXC Library
   Liviu Ungur et al                             : ANISO software


 Your calculation uses the libint2 library for the computation of 2-el integrals
 For citations please refer to: http://libint.valeyev.net

 Your ORCA version has been built with support for libXC version: 5.1.0
 For citations please refer to: https://tddft.org/programs/libxc/

 This ORCA versions uses:
   CBLAS   interface :  Fast vector & matrix operations
   LAPACKE interface :  Fast linear algebra routines
   SCALAPACK package :  Parallel linear algebra routines
   Shared memory     :  Shared parallel matrices
   BLAS/LAPACK       :  OpenBLAS 0.3.15  USE64BITINT DYNAMIC_ARCH NO_AFFINITY SkylakeX SINGLE_THREADED
        Core in use  :  SkylakeX
   Copyright (c) 2011-2014, The OpenBLAS Project


Your calculation utilizes the atom-pairwise dispersion correction
with the Becke-Johnson damping scheme (D3BJ)
Cite in your paper:
S.Grimme, S.Ehrlich, L.Goerigk, J Comput Chem, (2011), 32, 1456–1465 
S.Grimme, J.Antony, S.Ehrlich and H.Krieg, J.Chem.Phys., 132, (2010), 154104 
   

================================================================================

----- Orbital basis set information -----
Your calculation utilizes the basis: def2-TZVP
   F. Weigend and R. Ahlrichs, Phys. Chem. Chem. Phys. 7, 3297 (2005).

----- AuxJ basis set information -----
Your calculation utilizes the auxiliary basis: def2/J
   F. Weigend, Phys. Chem. Chem. Phys. 8, 1057 (2006).

================================================================================
                                        WARNINGS
                       Please study these warnings very carefully!
================================================================================


INFO   : the flag for use of the SHARK integral package has been found!

================================================================================
                                       INPUT FILE
================================================================================
NAME = ox_gs_D_orca0004.inp
|  1> ! engrad PBE0 D3BJ def2-TZVP  
|  2> %pal nprocs 8 end
|  3> %maxcore 3000
|  4>  
|  5> *xyz 0 1 
|  6> O   -0.796431494067364 0.9879343962934217 0.024525176640351587
|  7> C   -0.781219927094061 -0.49973588307276445 -0.12448263876500687
|  8> C   0.7495524788033538 -0.41795619318519484 0.014267372332663118
|  9> H   -1.2324656918697652 -0.8158262009490426 0.897197482725506
| 10> H   -1.2101643270072657 -0.696508110518153 -0.9101952406411243
| 11> H   1.235925062873802 -0.6350523830752484 -0.9446411159227279
| 12> H   1.1513375570647664 -0.6328016517842031 0.891515834786684
| 13> *
| 14> 
| 15>                          ****END OF INPUT****
================================================================================

                     *******************************
                     * Energy+Gradient Calculation *
                     *******************************

---------------------------------
CARTESIAN COORDINATES (ANGSTROEM)
---------------------------------
  O     -0.796431    0.987934    0.024525
  C     -0.781220   -0.499736   -0.124483
  C      0.749552   -0.417956    0.014267
  H     -1.232466   -0.815826    0.897197
  H     -1.210164   -0.696508   -0.910195
  H      1.235925   -0.635052   -0.944641
  H      1.151338   -0.632802    0.891516

----------------------------
CARTESIAN COORDINATES (A.U.)
----------------------------
  NO LB      ZA    FRAG     MASS         X           Y           Z
   0 O     8.0000    0    15.999   -1.505037    1.866925    0.046346
   1 C     6.0000    0    12.011   -1.476292   -0.944364   -0.235238
   2 C     6.0000    0    12.011    1.416449   -0.789823    0.026961
   3 H     1.0000    0     1.008   -2.329023   -1.541688    1.695458
   4 H     1.0000    0     1.008   -2.286879   -1.316210   -1.720020
   5 H     1.0000    0     1.008    2.335560   -1.200075   -1.785113
   6 H     1.0000    0     1.008    2.175713   -1.195822    1.684721

--------------------------------
INTERNAL COORDINATES (ANGSTROEM)
--------------------------------
 O      0   0   0     0.000000000000     0.00000000     0.00000000
 C      1   0   0     1.495191486376     0.00000000     0.00000000
 C      2   1   0     1.539221765021    87.03482658     0.00000000
 H      2   1   3     1.160761000349   100.32730463   108.54441360
 H      2   1   3     0.916546180210   107.11435666   235.62444187
 H      3   2   1     1.096902244983   110.58847835   250.84577494
 H      3   2   1     0.988511347973   118.20793570   100.23634215

---------------------------
INTERNAL COORDINATES (A.U.)
---------------------------
 O      0   0   0     0.000000000000     0.00000000     0.00000000
 C      1   0   0     2.825502427021     0.00000000     0.00000000
 C      2   1   0     2.908707595261    87.03482658     0.00000000
 H      2   1   3     2.193520397597   100.32730463   108.54441360
 H      2   1   3     1.732021269689   107.11435666   235.62444187
 H      3   2   1     2.072844838701   110.58847835   250.84577494
 H      3   2   1     1.868015727943   118.20793570   100.23634215

---------------------
BASIS SET INFORMATION
---------------------
There are 3 groups of distinct atoms

 Group   1 Type O   : 11s6p2d1f contracted to 5s3p2d1f pattern {62111/411/11/1}
 Group   2 Type C   : 11s6p2d1f contracted to 5s3p2d1f pattern {62111/411/11/1}
 Group   3 Type H   : 5s1p contracted to 3s1p pattern {311/1}

Atom   0O    basis set group =>   1
Atom   1C    basis set group =>   2
Atom   2C    basis set group =>   2
Atom   3H    basis set group =>   3
Atom   4H    basis set group =>   3
Atom   5H    basis set group =>   3
Atom   6H    basis set group =>   3
---------------------------------
AUXILIARY/J BASIS SET INFORMATION
---------------------------------
There are 3 groups of distinct atoms

 Group   1 Type O   : 12s5p4d2f1g contracted to 6s4p3d1f1g pattern {711111/2111/211/2/1}
 Group   2 Type C   : 12s5p4d2f1g contracted to 6s4p3d1f1g pattern {711111/2111/211/2/1}
 Group   3 Type H   : 5s2p1d contracted to 3s1p1d pattern {311/2/1}

Atom   0O    basis set group =>   1
Atom   1C    basis set group =>   2
Atom   2C    basis set group =>   2
Atom   3H    basis set group =>   3
Atom   4H    basis set group =>   3
Atom   5H    basis set group =>   3
Atom   6H    basis set group =>   3


           ************************************************************
           *        Program running with 8 parallel MPI-processes     *
           *              working on a common directory               *
           ************************************************************
------------------------------------------------------------------------------
                           ORCA GTO INTEGRAL CALCULATION
                           -- RI-GTO INTEGRALS CHOSEN --
------------------------------------------------------------------------------
------------------------------------------------------------------------------
                   ___                                                        
                  /   \      - P O W E R E D   B Y -                         
                 /     \                                                     
                 |  |  |   _    _      __       _____    __    __             
                 |  |  |  | |  | |    /  \     |  _  \  |  |  /  |          
                  \  \/   | |  | |   /    \    | | | |  |  | /  /          
                 / \  \   | |__| |  /  /\  \   | |_| |  |  |/  /          
                |  |  |   |  __  | /  /__\  \  |    /   |      \           
                |  |  |   | |  | | |   __   |  |    \   |  |\   \          
                \     /   | |  | | |  |  |  |  | |\  \  |  | \   \       
                 \___/    |_|  |_| |__|  |__|  |_| \__\ |__|  \__/        
                                                                              
                      - O R C A' S   B I G   F R I E N D -                    
                                      &                                       
                       - I N T E G R A L  F E E D E R -                       
                                                                              
 v1 FN, 2020, v2 2021                                                         
------------------------------------------------------------------------------


Reading SHARK input file ox_gs_D_orca0004.SHARKINP.tmp ... ok
----------------------
SHARK INTEGRAL PACKAGE
----------------------

Number of atoms                             ...      7
Number of basis functions                   ...    117
Number of shells                            ...     49
Maximum angular momentum                    ...      3
Integral batch strategy                     ... SHARK/LIBINT Hybrid
RI-J (if used) integral strategy            ... SPLIT-RIJ (Revised 2003 algorithm where possible)
Printlevel                                  ...      1
Contraction scheme used                     ... SEGMENTED contraction
Coulomb Range Separation                    ... NOT USED
Exchange Range Separation                   ... NOT USED
Finite Nucleus Model                        ... NOT USED
Auxiliary Coulomb fitting basis             ... AVAILABLE
   # of basis functions in Aux-J            ...    191
   # of shells in Aux-J                     ...     65
   Maximum angular momentum in Aux-J        ...      4
Auxiliary J/K fitting basis                 ... NOT available
Auxiliary Correlation fitting basis         ... NOT available
Auxiliary 'external' fitting basis          ... NOT available
Integral threshold                          ...     2.500000e-11
Primitive cut-off                           ...     2.500000e-12
Primitive pair pre-selection threshold      ...     2.500000e-12

Calculating pre-screening integrals         ... done (  0.0 sec) Dimension = 49
Organizing shell pair data                  ... done (  0.0 sec)
Shell pair information
Total number of shell pairs                 ...      1225
Shell pairs after pre-screening             ...      1214
Total number of primitive shell pairs       ...      3648
Primitive shell pairs kept                  ...      3090
          la=0 lb=0:    368 shell pairs
          la=1 lb=0:    351 shell pairs
          la=1 lb=1:     91 shell pairs
          la=2 lb=0:    161 shell pairs
          la=2 lb=1:     78 shell pairs
          la=2 lb=2:     21 shell pairs
          la=3 lb=0:     81 shell pairs
          la=3 lb=1:     39 shell pairs
          la=3 lb=2:     18 shell pairs
          la=3 lb=3:      6 shell pairs

Calculating one electron integrals          ... done (  0.0 sec)
Calculating RI/J V-Matrix + Cholesky decomp.... done (  0.0 sec)
Calculating Nuclear repulsion               ... done (  0.0 sec) ENN=     68.311793483158 Eh

SHARK setup successfully completed in   0.1 seconds

Maximum memory used throughout the entire GTOINT-calculation: 14.9 MB


           ************************************************************
           *        Program running with 8 parallel MPI-processes     *
           *              working on a common directory               *
           ************************************************************
-------------------------------------------------------------------------------
                                 ORCA SCF
-------------------------------------------------------------------------------

------------
SCF SETTINGS
------------
Hamiltonian:
 Density Functional     Method          .... DFT(GTOs)
 Exchange Functional    Exchange        .... PBE
   PBE kappa parameter   XKappa         ....  0.804000
   PBE mue parameter    XMuePBE         ....  0.219520
 Correlation Functional Correlation     .... PBE
   PBE beta parameter  CBetaPBE         ....  0.066725
 LDA part of GGA corr.  LDAOpt          .... PW91-LDA
 Gradients option       PostSCFGGA      .... off
 Hybrid DFT is turned on
   Fraction HF Exchange ScalHFX         ....  0.250000
   Scaling of DF-GGA-X  ScalDFX         ....  0.750000
   Scaling of DF-GGA-C  ScalDFC         ....  1.000000
   Scaling of DF-LDA-C  ScalLDAC        ....  1.000000
   Perturbative correction              ....  0.000000
   Density functional embedding theory  .... OFF
   NL short-range parameter             ....  6.900000
 RI-approximation to the Coulomb term is turned on
   Number of AuxJ basis functions       .... 191
   RIJ-COSX (HFX calculated with COS-X)).... on


General Settings:
 Integral files         IntName         .... ox_gs_D_orca0004
 Hartree-Fock type      HFTyp           .... RHF
 Total Charge           Charge          ....    0
 Multiplicity           Mult            ....    1
 Number of Electrons    NEL             ....   24
 Basis Dimension        Dim             ....  117
 Nuclear Repulsion      ENuc            ....     68.3117934832 Eh

Convergence Acceleration:
 DIIS                   CNVDIIS         .... on
   Start iteration      DIISMaxIt       ....    12
   Startup error        DIISStart       ....  0.200000
   # of expansion vecs  DIISMaxEq       ....     5
   Bias factor          DIISBfac        ....   1.050
   Max. coefficient     DIISMaxC        ....  10.000
 Trust-Rad. Augm. Hess. CNVTRAH         .... auto
   Auto Start mean grad. ratio tolernc. ....  1.125000
   Auto Start start iteration           ....    20
   Auto Start num. interpolation iter.  ....    10
   Max. Number of Micro iterations      ....    16
   Max. Number of Macro iterations      .... Maxiter - #DIIS iter
   Number of Davidson start vectors     ....     2
   Converg. threshold I  (grad. norm)   ....   1.000e-05
   Converg. threshold II (energy diff.) ....   1.000e-08
   Grad. Scal. Fac. for Micro threshold ....   0.100
   Minimum threshold for Micro iter.    ....   0.010
   NR start threshold (gradient norm)   ....   0.001
   Initial trust radius                 ....   0.400
   Minimum AH scaling param. (alpha)    ....   1.000
   Maximum AH scaling param. (alpha)    .... 1000.000
   Orbital update algorithm             .... Taylor
   White noise on init. David. guess    .... on
   Maximum white noise                  ....   0.010
   Quad. conv. algorithm                .... NR
 SOSCF                  CNVSOSCF        .... on
   Start iteration      SOSCFMaxIt      ....   150
   Startup grad/error   SOSCFStart      ....  0.003300
 Level Shifting         CNVShift        .... on
   Level shift para.    LevelShift      ....    0.2500
   Turn off err/grad.   ShiftErr        ....    0.0010
 Zerner damping         CNVZerner       .... off
 Static damping         CNVDamp         .... on
   Fraction old density DampFac         ....    0.7000
   Max. Damping (<1)    DampMax         ....    0.9800
   Min. Damping (>=0)   DampMin         ....    0.0000
   Turn off err/grad.   DampErr         ....    0.1000
 Fernandez-Rico         CNVRico         .... off

SCF Procedure:
 Maximum # iterations   MaxIter         ....   125
 SCF integral mode      SCFMode         .... Direct
   Integral package                     .... SHARK and LIBINT hybrid scheme
 Reset frequency        DirectResetFreq ....    20
 Integral Threshold     Thresh          ....  2.500e-11 Eh
 Primitive CutOff       TCut            ....  2.500e-12 Eh

Convergence Tolerance:
 Convergence Check Mode ConvCheckMode   .... Total+1el-Energy
 Convergence forced     ConvForced      .... 0
 Energy Change          TolE            ....  1.000e-08 Eh
 1-El. energy change                    ....  1.000e-05 Eh
 Orbital Gradient       TolG            ....  1.000e-05
 Orbital Rotation angle TolX            ....  1.000e-05
 DIIS Error             TolErr          ....  5.000e-07


Diagonalization of the overlap matrix:
Smallest eigenvalue                        ... 7.148e-04
Time for diagonalization                   ...    0.001 sec
Threshold for overlap eigenvalues          ... 1.000e-08
Number of eigenvalues below threshold      ... 0
Time for construction of square roots      ...    0.001 sec
Total time needed                          ...    0.003 sec

Time for model grid setup =    0.022 sec

------------------------------
INITIAL GUESS: MODEL POTENTIAL
------------------------------
Loading Hartree-Fock densities                     ... done
Calculating cut-offs                               ... done
Initializing the effective Hamiltonian             ... done
Setting up the integral package (SHARK)            ... done
Starting the Coulomb interaction                   ... done (   0.0 sec)
Reading the grid                                   ... done
Mapping shells                                     ... done
Starting the XC term evaluation                    ... done (   0.0 sec)
  promolecular density results
     # of electrons  =     23.999400865
     EX              =    -19.456417577
     EC              =     -0.764440507
     EX+EC           =    -20.220858085
Transforming the Hamiltonian                       ... done (   0.0 sec)
Diagonalizing the Hamiltonian                      ... done (   0.0 sec)
Back transforming the eigenvectors                 ... done (   0.0 sec)
Now organizing SCF variables                       ... done
                      ------------------
                      INITIAL GUESS DONE (   0.0 sec)
                      ------------------
-------------------
DFT GRID GENERATION
-------------------

General Integration Accuracy     IntAcc      ... 4.388
Radial Grid Type                 RadialGrid  ... OptM3 with GC (2021)
Angular Grid (max. ang.)         AngularGrid ... 4 (Lebedev-302)
Angular grid pruning method      GridPruning ... 4 (adaptive)
Weight generation scheme         WeightScheme... Becke
Basis function cutoff            BFCut       ... 1.0000e-11
Integration weight cutoff        WCut        ... 1.0000e-14
Angular grids for H and He will be reduced by one unit
Partially contracted basis set               ... off
Rotationally invariant grid construction     ... off

Total number of grid points                  ...    31323
Total number of batches                      ...      494
Average number of points per batch           ...       63
Average number of grid points per atom       ...     4475
Time for grid setup =    0.109 sec

--------------------
COSX GRID GENERATION
--------------------

GRIDX 1
-------
General Integration Accuracy     IntAcc      ... 3.816
Radial Grid Type                 RadialGrid  ... OptM3 with GC (2021)
Angular Grid (max. ang.)         AngularGrid ... 1 (Lebedev-50)
Angular grid pruning method      GridPruning ... 4 (adaptive)
Weight generation scheme         WeightScheme... Becke
Basis function cutoff            BFCut       ... 1.0000e-11
Integration weight cutoff        WCut        ... 1.0000e-14
Angular grids for H and He will be reduced by one unit
Partially contracted basis set               ... on
Rotationally invariant grid construction     ... off

Total number of grid points                  ...     4033
Total number of batches                      ...       67
Average number of points per batch           ...       60
Average number of grid points per atom       ...      576
UseSFitting                                  ... on

GRIDX 2
-------
General Integration Accuracy     IntAcc      ... 4.020
Radial Grid Type                 RadialGrid  ... OptM3 with GC (2021)
Angular Grid (max. ang.)         AngularGrid ... 2 (Lebedev-110)
Angular grid pruning method      GridPruning ... 4 (adaptive)
Weight generation scheme         WeightScheme... Becke
Basis function cutoff            BFCut       ... 1.0000e-11
Integration weight cutoff        WCut        ... 1.0000e-14
Angular grids for H and He will be reduced by one unit
Partially contracted basis set               ... on
Rotationally invariant grid construction     ... off

Total number of grid points                  ...     8710
Total number of batches                      ...      140
Average number of points per batch           ...       62
Average number of grid points per atom       ...     1244
UseSFitting                                  ... on

GRIDX 3
-------
General Integration Accuracy     IntAcc      ... 4.338
Radial Grid Type                 RadialGrid  ... OptM3 with GC (2021)
Angular Grid (max. ang.)         AngularGrid ... 3 (Lebedev-194)
Angular grid pruning method      GridPruning ... 4 (adaptive)
Weight generation scheme         WeightScheme... Becke
Basis function cutoff            BFCut       ... 1.0000e-11
Integration weight cutoff        WCut        ... 1.0000e-14
Angular grids for H and He will be reduced by one unit
Partially contracted basis set               ... on
Rotationally invariant grid construction     ... off

Total number of grid points                  ...    19263
Total number of batches                      ...      304
Average number of points per batch           ...       63
Average number of grid points per atom       ...     2752
UseSFitting                                  ... on

Time for X-Grid setup             =    0.073 sec

--------------
SCF ITERATIONS
--------------
ITER       Energy         Delta-E        Max-DP      RMS-DP      [F,P]     Damp
               ***  Starting incremental Fock matrix formation  ***
  0   -153.4159855690   0.000000000000 0.06923563  0.00185387  0.2847897 0.7000
  1   -153.4784514031  -0.062465834200 0.04007824  0.00109100  0.0795071 0.7000
                               ***Turning on DIIS***
  2   -153.4916052575  -0.013153854316 0.03704563  0.00145546  0.0491378 0.0000
  3   -153.5306205098  -0.039015252305 0.02251740  0.00087892  0.0360976 0.0000
  4   -153.5326330175  -0.002012507717 0.00944133  0.00029387  0.0435422 0.0000
  5   -153.5347174428  -0.002084425275 0.00254383  0.00008054  0.0075689 0.0000
  6   -153.5348031765  -0.000085733725 0.00118506  0.00003391  0.0038193 0.0000
                      *** Initiating the SOSCF procedure ***
                           *** Shutting down DIIS ***
                      *** Re-Reading the Fockian *** 
                      *** Removing any level shift *** 
ITER      Energy       Delta-E        Grad      Rot      Max-DP    RMS-DP
  7   -153.53481884  -0.0000156590  0.000308  0.000308  0.000675  0.000030
               *** Restarting incremental Fock matrix formation ***
  8   -153.53480873   0.0000101078  0.000355  0.001999  0.001049  0.000030
  9   -153.53480140   0.0000073240  0.001276  0.001576  0.000940  0.000022
 10   -153.53480986  -0.0000084586  0.000069  0.000304  0.000118  0.000006
 11   -153.53480987  -0.0000000045  0.000085  0.000123  0.000065  0.000003
 12   -153.53480997  -0.0000001067  0.000011  0.000099  0.000033  0.000001
 13   -153.53480998  -0.0000000032  0.000003  0.000046  0.000016  0.000001
                  ***Gradient check signals convergence***
              ***Rediagonalizing the Fockian in SOSCF/NRSCF***

               *****************************************************
               *                     SUCCESS                       *
               *           SCF CONVERGED AFTER  14 CYCLES          *
               *****************************************************

Old exchange energy                            =     -4.961887640 Eh
New exchange energy                            =     -4.961890986 Eh
Exchange energy change after final integration =     -0.000003345 Eh
Total energy after final integration           =   -153.534813323 Eh
Final COS-X integration done in                =     0.256 sec

----------------
TOTAL SCF ENERGY
----------------

Total Energy       :         -153.53481332 Eh           -4177.89467 eV

Components:
Nuclear Repulsion  :           68.31179348 Eh            1858.85840 eV
Electronic Energy  :         -221.84660681 Eh           -6036.75307 eV
One Electron Energy:         -343.36853732 Eh           -9343.53292 eV
Two Electron Energy:          121.52193052 Eh            3306.77984 eV
Max COSX asymmetry :            0.00000143 Eh               0.00004 eV

Virial components:
Potential Energy   :         -306.38121395 Eh           -8337.05668 eV
Kinetic Energy     :          152.84640063 Eh            4159.16201 eV
Virial Ratio       :            2.00450395


DFT components:
N(Alpha)           :       12.000006853639 electrons
N(Beta)            :       12.000006853639 electrons
N(Total)           :       24.000013707279 electrons
E(X)               :      -14.896592458803 Eh       
E(C)               :       -0.770914775201 Eh       
E(XC)              :      -15.667507234004 Eh       
DFET-embed. en.    :        0.000000000000 Eh       

---------------
SCF CONVERGENCE
---------------

  Last Energy change         ...   -4.5264e-10  Tolerance :   1.0000e-08
  Last MAX-Density change    ...    7.7716e-16  Tolerance :   1.0000e-07
  Last RMS-Density change    ...    2.1648e-17  Tolerance :   5.0000e-09
  Last Orbital Gradient      ...    1.7807e-06  Tolerance :   1.0000e-05
  Last Orbital Rotation      ...    4.0890e-06  Tolerance :   1.0000e-05

             **** THE GBW FILE WAS UPDATED (ox_gs_D_orca0004.gbw) ****
             **** DENSITY ox_gs_D_orca0004.scfp WAS UPDATED ****
             **** ENERGY FILE WAS UPDATED (ox_gs_D_orca0004.en.tmp) ****
             **** THE GBW FILE WAS UPDATED (ox_gs_D_orca0004.gbw) ****
             **** DENSITY ox_gs_D_orca0004.scfp WAS UPDATED ****
----------------
ORBITAL ENERGIES
----------------

  NO   OCC          E(Eh)            E(eV) 
   0   2.0000     -19.212085      -522.7874 
   1   2.0000     -10.308447      -280.5071 
   2   2.0000     -10.271607      -279.5046 
   3   2.0000      -0.979126       -26.6434 
   4   2.0000      -0.763513       -20.7762 
   5   2.0000      -0.656507       -17.8645 
   6   2.0000      -0.526811       -14.3353 
   7   2.0000      -0.482096       -13.1185 
   8   2.0000      -0.424803       -11.5595 
   9   2.0000      -0.383199       -10.4274 
  10   2.0000      -0.290204        -7.8969 
  11   2.0000      -0.268541        -7.3074 
  12   0.0000      -0.112418        -3.0590 
  13   0.0000       0.056514         1.5378 
  14   0.0000       0.080960         2.2030 
  15   0.0000       0.094158         2.5622 
  16   0.0000       0.107106         2.9145 
  17   0.0000       0.151617         4.1257 
  18   0.0000       0.182305         4.9608 
  19   0.0000       0.185036         5.0351 
  20   0.0000       0.237838         6.4719 
  21   0.0000       0.262915         7.1543 
  22   0.0000       0.272540         7.4162 
  23   0.0000       0.307737         8.3739 
  24   0.0000       0.349978         9.5234 
  25   0.0000       0.381688        10.3862 
  26   0.0000       0.406334        11.0569 
  27   0.0000       0.425295        11.5729 
  28   0.0000       0.441601        12.0166 
  29   0.0000       0.492150        13.3921 
  30   0.0000       0.514594        14.0028 
  31   0.0000       0.530514        14.4360 
  32   0.0000       0.595857        16.2141 
  33   0.0000       0.625125        17.0105 
  34   0.0000       0.659160        17.9366 
  35   0.0000       0.732970        19.9451 
  36   0.0000       0.807985        21.9864 
  37   0.0000       0.863940        23.5090 
  38   0.0000       0.886676        24.1277 
  39   0.0000       0.903339        24.5811 
  40   0.0000       0.942481        25.6462 
  41   0.0000       1.023355        27.8469 
  42   0.0000       1.031647        28.0725 
  43   0.0000       1.059543        28.8316 
  44   0.0000       1.146815        31.2064 
  45   0.0000       1.318938        35.8901 
  46   0.0000       1.379706        37.5437 
  47   0.0000       1.447093        39.3774 
  48   0.0000       1.489803        40.5396 
  49   0.0000       1.528142        41.5829 
  50   0.0000       1.590116        43.2693 
  51   0.0000       1.603517        43.6339 
  52   0.0000       1.621052        44.1111 
  53   0.0000       1.698374        46.2151 
  54   0.0000       1.708208        46.4827 
  55   0.0000       1.789197        48.6865 
  56   0.0000       1.812830        49.3296 
  57   0.0000       1.858432        50.5705 
  58   0.0000       1.897644        51.6375 
  59   0.0000       1.907892        51.9164 
  60   0.0000       2.005975        54.5854 
  61   0.0000       2.076372        56.5010 
  62   0.0000       2.128152        57.9100 
  63   0.0000       2.190035        59.5939 
  64   0.0000       2.349995        63.9466 
  65   0.0000       2.358321        64.1732 
  66   0.0000       2.396476        65.2114 
  67   0.0000       2.469629        67.2020 
  68   0.0000       2.503077        68.1122 
  69   0.0000       2.532690        68.9180 
  70   0.0000       2.551260        69.4233 
  71   0.0000       2.647704        72.0477 
  72   0.0000       2.671132        72.6852 
  73   0.0000       2.748318        74.7855 
  74   0.0000       2.793409        76.0125 
  75   0.0000       2.802998        76.2734 
  76   0.0000       2.885084        78.5071 
  77   0.0000       2.898436        78.8705 
  78   0.0000       2.960261        80.5528 
  79   0.0000       2.986830        81.2758 
  80   0.0000       3.041041        82.7509 
  81   0.0000       3.077120        83.7327 
  82   0.0000       3.112977        84.7084 
  83   0.0000       3.147954        85.6602 
  84   0.0000       3.197593        87.0109 
  85   0.0000       3.212638        87.4203 
  86   0.0000       3.379516        91.9613 
  87   0.0000       3.404192        92.6328 
  88   0.0000       3.432443        93.4015 
  89   0.0000       3.499625        95.2296 
  90   0.0000       3.547951        96.5447 
  91   0.0000       3.701426       100.7209 
  92   0.0000       3.721624       101.2705 
  93   0.0000       3.782953       102.9394 
  94   0.0000       3.918740       106.6343 
  95   0.0000       3.990656       108.5913 
  96   0.0000       4.084296       111.1393 
  97   0.0000       4.364775       118.7716 
  98   0.0000       4.460739       121.3829 
  99   0.0000       4.575297       124.5002 
 100   0.0000       4.593061       124.9835 
 101   0.0000       4.838598       131.6649 
 102   0.0000       5.209805       141.7660 
 103   0.0000       5.250414       142.8710 
 104   0.0000       5.325171       144.9053 
 105   0.0000       5.331368       145.0739 
 106   0.0000       5.640105       153.4751 
 107   0.0000       5.681803       154.6097 
 108   0.0000       5.852514       159.2550 
 109   0.0000       6.358745       173.0303 
 110   0.0000       6.433069       175.0527 
 111   0.0000       6.732559       183.2022 
 112   0.0000       6.776098       184.3870 
 113   0.0000       6.990294       190.2156 
 114   0.0000      22.165397       603.1511 
 115   0.0000      22.402818       609.6117 
 116   0.0000      43.650462      1187.7894 

                    ********************************
                    * MULLIKEN POPULATION ANALYSIS *
                    ********************************

-----------------------
MULLIKEN ATOMIC CHARGES
-----------------------
   0 O :   -0.377555
   1 C :   -0.032863
   2 C :   -0.146253
   3 H :    0.104700
   4 H :    0.134186
   5 H :    0.155834
   6 H :    0.161952
Sum of atomic charges:   -0.0000000

--------------------------------
MULLIKEN REDUCED ORBITAL CHARGES
--------------------------------
  0 O s       :     3.921752  s :     3.921752
      pz      :     1.916981  p :     4.434403
      px      :     1.275296
      py      :     1.242126
      dz2     :     0.002929  d :     0.020387
      dxz     :     0.000237
      dyz     :     0.004144
      dx2y2   :     0.007451
      dxy     :     0.005626
      f0      :     0.000119  f :     0.001014
      f+1     :     0.000053
      f-1     :     0.000256
      f+2     :     0.000124
      f-2     :     0.000020
      f+3     :     0.000190
      f-3     :     0.000251
  1 C s       :     3.189719  s :     3.189719
      pz      :     1.061302  p :     2.701461
      px      :     0.910038
      py      :     0.730122
      dz2     :     0.011960  d :     0.132709
      dxz     :     0.015555
      dyz     :     0.040561
      dx2y2   :     0.022142
      dxy     :     0.042491
      f0      :     0.001582  f :     0.008975
      f+1     :     0.001115
      f-1     :     0.000871
      f+2     :     0.002202
      f-2     :     0.000166
      f+3     :     0.001972
      f-3     :     0.001067
  2 C s       :     3.294506  s :     3.294506
      pz      :     1.046108  p :     2.796520
      px      :     0.980791
      py      :     0.769621
      dz2     :     0.007836  d :     0.050554
      dxz     :     0.018206
      dyz     :     0.005504
      dx2y2   :     0.006238
      dxy     :     0.012770
      f0      :     0.000700  f :     0.004674
      f+1     :     0.001116
      f-1     :     0.000122
      f+2     :     0.000547
      f-2     :     0.000280
      f+3     :     0.000890
      f-3     :     0.001019
  3 H s       :     0.876793  s :     0.876793
      pz      :     0.010342  p :     0.018507
      px      :     0.004532
      py      :     0.003634
  4 H s       :     0.840970  s :     0.840970
      pz      :     0.010724  p :     0.024845
      px      :     0.007775
      py      :     0.006347
  5 H s       :     0.821561  s :     0.821561
      pz      :     0.011730  p :     0.022605
      px      :     0.006461
      py      :     0.004414
  6 H s       :     0.812574  s :     0.812574
      pz      :     0.012348  p :     0.025473
      px      :     0.007320
      py      :     0.005806


                     *******************************
                     * LOEWDIN POPULATION ANALYSIS *
                     *******************************

----------------------
LOEWDIN ATOMIC CHARGES
----------------------
   0 O :   -0.098758
   1 C :   -0.311009
   2 C :   -0.011205
   3 H :    0.135103
   4 H :    0.057112
   5 H :    0.135632
   6 H :    0.093124

-------------------------------
LOEWDIN REDUCED ORBITAL CHARGES
-------------------------------
  0 O s       :     3.613853  s :     3.613853
      pz      :     1.856952  p :     4.438584
      px      :     1.236250
      py      :     1.345382
      dz2     :     0.006244  d :     0.043698
      dxz     :     0.000316
      dyz     :     0.009927
      dx2y2   :     0.015664
      dxy     :     0.011547
      f0      :     0.000242  f :     0.002623
      f+1     :     0.000072
      f-1     :     0.000482
      f+2     :     0.000482
      f-2     :     0.000027
      f+3     :     0.000711
      f-3     :     0.000607
  1 C s       :     2.828918  s :     2.828918
      pz      :     1.075443  p :     2.921849
      px      :     1.024747
      py      :     0.821659
      dz2     :     0.065680  d :     0.501976
      dxz     :     0.079489
      dyz     :     0.109565
      dx2y2   :     0.120248
      dxy     :     0.126994
      f0      :     0.008385  f :     0.058265
      f+1     :     0.005078
      f-1     :     0.007096
      f+2     :     0.011607
      f-2     :     0.001795
      f+3     :     0.011793
      f-3     :     0.012511
  2 C s       :     2.901893  s :     2.901893
      pz      :     1.087653  p :     2.879664
      px      :     1.076574
      py      :     0.715436
      dz2     :     0.036241  d :     0.207813
      dxz     :     0.083718
      dyz     :     0.013425
      dx2y2   :     0.036780
      dxy     :     0.037649
      f0      :     0.003654  f :     0.021836
      f+1     :     0.003508
      f-1     :     0.001326
      f+2     :     0.003031
      f-2     :     0.001614
      f+3     :     0.004053
      f-3     :     0.004649
  3 H s       :     0.814819  s :     0.814819
      pz      :     0.028293  p :     0.050078
      px      :     0.012161
      py      :     0.009624
  4 H s       :     0.848578  s :     0.848578
      pz      :     0.043161  p :     0.094309
      px      :     0.028825
      py      :     0.022324
  5 H s       :     0.799333  s :     0.799333
      pz      :     0.034504  p :     0.065034
      px      :     0.018142
      py      :     0.012388
  6 H s       :     0.822685  s :     0.822685
      pz      :     0.042289  p :     0.084191
      px      :     0.023591
      py      :     0.018311


                      *****************************
                      * MAYER POPULATION ANALYSIS *
                      *****************************

  NA   - Mulliken gross atomic population
  ZA   - Total nuclear charge
  QA   - Mulliken gross atomic charge
  VA   - Mayer's total valence
  BVA  - Mayer's bonded valence
  FA   - Mayer's free valence

  ATOM       NA         ZA         QA         VA         BVA        FA
  0 O      8.3776     8.0000    -0.3776     1.8596     1.8596    -0.0000
  1 C      6.0329     6.0000    -0.0329     3.9944     3.9944    -0.0000
  2 C      6.1463     6.0000    -0.1463     3.8319     3.8319    -0.0000
  3 H      0.8953     1.0000     0.1047     0.9672     0.9672    -0.0000
  4 H      0.8658     1.0000     0.1342     0.9575     0.9575     0.0000
  5 H      0.8442     1.0000     0.1558     0.9624     0.9624     0.0000
  6 H      0.8380     1.0000     0.1620     0.9586     0.9586     0.0000

  Mayer bond orders larger than 0.100000
B(  0-O ,  1-C ) :   0.9915 B(  0-O ,  2-C ) :   0.8674 B(  1-C ,  2-C ) :   1.0616 
B(  1-C ,  3-H ) :   0.9660 B(  1-C ,  4-H ) :   0.9717 B(  2-C ,  5-H ) :   0.9521 
B(  2-C ,  6-H ) :   0.9499 

-------
TIMINGS
-------

Total SCF time: 0 days 0 hours 0 min 3 sec 

Total time                  ....       3.073 sec
Sum of individual times     ....       2.769 sec  ( 90.1%)

Fock matrix formation       ....       2.496 sec  ( 81.2%)
  Split-RI-J                ....       0.264 sec  ( 10.6% of F)
  Chain of spheres X        ....       1.728 sec  ( 69.2% of F)
  XC integration            ....       0.476 sec  ( 19.1% of F)
    Basis function eval.    ....       0.133 sec  ( 27.9% of XC)
    Density eval.           ....       0.098 sec  ( 20.5% of XC)
    XC-Functional eval.     ....       0.028 sec  (  5.9% of XC)
    XC-Potential eval.      ....       0.164 sec  ( 34.5% of XC)
Diagonalization             ....       0.018 sec  (  0.6%)
Density matrix formation    ....       0.002 sec  (  0.1%)
Population analysis         ....       0.003 sec  (  0.1%)
Initial guess               ....       0.016 sec  (  0.5%)
Orbital Transformation      ....       0.000 sec  (  0.0%)
Orbital Orthonormalization  ....       0.000 sec  (  0.0%)
DIIS solution               ....       0.015 sec  (  0.5%)
SOSCF solution              ....       0.015 sec  (  0.5%)
Grid generation             ....       0.203 sec  (  6.6%)

Maximum memory used throughout the entire SCF-calculation: 61.0 MB


-------------------------------------------------------------------------------
                          DFT DISPERSION CORRECTION                            
                                                                               
                              DFTD3 V3.1  Rev 1                                
                          USING Becke-Johnson damping                          
-------------------------------------------------------------------------------
The PBE0 functional is recognized
Active option DFTDOPT                   ...         4   

molecular C6(AA) [au] = 393.774260 


            DFT-D V3
 parameters
 s6 scaling factor         :     1.0000 
 a1 scaling factor         :     0.4145 
 s8 scaling factor         :     1.2177 
 a2 scaling factor         :     4.8593 
 ad hoc parameters k1-k3   :    16.0000     1.3333    -4.0000 

 Edisp/kcal,au: -1.663332123088  -0.002650688180 
 E6   /kcal   :  -1.086131033 
 E8   /kcal   :  -0.577201090 
 % E8         :  34.701493569 

-------------------------   ----------------
Dispersion correction           -0.002650688
-------------------------   ----------------


-------------------------   --------------------
FINAL SINGLE POINT ENERGY      -153.537464010787
-------------------------   --------------------



           ************************************************************
           *        Program running with 8 parallel MPI-processes     *
           *              working on a common directory               *
           ************************************************************
------------------------------------------------------------------------------
                         ORCA SCF GRADIENT CALCULATION
------------------------------------------------------------------------------

 ... reading COSX grid (gridx3)
Gradient of the Kohn-Sham DFT energy:
Kohn-Sham wavefunction type      ... RKS
Hartree-Fock exchange scaling    ...    0.250
Number of operators              ...    1
Number of atoms                  ...    7
Basis set dimensions             ...  117
Integral neglect threshold       ... 2.5e-11
Integral primitive cutoff        ... 2.5e-12
SHARK Integral package           ... ON

Nuc. rep. gradient       (SHARK) ... done (  0.0 sec)
HCore & Overlap gradient (SHARK) ... done (  0.0 sec)
RI-J gradient            (SHARK) ... done (  0.1 sec)
COSX-gradient                    ... done (  0.3 sec)
Exchange-correlation gradient    ... done
Dispersion correction            ... done

------------------
CARTESIAN GRADIENT
------------------

   1   O   :   -0.067978663    0.059710526    0.010152043
   2   C   :   -0.094285899   -0.086412393   -0.232816825
   3   C   :    0.127634023   -0.018830385    0.106265055
   4   H   :   -0.006492367    0.008500946    0.041829464
   5   H   :    0.081990749    0.057240093    0.161224726
   6   H   :   -0.006089240   -0.022302712   -0.009771673
   7   H   :   -0.034830368    0.002073744   -0.076914530

Difference to translation invariance:
           :   -0.0000517656   -0.0000201815   -0.0000317413

Difference to rotation invariance:
           :    0.0000430954   -0.0000282870    0.0003820185

Norm of the cartesian gradient     ...    0.3903935513
RMS gradient                       ...    0.0851908571
MAX gradient                       ...    0.2328168254

-------
TIMINGS
-------

Total SCF gradient time            ...        0.678 sec

One electron gradient       ....       0.010 sec  (  1.4%)
RI-J Coulomb gradient       ....       0.073 sec  ( 10.7%)
COSX gradient               ....       0.305 sec  ( 45.0%)
XC gradient                 ....       0.150 sec  ( 22.2%)

Maximum memory used throughout the entire SCFGRAD-calculation: 35.9 MB

                            ***************************************
                            *     ORCA property calculations      *
                            ***************************************

                                    ---------------------
                                    Active property flags
                                    ---------------------
   (+) Dipole Moment


------------------------------------------------------------------------------
                       ORCA ELECTRIC PROPERTIES CALCULATION
------------------------------------------------------------------------------

Dipole Moment Calculation                       ... on
Quadrupole Moment Calculation                   ... off
Polarizability Calculation                      ... off
GBWName                                         ... ox_gs_D_orca0004.gbw
Electron density                                ... ox_gs_D_orca0004.scfp
The origin for moment calculation is the CENTER OF MASS  = (-0.565304,  0.084984 -0.042814)

-------------
DIPOLE MOMENT
-------------
                                X             Y             Z
Electronic contribution:     -0.53059       1.53265      -0.12123
Nuclear contribution   :      1.06331      -2.76313       0.02368
                        -----------------------------------------
Total Dipole Moment    :      0.53272      -1.23047      -0.09755
                        -----------------------------------------
Magnitude (a.u.)       :      1.34438
Magnitude (Debye)      :      3.41715



--------------------
Rotational spectrum 
--------------------
 
Rotational constants in cm-1:     0.990355     0.436125     0.344781 
Rotational constants in MHz : 29690.098622 13074.704146 10336.273828 

 Dipole components along the rotational axes: 
x,y,z [a.u.] :     1.202904    -0.599992    -0.020065 
x,y,z [Debye]:     3.057538    -1.525058    -0.051001 

 

Timings for individual modules:

Sum of individual times         ...        4.407 sec (=   0.073 min)
GTO integral calculation        ...        0.291 sec (=   0.005 min)   6.6 %
SCF iterations                  ...        3.242 sec (=   0.054 min)  73.6 %
SCF Gradient evaluation         ...        0.875 sec (=   0.015 min)  19.8 %
                             ****ORCA TERMINATED NORMALLY****
TOTAL RUN TIME: 0 days 0 hours 0 minutes 4 seconds 721 msec
