
                                 *****************
                                 * O   R   C   A *
                                 *****************

                                            #,                                       
                                            ###                                      
                                            ####                                     
                                            #####                                    
                                            ######                                   
                                           ########,                                 
                                     ,,################,,,,,                         
                               ,,#################################,,                 
                          ,,##########################################,,             
                       ,#########################################, ''#####,          
                    ,#############################################,,   '####,        
                  ,##################################################,,,,####,       
                ,###########''''           ''''###############################       
              ,#####''   ,,,,##########,,,,          '''####'''          '####       
            ,##' ,,,,###########################,,,                        '##       
           ' ,,###''''                  '''############,,,                           
         ,,##''                                '''############,,,,        ,,,,,,###''
      ,#''                                            '''#######################'''  
     '                                                          ''''####''''         
             ,#######,   #######,   ,#######,      ##                                
            ,#'     '#,  ##    ##  ,#'     '#,    #''#        ######   ,####,        
            ##       ##  ##   ,#'  ##            #'  '#       #        #'  '#        
            ##       ##  #######   ##           ,######,      #####,   #    #        
            '#,     ,#'  ##    ##  '#,     ,#' ,#      #,         ##   #,  ,#        
             '#######'   ##     ##  '#######'  #'      '#     #####' # '####'        



                  #######################################################
                  #                        -***-                        #
                  #          Department of theory and spectroscopy      #
                  #    Directorship and core code : Frank Neese         #
                  #        Max Planck Institute fuer Kohlenforschung    #
                  #                Kaiser Wilhelm Platz 1               #
                  #                 D-45470 Muelheim/Ruhr               #
                  #                      Germany                        #
                  #                                                     #
                  #                  All rights reserved                #
                  #                        -***-                        #
                  #######################################################


                         Program Version 5.0.2 -  RELEASE  -


 With contributions from (in alphabetic order):
   Daniel Aravena         : Magnetic Suceptibility
   Michael Atanasov       : Ab Initio Ligand Field Theory (pilot matlab implementation)
   Alexander A. Auer      : GIAO ZORA, VPT2 properties, NMR spectrum
   Ute Becker             : Parallelization
   Giovanni Bistoni       : ED, misc. LED, open-shell LED, HFLD
   Martin Brehm           : Molecular dynamics
   Dmytro Bykov           : SCF Hessian
   Vijay G. Chilkuri      : MRCI spin determinant printing, contributions to CSF-ICE
   Dipayan Datta          : RHF DLPNO-CCSD density
   Achintya Kumar Dutta   : EOM-CC, STEOM-CC
   Dmitry Ganyushin       : Spin-Orbit,Spin-Spin,Magnetic field MRCI
   Miquel Garcia          : C-PCM and meta-GGA Hessian, CC/C-PCM, Gaussian charge scheme
   Yang Guo               : DLPNO-NEVPT2, F12-NEVPT2, CIM, IAO-localization
   Andreas Hansen         : Spin unrestricted coupled pair/coupled cluster methods
   Benjamin Helmich-Paris : MC-RPA, TRAH-SCF, COSX integrals
   Lee Huntington         : MR-EOM, pCC
   Robert Izsak           : Overlap fitted RIJCOSX, COSX-SCS-MP3, EOM
   Marcus Kettner         : VPT2
   Christian Kollmar      : KDIIS, OOCD, Brueckner-CCSD(T), CCSD density, CASPT2, CASPT2-K
   Simone Kossmann        : Meta GGA functionals, TD-DFT gradient, OOMP2, MP2 Hessian
   Martin Krupicka        : Initial AUTO-CI
   Lucas Lang             : DCDCAS
   Marvin Lechner         : AUTO-CI (C++ implementation), FIC-MRCC
   Dagmar Lenk            : GEPOL surface, SMD
   Dimitrios Liakos       : Extrapolation schemes; Compound Job, initial MDCI parallelization
   Dimitrios Manganas     : Further ROCIS development; embedding schemes
   Dimitrios Pantazis     : SARC Basis sets
   Anastasios Papadopoulos: AUTO-CI, single reference methods and gradients
   Taras Petrenko         : DFT Hessian,TD-DFT gradient, ASA, ECA, R-Raman, ABS, FL, XAS/XES, NRVS
   Peter Pinski           : DLPNO-MP2, DLPNO-MP2 Gradient
   Christoph Reimann      : Effective Core Potentials
   Marius Retegan         : Local ZFS, SOC
   Christoph Riplinger    : Optimizer, TS searches, QM/MM, DLPNO-CCSD(T), (RO)-DLPNO pert. Triples
   Tobias Risthaus        : Range-separated hybrids, TD-DFT gradient, RPA, STAB
   Michael Roemelt        : Original ROCIS implementation
   Masaaki Saitow         : Open-shell DLPNO-CCSD energy and density
   Barbara Sandhoefer     : DKH picture change effects
   Avijit Sen             : IP-ROCIS
   Kantharuban Sivalingam : CASSCF convergence, NEVPT2, FIC-MRCI
   Bernardo de Souza      : ESD, SOC TD-DFT
   Georgi Stoychev        : AutoAux, RI-MP2 NMR, DLPNO-MP2 response
   Willem Van den Heuvel  : Paramagnetic NMR
   Boris Wezisla          : Elementary symmetry handling
   Frank Wennmohs         : Technical directorship


 We gratefully acknowledge several colleagues who have allowed us to
 interface, adapt or use parts of their codes:
   Stefan Grimme, W. Hujo, H. Kruse, P. Pracht,  : VdW corrections, initial TS optimization,
                  C. Bannwarth, S. Ehlert          DFT functionals, gCP, sTDA/sTD-DF
   Ed Valeev, F. Pavosevic, A. Kumar             : LibInt (2-el integral package), F12 methods
   Garnet Chan, S. Sharma, J. Yang, R. Olivares  : DMRG
   Ulf Ekstrom                                   : XCFun DFT Library
   Mihaly Kallay                                 : mrcc  (arbitrary order and MRCC methods)
   Jiri Pittner, Ondrej Demel                    : Mk-CCSD
   Frank Weinhold                                : gennbo (NPA and NBO analysis)
   Christopher J. Cramer and Donald G. Truhlar   : smd solvation model
   Lars Goerigk                                  : TD-DFT with DH, B97 family of functionals
   V. Asgeirsson, H. Jonsson                     : NEB implementation
   FAccTs GmbH                                   : IRC, NEB, NEB-TS, DLPNO-Multilevel, CI-OPT
                                                   MM, QMMM, 2- and 3-layer-ONIOM, Crystal-QMMM,
                                                   LR-CPCM, SF, NACMEs, symmetry and pop. for TD-DFT,
                                                   nearIR, NL-DFT gradient (VV10), updates on ESD,
                                                   ML-optimized integration grids
   S Lehtola, MJT Oliveira, MAL Marques          : LibXC Library
   Liviu Ungur et al                             : ANISO software


 Your calculation uses the libint2 library for the computation of 2-el integrals
 For citations please refer to: http://libint.valeyev.net

 Your ORCA version has been built with support for libXC version: 5.1.0
 For citations please refer to: https://tddft.org/programs/libxc/

 This ORCA versions uses:
   CBLAS   interface :  Fast vector & matrix operations
   LAPACKE interface :  Fast linear algebra routines
   SCALAPACK package :  Parallel linear algebra routines
   Shared memory     :  Shared parallel matrices
   BLAS/LAPACK       :  OpenBLAS 0.3.15  USE64BITINT DYNAMIC_ARCH NO_AFFINITY SkylakeX SINGLE_THREADED
        Core in use  :  SkylakeX
   Copyright (c) 2011-2014, The OpenBLAS Project


Your calculation utilizes the atom-pairwise dispersion correction
with the Becke-Johnson damping scheme (D3BJ)
Cite in your paper:
S.Grimme, S.Ehrlich, L.Goerigk, J Comput Chem, (2011), 32, 1456–1465 
S.Grimme, J.Antony, S.Ehrlich and H.Krieg, J.Chem.Phys., 132, (2010), 154104 
   

================================================================================

----- Orbital basis set information -----
Your calculation utilizes the basis: def2-TZVP
   F. Weigend and R. Ahlrichs, Phys. Chem. Chem. Phys. 7, 3297 (2005).

----- AuxJ basis set information -----
Your calculation utilizes the auxiliary basis: def2/J
   F. Weigend, Phys. Chem. Chem. Phys. 8, 1057 (2006).

================================================================================
                                        WARNINGS
                       Please study these warnings very carefully!
================================================================================


INFO   : the flag for use of the SHARK integral package has been found!

================================================================================
                                       INPUT FILE
================================================================================
NAME = ox_gs_C_orca0004.inp
|  1> ! engrad PBE0 D3BJ def2-TZVP  
|  2> %pal nprocs 8 end
|  3> %maxcore 3000
|  4>  
|  5> *xyz 0 1 
|  6> O   -0.3423053424018332 1.0109990898191321 -0.01061485129354744
|  7> C   -0.6662585046233911 -0.41008681102337413 0.06609149412078952
|  8> C   0.6618632653440731 -0.38542887330127806 -0.05996564737121002
|  9> H   -1.1363951113240653 -0.5876127529516928 1.0069443569928629
| 10> H   -1.2615634774573103 -0.6501942260010204 -0.8388473936894718
| 11> H   1.2635729060512526 -0.6318852477294716 -0.8645139916780589
| 12> H   1.2759287396431334 -0.6824841214520915 0.9995630773267646
| 13> *
| 14> 
| 15>                          ****END OF INPUT****
================================================================================

                     *******************************
                     * Energy+Gradient Calculation *
                     *******************************

---------------------------------
CARTESIAN COORDINATES (ANGSTROEM)
---------------------------------
  O     -0.342305    1.010999   -0.010615
  C     -0.666259   -0.410087    0.066091
  C      0.661863   -0.385429   -0.059966
  H     -1.136395   -0.587613    1.006944
  H     -1.261563   -0.650194   -0.838847
  H      1.263573   -0.631885   -0.864514
  H      1.275929   -0.682484    0.999563

----------------------------
CARTESIAN COORDINATES (A.U.)
----------------------------
  NO LB      ZA    FRAG     MASS         X           Y           Z
   0 O     8.0000    0    15.999   -0.646863    1.910511   -0.020059
   1 C     6.0000    0    12.011   -1.259046   -0.774952    0.124895
   2 C     6.0000    0    12.011    1.250740   -0.728355   -0.113319
   3 H     1.0000    0     1.008   -2.147476   -1.110427    1.902849
   4 H     1.0000    0     1.008   -2.384009   -1.228689   -1.585192
   5 H     1.0000    0     1.008    2.387807   -1.194090   -1.633695
   6 H     1.0000    0     1.008    2.411156   -1.289708    1.888900

--------------------------------
INTERNAL COORDINATES (ANGSTROEM)
--------------------------------
 O      0   0   0     0.000000000000     0.00000000     0.00000000
 C      1   0   0     1.459559746058     0.00000000     0.00000000
 C      2   1   0     1.334318497464    75.88437263     0.00000000
 H      2   1   3     1.066652707582   107.83214407   119.20260578
 H      2   1   3     1.109483651110   106.67451958   245.10806228
 H      3   2   1     1.034453128249   130.39412700   252.66823403
 H      3   2   1     1.260126718088   113.65641501   107.24906342

---------------------------
INTERNAL COORDINATES (A.U.)
---------------------------
 O      0   0   0     0.000000000000     0.00000000     0.00000000
 C      1   0   0     2.758168196146     0.00000000     0.00000000
 C      2   1   0     2.521496535633    75.88437263     0.00000000
 H      2   1   3     2.015681497336   107.83214407   119.20260578
 H      2   1   3     2.096620250660   106.67451958   245.10806228
 H      3   2   1     1.954833110768   130.39412700   252.66823403
 H      3   2   1     2.381294391224   113.65641501   107.24906342

---------------------
BASIS SET INFORMATION
---------------------
There are 3 groups of distinct atoms

 Group   1 Type O   : 11s6p2d1f contracted to 5s3p2d1f pattern {62111/411/11/1}
 Group   2 Type C   : 11s6p2d1f contracted to 5s3p2d1f pattern {62111/411/11/1}
 Group   3 Type H   : 5s1p contracted to 3s1p pattern {311/1}

Atom   0O    basis set group =>   1
Atom   1C    basis set group =>   2
Atom   2C    basis set group =>   2
Atom   3H    basis set group =>   3
Atom   4H    basis set group =>   3
Atom   5H    basis set group =>   3
Atom   6H    basis set group =>   3
---------------------------------
AUXILIARY/J BASIS SET INFORMATION
---------------------------------
There are 3 groups of distinct atoms

 Group   1 Type O   : 12s5p4d2f1g contracted to 6s4p3d1f1g pattern {711111/2111/211/2/1}
 Group   2 Type C   : 12s5p4d2f1g contracted to 6s4p3d1f1g pattern {711111/2111/211/2/1}
 Group   3 Type H   : 5s2p1d contracted to 3s1p1d pattern {311/2/1}

Atom   0O    basis set group =>   1
Atom   1C    basis set group =>   2
Atom   2C    basis set group =>   2
Atom   3H    basis set group =>   3
Atom   4H    basis set group =>   3
Atom   5H    basis set group =>   3
Atom   6H    basis set group =>   3


           ************************************************************
           *        Program running with 8 parallel MPI-processes     *
           *              working on a common directory               *
           ************************************************************
------------------------------------------------------------------------------
                           ORCA GTO INTEGRAL CALCULATION
                           -- RI-GTO INTEGRALS CHOSEN --
------------------------------------------------------------------------------
------------------------------------------------------------------------------
                   ___                                                        
                  /   \      - P O W E R E D   B Y -                         
                 /     \                                                     
                 |  |  |   _    _      __       _____    __    __             
                 |  |  |  | |  | |    /  \     |  _  \  |  |  /  |          
                  \  \/   | |  | |   /    \    | | | |  |  | /  /          
                 / \  \   | |__| |  /  /\  \   | |_| |  |  |/  /          
                |  |  |   |  __  | /  /__\  \  |    /   |      \           
                |  |  |   | |  | | |   __   |  |    \   |  |\   \          
                \     /   | |  | | |  |  |  |  | |\  \  |  | \   \       
                 \___/    |_|  |_| |__|  |__|  |_| \__\ |__|  \__/        
                                                                              
                      - O R C A' S   B I G   F R I E N D -                    
                                      &                                       
                       - I N T E G R A L  F E E D E R -                       
                                                                              
 v1 FN, 2020, v2 2021                                                         
------------------------------------------------------------------------------


Reading SHARK input file ox_gs_C_orca0004.SHARKINP.tmp ... ok
----------------------
SHARK INTEGRAL PACKAGE
----------------------

Number of atoms                             ...      7
Number of basis functions                   ...    117
Number of shells                            ...     49
Maximum angular momentum                    ...      3
Integral batch strategy                     ... SHARK/LIBINT Hybrid
RI-J (if used) integral strategy            ... SPLIT-RIJ (Revised 2003 algorithm where possible)
Printlevel                                  ...      1
Contraction scheme used                     ... SEGMENTED contraction
Coulomb Range Separation                    ... NOT USED
Exchange Range Separation                   ... NOT USED
Finite Nucleus Model                        ... NOT USED
Auxiliary Coulomb fitting basis             ... AVAILABLE
   # of basis functions in Aux-J            ...    191
   # of shells in Aux-J                     ...     65
   Maximum angular momentum in Aux-J        ...      4
Auxiliary J/K fitting basis                 ... NOT available
Auxiliary Correlation fitting basis         ... NOT available
Auxiliary 'external' fitting basis          ... NOT available
Integral threshold                          ...     2.500000e-11
Primitive cut-off                           ...     2.500000e-12
Primitive pair pre-selection threshold      ...     2.500000e-12

Calculating pre-screening integrals         ... done (  0.0 sec) Dimension = 49
Organizing shell pair data                  ... done (  0.0 sec)
Shell pair information
Total number of shell pairs                 ...      1225
Shell pairs after pre-screening             ...      1219
Total number of primitive shell pairs       ...      3648
Primitive shell pairs kept                  ...      3135
          la=0 lb=0:    372 shell pairs
          la=1 lb=0:    351 shell pairs
          la=1 lb=1:     91 shell pairs
          la=2 lb=0:    162 shell pairs
          la=2 lb=1:     78 shell pairs
          la=2 lb=2:     21 shell pairs
          la=3 lb=0:     81 shell pairs
          la=3 lb=1:     39 shell pairs
          la=3 lb=2:     18 shell pairs
          la=3 lb=3:      6 shell pairs

Calculating one electron integrals          ... done (  0.0 sec)
Calculating RI/J V-Matrix + Cholesky decomp.... done (  0.0 sec)
Calculating Nuclear repulsion               ... done (  0.0 sec) ENN=     72.666413117584 Eh

SHARK setup successfully completed in   0.1 seconds

Maximum memory used throughout the entire GTOINT-calculation: 14.9 MB


           ************************************************************
           *        Program running with 8 parallel MPI-processes     *
           *              working on a common directory               *
           ************************************************************
-------------------------------------------------------------------------------
                                 ORCA SCF
-------------------------------------------------------------------------------

------------
SCF SETTINGS
------------
Hamiltonian:
 Density Functional     Method          .... DFT(GTOs)
 Exchange Functional    Exchange        .... PBE
   PBE kappa parameter   XKappa         ....  0.804000
   PBE mue parameter    XMuePBE         ....  0.219520
 Correlation Functional Correlation     .... PBE
   PBE beta parameter  CBetaPBE         ....  0.066725
 LDA part of GGA corr.  LDAOpt          .... PW91-LDA
 Gradients option       PostSCFGGA      .... off
 Hybrid DFT is turned on
   Fraction HF Exchange ScalHFX         ....  0.250000
   Scaling of DF-GGA-X  ScalDFX         ....  0.750000
   Scaling of DF-GGA-C  ScalDFC         ....  1.000000
   Scaling of DF-LDA-C  ScalLDAC        ....  1.000000
   Perturbative correction              ....  0.000000
   Density functional embedding theory  .... OFF
   NL short-range parameter             ....  6.900000
 RI-approximation to the Coulomb term is turned on
   Number of AuxJ basis functions       .... 191
   RIJ-COSX (HFX calculated with COS-X)).... on


General Settings:
 Integral files         IntName         .... ox_gs_C_orca0004
 Hartree-Fock type      HFTyp           .... RHF
 Total Charge           Charge          ....    0
 Multiplicity           Mult            ....    1
 Number of Electrons    NEL             ....   24
 Basis Dimension        Dim             ....  117
 Nuclear Repulsion      ENuc            ....     72.6664131176 Eh

Convergence Acceleration:
 DIIS                   CNVDIIS         .... on
   Start iteration      DIISMaxIt       ....    12
   Startup error        DIISStart       ....  0.200000
   # of expansion vecs  DIISMaxEq       ....     5
   Bias factor          DIISBfac        ....   1.050
   Max. coefficient     DIISMaxC        ....  10.000
 Trust-Rad. Augm. Hess. CNVTRAH         .... auto
   Auto Start mean grad. ratio tolernc. ....  1.125000
   Auto Start start iteration           ....    20
   Auto Start num. interpolation iter.  ....    10
   Max. Number of Micro iterations      ....    16
   Max. Number of Macro iterations      .... Maxiter - #DIIS iter
   Number of Davidson start vectors     ....     2
   Converg. threshold I  (grad. norm)   ....   1.000e-05
   Converg. threshold II (energy diff.) ....   1.000e-08
   Grad. Scal. Fac. for Micro threshold ....   0.100
   Minimum threshold for Micro iter.    ....   0.010
   NR start threshold (gradient norm)   ....   0.001
   Initial trust radius                 ....   0.400
   Minimum AH scaling param. (alpha)    ....   1.000
   Maximum AH scaling param. (alpha)    .... 1000.000
   Orbital update algorithm             .... Taylor
   White noise on init. David. guess    .... on
   Maximum white noise                  ....   0.010
   Quad. conv. algorithm                .... NR
 SOSCF                  CNVSOSCF        .... on
   Start iteration      SOSCFMaxIt      ....   150
   Startup grad/error   SOSCFStart      ....  0.003300
 Level Shifting         CNVShift        .... on
   Level shift para.    LevelShift      ....    0.2500
   Turn off err/grad.   ShiftErr        ....    0.0010
 Zerner damping         CNVZerner       .... off
 Static damping         CNVDamp         .... on
   Fraction old density DampFac         ....    0.7000
   Max. Damping (<1)    DampMax         ....    0.9800
   Min. Damping (>=0)   DampMin         ....    0.0000
   Turn off err/grad.   DampErr         ....    0.1000
 Fernandez-Rico         CNVRico         .... off

SCF Procedure:
 Maximum # iterations   MaxIter         ....   125
 SCF integral mode      SCFMode         .... Direct
   Integral package                     .... SHARK and LIBINT hybrid scheme
 Reset frequency        DirectResetFreq ....    20
 Integral Threshold     Thresh          ....  2.500e-11 Eh
 Primitive CutOff       TCut            ....  2.500e-12 Eh

Convergence Tolerance:
 Convergence Check Mode ConvCheckMode   .... Total+1el-Energy
 Convergence forced     ConvForced      .... 0
 Energy Change          TolE            ....  1.000e-08 Eh
 1-El. energy change                    ....  1.000e-05 Eh
 Orbital Gradient       TolG            ....  1.000e-05
 Orbital Rotation angle TolX            ....  1.000e-05
 DIIS Error             TolErr          ....  5.000e-07


Diagonalization of the overlap matrix:
Smallest eigenvalue                        ... 1.812e-04
Time for diagonalization                   ...    0.001 sec
Threshold for overlap eigenvalues          ... 1.000e-08
Number of eigenvalues below threshold      ... 0
Time for construction of square roots      ...    0.001 sec
Total time needed                          ...    0.003 sec

Time for model grid setup =    0.022 sec

------------------------------
INITIAL GUESS: MODEL POTENTIAL
------------------------------
Loading Hartree-Fock densities                     ... done
Calculating cut-offs                               ... done
Initializing the effective Hamiltonian             ... done
Setting up the integral package (SHARK)            ... done
Starting the Coulomb interaction                   ... done (   0.0 sec)
Reading the grid                                   ... done
Mapping shells                                     ... done
Starting the XC term evaluation                    ... done (   0.0 sec)
  promolecular density results
     # of electrons  =     23.998021364
     EX              =    -19.500246098
     EC              =     -0.774679868
     EX+EC           =    -20.274925967
Transforming the Hamiltonian                       ... done (   0.0 sec)
Diagonalizing the Hamiltonian                      ... done (   0.0 sec)
Back transforming the eigenvectors                 ... done (   0.0 sec)
Now organizing SCF variables                       ... done
                      ------------------
                      INITIAL GUESS DONE (   0.0 sec)
                      ------------------
-------------------
DFT GRID GENERATION
-------------------

General Integration Accuracy     IntAcc      ... 4.388
Radial Grid Type                 RadialGrid  ... OptM3 with GC (2021)
Angular Grid (max. ang.)         AngularGrid ... 4 (Lebedev-302)
Angular grid pruning method      GridPruning ... 4 (adaptive)
Weight generation scheme         WeightScheme... Becke
Basis function cutoff            BFCut       ... 1.0000e-11
Integration weight cutoff        WCut        ... 1.0000e-14
Angular grids for H and He will be reduced by one unit
Partially contracted basis set               ... off
Rotationally invariant grid construction     ... off

Total number of grid points                  ...    31305
Total number of batches                      ...      494
Average number of points per batch           ...       63
Average number of grid points per atom       ...     4472
Time for grid setup =    0.110 sec

--------------------
COSX GRID GENERATION
--------------------

GRIDX 1
-------
General Integration Accuracy     IntAcc      ... 3.816
Radial Grid Type                 RadialGrid  ... OptM3 with GC (2021)
Angular Grid (max. ang.)         AngularGrid ... 1 (Lebedev-50)
Angular grid pruning method      GridPruning ... 4 (adaptive)
Weight generation scheme         WeightScheme... Becke
Basis function cutoff            BFCut       ... 1.0000e-11
Integration weight cutoff        WCut        ... 1.0000e-14
Angular grids for H and He will be reduced by one unit
Partially contracted basis set               ... on
Rotationally invariant grid construction     ... off

Total number of grid points                  ...     4039
Total number of batches                      ...       67
Average number of points per batch           ...       60
Average number of grid points per atom       ...      577
UseSFitting                                  ... on

GRIDX 2
-------
General Integration Accuracy     IntAcc      ... 4.020
Radial Grid Type                 RadialGrid  ... OptM3 with GC (2021)
Angular Grid (max. ang.)         AngularGrid ... 2 (Lebedev-110)
Angular grid pruning method      GridPruning ... 4 (adaptive)
Weight generation scheme         WeightScheme... Becke
Basis function cutoff            BFCut       ... 1.0000e-11
Integration weight cutoff        WCut        ... 1.0000e-14
Angular grids for H and He will be reduced by one unit
Partially contracted basis set               ... on
Rotationally invariant grid construction     ... off

Total number of grid points                  ...     8725
Total number of batches                      ...      138
Average number of points per batch           ...       63
Average number of grid points per atom       ...     1246
UseSFitting                                  ... on

GRIDX 3
-------
General Integration Accuracy     IntAcc      ... 4.338
Radial Grid Type                 RadialGrid  ... OptM3 with GC (2021)
Angular Grid (max. ang.)         AngularGrid ... 3 (Lebedev-194)
Angular grid pruning method      GridPruning ... 4 (adaptive)
Weight generation scheme         WeightScheme... Becke
Basis function cutoff            BFCut       ... 1.0000e-11
Integration weight cutoff        WCut        ... 1.0000e-14
Angular grids for H and He will be reduced by one unit
Partially contracted basis set               ... on
Rotationally invariant grid construction     ... off

Total number of grid points                  ...    19262
Total number of batches                      ...      305
Average number of points per batch           ...       63
Average number of grid points per atom       ...     2752
UseSFitting                                  ... on

Time for X-Grid setup             =    0.073 sec

--------------
SCF ITERATIONS
--------------
ITER       Energy         Delta-E        Max-DP      RMS-DP      [F,P]     Damp
               ***  Starting incremental Fock matrix formation  ***
  0   -153.5308807943   0.000000000000 0.03576737  0.00129270  0.1890934 0.7000
  1   -153.5657258022  -0.034845007876 0.02017604  0.00091861  0.0751589 0.7000
                               ***Turning on DIIS***
  2   -153.5788941689  -0.013168366725 0.02983734  0.00145799  0.0349247 0.0000
  3   -153.6007660508  -0.021871881900 0.01597472  0.00072888  0.0402113 0.0000
  4   -153.6050899284  -0.004323877527 0.00555813  0.00020537  0.0155979 0.0000
  5   -153.6054642381  -0.000374309727 0.00164970  0.00006989  0.0051477 0.0000
                      *** Initiating the SOSCF procedure ***
                           *** Shutting down DIIS ***
                      *** Re-Reading the Fockian *** 
                      *** Removing any level shift *** 
ITER      Energy       Delta-E        Grad      Rot      Max-DP    RMS-DP
  6   -153.60550204  -0.0000378001  0.000148  0.000148  0.001007  0.000033
               *** Restarting incremental Fock matrix formation ***
  7   -153.60549894   0.0000031007  0.000132  0.000427  0.000245  0.000009
  8   -153.60549860   0.0000003334  0.000269  0.000271  0.000187  0.000006
  9   -153.60549907  -0.0000004646  0.000029  0.000045  0.000064  0.000002
 10   -153.60549906   0.0000000066  0.000035  0.000027  0.000037  0.000001
                  ***Gradient check signals convergence***
              ***Rediagonalizing the Fockian in SOSCF/NRSCF***

               *****************************************************
               *                     SUCCESS                       *
               *           SCF CONVERGED AFTER  11 CYCLES          *
               *****************************************************

Old exchange energy                            =     -4.975939068 Eh
New exchange energy                            =     -4.975955435 Eh
Exchange energy change after final integration =     -0.000016367 Eh
Total energy after final integration           =   -153.605515450 Eh
Final COS-X integration done in                =     0.258 sec

----------------
TOTAL SCF ENERGY
----------------

Total Energy       :         -153.60551545 Eh           -4179.81857 eV

Components:
Nuclear Repulsion  :           72.66641312 Eh            1977.35363 eV
Electronic Energy  :         -226.27192857 Eh           -6157.17220 eV
One Electron Energy:         -352.08816432 Eh           -9580.80603 eV
Two Electron Energy:          125.81623575 Eh            3423.63383 eV
Max COSX asymmetry :            0.00000240 Eh               0.00007 eV

Virial components:
Potential Energy   :         -306.49993407 Eh           -8340.28722 eV
Kinetic Energy     :          152.89441862 Eh            4160.46864 eV
Virial Ratio       :            2.00465090


DFT components:
N(Alpha)           :       12.000001757456 electrons
N(Beta)            :       12.000001757456 electrons
N(Total)           :       24.000003514912 electrons
E(X)               :      -14.917096312181 Eh       
E(C)               :       -0.782064210803 Eh       
E(XC)              :      -15.699160522984 Eh       
DFET-embed. en.    :        0.000000000000 Eh       

---------------
SCF CONVERGENCE
---------------

  Last Energy change         ...   -2.0705e-08  Tolerance :   1.0000e-08
  Last MAX-Density change    ...    4.5797e-16  Tolerance :   1.0000e-07
  Last RMS-Density change    ...    1.6874e-17  Tolerance :   5.0000e-09
  Last Orbital Gradient      ...    9.0025e-07  Tolerance :   1.0000e-05
  Last Orbital Rotation      ...    1.2514e-06  Tolerance :   1.0000e-05

             **** THE GBW FILE WAS UPDATED (ox_gs_C_orca0004.gbw) ****
             **** DENSITY ox_gs_C_orca0004.scfp WAS UPDATED ****
             **** ENERGY FILE WAS UPDATED (ox_gs_C_orca0004.en.tmp) ****
             **** THE GBW FILE WAS UPDATED (ox_gs_C_orca0004.gbw) ****
             **** DENSITY ox_gs_C_orca0004.scfp WAS UPDATED ****
----------------
ORBITAL ENERGIES
----------------

  NO   OCC          E(Eh)            E(eV) 
   0   2.0000     -19.218833      -522.9710 
   1   2.0000     -10.296315      -280.1770 
   2   2.0000     -10.266508      -279.3659 
   3   2.0000      -1.039061       -28.2743 
   4   2.0000      -0.755528       -20.5590 
   5   2.0000      -0.632773       -17.2186 
   6   2.0000      -0.524694       -14.2776 
   7   2.0000      -0.504233       -13.7209 
   8   2.0000      -0.398975       -10.8567 
   9   2.0000      -0.371263       -10.1026 
  10   2.0000      -0.332853        -9.0574 
  11   2.0000      -0.281720        -7.6660 
  12   0.0000      -0.023780        -0.6471 
  13   0.0000       0.045644         1.2420 
  14   0.0000       0.078296         2.1305 
  15   0.0000       0.091085         2.4786 
  16   0.0000       0.103900         2.8273 
  17   0.0000       0.151490         4.1222 
  18   0.0000       0.181916         4.9502 
  19   0.0000       0.215756         5.8710 
  20   0.0000       0.245226         6.6730 
  21   0.0000       0.265125         7.2144 
  22   0.0000       0.291288         7.9264 
  23   0.0000       0.305884         8.3235 
  24   0.0000       0.370005        10.0683 
  25   0.0000       0.386954        10.5295 
  26   0.0000       0.401972        10.9382 
  27   0.0000       0.430617        11.7177 
  28   0.0000       0.444636        12.0992 
  29   0.0000       0.502697        13.6791 
  30   0.0000       0.507698        13.8152 
  31   0.0000       0.535337        14.5673 
  32   0.0000       0.560680        15.2569 
  33   0.0000       0.664017        18.0688 
  34   0.0000       0.672109        18.2890 
  35   0.0000       0.772739        21.0273 
  36   0.0000       0.815838        22.2001 
  37   0.0000       0.831784        22.6340 
  38   0.0000       0.892758        24.2932 
  39   0.0000       0.953872        25.9562 
  40   0.0000       0.966712        26.3056 
  41   0.0000       1.049305        28.5530 
  42   0.0000       1.087284        29.5865 
  43   0.0000       1.100412        29.9437 
  44   0.0000       1.205813        32.8118 
  45   0.0000       1.373608        37.3778 
  46   0.0000       1.440655        39.2022 
  47   0.0000       1.469785        39.9949 
  48   0.0000       1.481494        40.3135 
  49   0.0000       1.531008        41.6608 
  50   0.0000       1.559158        42.4268 
  51   0.0000       1.611479        43.8506 
  52   0.0000       1.660278        45.1785 
  53   0.0000       1.666392        45.3448 
  54   0.0000       1.724944        46.9381 
  55   0.0000       1.816976        49.4424 
  56   0.0000       1.820722        49.5444 
  57   0.0000       1.855218        50.4830 
  58   0.0000       1.913608        52.0719 
  59   0.0000       1.970849        53.6295 
  60   0.0000       2.005060        54.5605 
  61   0.0000       2.124659        57.8149 
  62   0.0000       2.145749        58.3888 
  63   0.0000       2.239231        60.9326 
  64   0.0000       2.324124        63.2426 
  65   0.0000       2.338863        63.6437 
  66   0.0000       2.447438        66.5982 
  67   0.0000       2.451233        66.7014 
  68   0.0000       2.474906        67.3456 
  69   0.0000       2.525491        68.7221 
  70   0.0000       2.585090        70.3439 
  71   0.0000       2.657768        72.3216 
  72   0.0000       2.695336        73.3438 
  73   0.0000       2.724018        74.1243 
  74   0.0000       2.766819        75.2890 
  75   0.0000       2.788739        75.8855 
  76   0.0000       2.846714        77.4630 
  77   0.0000       2.895585        78.7929 
  78   0.0000       2.975285        80.9616 
  79   0.0000       3.054776        83.1247 
  80   0.0000       3.087863        84.0250 
  81   0.0000       3.093245        84.1715 
  82   0.0000       3.113562        84.7243 
  83   0.0000       3.147664        85.6523 
  84   0.0000       3.246958        88.3542 
  85   0.0000       3.280118        89.2566 
  86   0.0000       3.361591        91.4735 
  87   0.0000       3.407505        92.7229 
  88   0.0000       3.548060        96.5476 
  89   0.0000       3.575638        97.2981 
  90   0.0000       3.674879        99.9986 
  91   0.0000       3.738856       101.7395 
  92   0.0000       3.860376       105.0462 
  93   0.0000       3.948750       107.4510 
  94   0.0000       4.092394       111.3597 
  95   0.0000       4.210708       114.5792 
  96   0.0000       4.291765       116.7849 
  97   0.0000       4.374169       119.0272 
  98   0.0000       4.512500       122.7914 
  99   0.0000       4.521010       123.0229 
 100   0.0000       4.660559       126.8203 
 101   0.0000       4.881062       132.8204 
 102   0.0000       5.254544       142.9834 
 103   0.0000       5.270253       143.4109 
 104   0.0000       5.406097       147.1074 
 105   0.0000       5.522762       150.2820 
 106   0.0000       5.697578       155.0390 
 107   0.0000       5.705033       155.2418 
 108   0.0000       5.925421       161.2389 
 109   0.0000       6.459445       175.7704 
 110   0.0000       6.482327       176.3931 
 111   0.0000       6.750066       183.6786 
 112   0.0000       6.963246       189.4795 
 113   0.0000       7.055190       191.9815 
 114   0.0000      22.156310       602.9039 
 115   0.0000      22.629764       615.7872 
 116   0.0000      43.716340      1189.5821 

                    ********************************
                    * MULLIKEN POPULATION ANALYSIS *
                    ********************************

-----------------------
MULLIKEN ATOMIC CHARGES
-----------------------
   0 O :   -0.350868
   1 C :   -0.019284
   2 C :   -0.125158
   3 H :    0.120421
   4 H :    0.104043
   5 H :    0.151585
   6 H :    0.119261
Sum of atomic charges:    0.0000000

--------------------------------
MULLIKEN REDUCED ORBITAL CHARGES
--------------------------------
  0 O s       :     3.906189  s :     3.906189
      pz      :     1.889109  p :     4.414466
      px      :     1.382657
      py      :     1.142700
      dz2     :     0.004354  d :     0.028703
      dxz     :     0.000975
      dyz     :     0.004946
      dx2y2   :     0.008729
      dxy     :     0.009698
      f0      :     0.000159  f :     0.001510
      f+1     :     0.000095
      f-1     :     0.000375
      f+2     :     0.000120
      f-2     :     0.000071
      f+3     :     0.000376
      f-3     :     0.000314
  1 C s       :     3.166247  s :     3.166247
      pz      :     1.046950  p :     2.704775
      px      :     0.942050
      py      :     0.715774
      dz2     :     0.008347  d :     0.137593
      dxz     :     0.024353
      dyz     :     0.039249
      dx2y2   :     0.030758
      dxy     :     0.034885
      f0      :     0.001628  f :     0.010671
      f+1     :     0.001110
      f-1     :     0.000754
      f+2     :     0.002524
      f-2     :     0.000537
      f+3     :     0.001346
      f-3     :     0.002772
  2 C s       :     3.247416  s :     3.247416
      pz      :     1.032132  p :     2.781509
      px      :     0.983695
      py      :     0.765683
      dz2     :     0.007054  d :     0.088013
      dxz     :     0.028091
      dyz     :     0.015697
      dx2y2   :     0.016501
      dxy     :     0.020669
      f0      :     0.000915  f :     0.008220
      f+1     :     0.001069
      f-1     :     0.000352
      f+2     :     0.001331
      f-2     :     0.000914
      f+3     :     0.001448
      f-3     :     0.002189
  3 H s       :     0.858087  s :     0.858087
      pz      :     0.011658  p :     0.021492
      px      :     0.005889
      py      :     0.003945
  4 H s       :     0.875769  s :     0.875769
      pz      :     0.010022  p :     0.020188
      px      :     0.006456
      py      :     0.003710
  5 H s       :     0.824788  s :     0.824788
      pz      :     0.010324  p :     0.023627
      px      :     0.008589
      py      :     0.004714
  6 H s       :     0.865353  s :     0.865353
      pz      :     0.008392  p :     0.015386
      px      :     0.004456
      py      :     0.002539


                     *******************************
                     * LOEWDIN POPULATION ANALYSIS *
                     *******************************

----------------------
LOEWDIN ATOMIC CHARGES
----------------------
   0 O :   -0.009240
   1 C :   -0.368594
   2 C :   -0.145662
   3 H :    0.122368
   4 H :    0.129537
   5 H :    0.112415
   6 H :    0.159178

-------------------------------
LOEWDIN REDUCED ORBITAL CHARGES
-------------------------------
  0 O s       :     3.533621  s :     3.533621
      pz      :     1.809557  p :     4.413878
      px      :     1.353048
      py      :     1.251273
      dz2     :     0.009347  d :     0.057996
      dxz     :     0.002349
      dyz     :     0.010551
      dx2y2   :     0.019149
      dxy     :     0.016600
      f0      :     0.000320  f :     0.003746
      f+1     :     0.000122
      f-1     :     0.000733
      f+2     :     0.000390
      f-2     :     0.000234
      f+3     :     0.000970
      f-3     :     0.000976
  1 C s       :     2.801764  s :     2.801764
      pz      :     1.028634  p :     2.906152
      px      :     1.097580
      py      :     0.779938
      dz2     :     0.062695  d :     0.580755
      dxz     :     0.144147
      dyz     :     0.102434
      dx2y2   :     0.136513
      dxy     :     0.134966
      f0      :     0.011020  f :     0.079924
      f+1     :     0.006435
      f-1     :     0.007080
      f+2     :     0.015692
      f-2     :     0.002396
      f+3     :     0.013419
      f-3     :     0.023882
  2 C s       :     2.847888  s :     2.847888
      pz      :     1.032213  p :     2.872388
      px      :     1.114250
      py      :     0.725924
      dz2     :     0.037674  d :     0.377612
      dxz     :     0.147234
      dyz     :     0.038673
      dx2y2   :     0.072172
      dxy     :     0.081859
      f0      :     0.005382  f :     0.047775
      f+1     :     0.005326
      f-1     :     0.002953
      f+2     :     0.007536
      f-2     :     0.003400
      f+3     :     0.009571
      f-3     :     0.013607
  3 H s       :     0.815406  s :     0.815406
      pz      :     0.034346  p :     0.062226
      px      :     0.016355
      py      :     0.011525
  4 H s       :     0.814839  s :     0.814839
      pz      :     0.028662  p :     0.055624
      px      :     0.016762
      py      :     0.010200
  5 H s       :     0.815345  s :     0.815345
      pz      :     0.033978  p :     0.072240
      px      :     0.023746
      py      :     0.014516
  6 H s       :     0.802402  s :     0.802402
      pz      :     0.022244  p :     0.038421
      px      :     0.009907
      py      :     0.006270


                      *****************************
                      * MAYER POPULATION ANALYSIS *
                      *****************************

  NA   - Mulliken gross atomic population
  ZA   - Total nuclear charge
  QA   - Mulliken gross atomic charge
  VA   - Mayer's total valence
  BVA  - Mayer's bonded valence
  FA   - Mayer's free valence

  ATOM       NA         ZA         QA         VA         BVA        FA
  0 O      8.3509     8.0000    -0.3509     1.9131     1.9131     0.0000
  1 C      6.0193     6.0000    -0.0193     4.0304     4.0304     0.0000
  2 C      6.1252     6.0000    -0.1252     3.9644     3.9644     0.0000
  3 H      0.8796     1.0000     0.1204     0.9579     0.9579     0.0000
  4 H      0.8960     1.0000     0.1040     0.9631     0.9631    -0.0000
  5 H      0.8484     1.0000     0.1516     0.9504     0.9504    -0.0000
  6 H      0.8807     1.0000     0.1193     0.9624     0.9624     0.0000

  Mayer bond orders larger than 0.100000
B(  0-O ,  1-C ) :   0.9632 B(  0-O ,  2-C ) :   0.9309 B(  1-C ,  2-C ) :   1.1461 
B(  1-C ,  3-H ) :   0.9514 B(  1-C ,  4-H ) :   0.9473 B(  2-C ,  5-H ) :   0.9439 
B(  2-C ,  6-H ) :   0.9286 

-------
TIMINGS
-------

Total SCF time: 0 days 0 hours 0 min 2 sec 

Total time                  ....       2.667 sec
Sum of individual times     ....       2.382 sec  ( 89.3%)

Fock matrix formation       ....       2.117 sec  ( 79.4%)
  Split-RI-J                ....       0.228 sec  ( 10.8% of F)
  Chain of spheres X        ....       1.429 sec  ( 67.5% of F)
  XC integration            ....       0.394 sec  ( 18.6% of F)
    Basis function eval.    ....       0.106 sec  ( 26.8% of XC)
    Density eval.           ....       0.080 sec  ( 20.4% of XC)
    XC-Functional eval.     ....       0.022 sec  (  5.7% of XC)
    XC-Potential eval.      ....       0.141 sec  ( 35.8% of XC)
Diagonalization             ....       0.016 sec  (  0.6%)
Density matrix formation    ....       0.001 sec  (  0.1%)
Population analysis         ....       0.003 sec  (  0.1%)
Initial guess               ....       0.016 sec  (  0.6%)
Orbital Transformation      ....       0.000 sec  (  0.0%)
Orbital Orthonormalization  ....       0.000 sec  (  0.0%)
DIIS solution               ....       0.013 sec  (  0.5%)
SOSCF solution              ....       0.011 sec  (  0.4%)
Grid generation             ....       0.205 sec  (  7.7%)

Maximum memory used throughout the entire SCF-calculation: 61.1 MB


-------------------------------------------------------------------------------
                          DFT DISPERSION CORRECTION                            
                                                                               
                              DFTD3 V3.1  Rev 1                                
                          USING Becke-Johnson damping                          
-------------------------------------------------------------------------------
The PBE0 functional is recognized
Active option DFTDOPT                   ...         4   

molecular C6(AA) [au] = 358.812626 


            DFT-D V3
 parameters
 s6 scaling factor         :     1.0000 
 a1 scaling factor         :     0.4145 
 s8 scaling factor         :     1.2177 
 a2 scaling factor         :     4.8593 
 ad hoc parameters k1-k3   :    16.0000     1.3333    -4.0000 

 Edisp/kcal,au: -1.539125938760  -0.002452753047 
 E6   /kcal   :  -1.008290296 
 E8   /kcal   :  -0.530835642 
 % E8         :  34.489422151 

-------------------------   ----------------
Dispersion correction           -0.002452753
-------------------------   ----------------


-------------------------   --------------------
FINAL SINGLE POINT ENERGY      -153.607968202690
-------------------------   --------------------



           ************************************************************
           *        Program running with 8 parallel MPI-processes     *
           *              working on a common directory               *
           ************************************************************
------------------------------------------------------------------------------
                         ORCA SCF GRADIENT CALCULATION
------------------------------------------------------------------------------

 ... reading COSX grid (gridx3)
Gradient of the Kohn-Sham DFT energy:
Kohn-Sham wavefunction type      ... RKS
Hartree-Fock exchange scaling    ...    0.250
Number of operators              ...    1
Number of atoms                  ...    7
Basis set dimensions             ...  117
Integral neglect threshold       ... 2.5e-11
Integral primitive cutoff        ... 2.5e-12
SHARK Integral package           ... ON

Nuc. rep. gradient       (SHARK) ... done (  0.0 sec)
HCore & Overlap gradient (SHARK) ... done (  0.0 sec)
RI-J gradient            (SHARK) ... done (  0.1 sec)
COSX-gradient                    ... done (  0.3 sec)
Exchange-correlation gradient    ... done
Dispersion correction            ... done

------------------
CARTESIAN GRADIENT
------------------

   1   O   :   -0.059683153    0.063929666    0.002070071
   2   C   :    0.118113421   -0.027004118    0.030813226
   3   C   :   -0.083148960   -0.026019867   -0.104584295
   4   H   :    0.006876361    0.015555260   -0.010261186
   5   H   :   -0.000348995    0.008299680   -0.014188198
   6   H   :   -0.012037081   -0.004513067    0.039553032
   7   H   :    0.030316387   -0.030286327    0.056643581

Difference to translation invariance:
           :    0.0000879804   -0.0000387735    0.0000462300

Difference to rotation invariance:
           :   -0.0001070887   -0.0000010944    0.0000375428

Norm of the cartesian gradient     ...    0.2219253857
RMS gradient                       ...    0.0484280894
MAX gradient                       ...    0.1181134209

-------
TIMINGS
-------

Total SCF gradient time            ...        0.685 sec

One electron gradient       ....       0.009 sec  (  1.4%)
RI-J Coulomb gradient       ....       0.077 sec  ( 11.3%)
COSX gradient               ....       0.308 sec  ( 44.9%)
XC gradient                 ....       0.154 sec  ( 22.5%)

Maximum memory used throughout the entire SCFGRAD-calculation: 35.9 MB

                            ***************************************
                            *     ORCA property calculations      *
                            ***************************************

                                    ---------------------
                                    Active property flags
                                    ---------------------
   (+) Dipole Moment


------------------------------------------------------------------------------
                       ORCA ELECTRIC PROPERTIES CALCULATION
------------------------------------------------------------------------------

Dipole Moment Calculation                       ... on
Quadrupole Moment Calculation                   ... off
Polarizability Calculation                      ... off
GBWName                                         ... ox_gs_C_orca0004.gbw
Electron density                                ... ox_gs_C_orca0004.scfp
The origin for moment calculation is the CENTER OF MASS  = (-0.231070,  0.173622  0.008979)

-------------
DIPOLE MOMENT
-------------
                                X             Y             Z
Electronic contribution:     -0.37080       1.65022      -0.26761
Nuclear contribution   :      0.58841      -2.72558       0.26635
                        -----------------------------------------
Total Dipole Moment    :      0.21761      -1.07536      -0.00126
                        -----------------------------------------
Magnitude (a.u.)       :      1.09716
Magnitude (Debye)      :      2.78876



--------------------
Rotational spectrum 
--------------------
 
Rotational constants in cm-1:     0.937175     0.591331     0.427046 
Rotational constants in MHz : 28095.810404 17727.662081 12802.520984 

 Dipole components along the rotational axes: 
x,y,z [a.u.] :     1.001932    -0.445908    -0.032475 
x,y,z [Debye]:     2.546710    -1.133408    -0.082545 

 

Timings for individual modules:

Sum of individual times         ...        4.055 sec (=   0.068 min)
GTO integral calculation        ...        0.299 sec (=   0.005 min)   7.4 %
SCF iterations                  ...        2.838 sec (=   0.047 min)  70.0 %
SCF Gradient evaluation         ...        0.918 sec (=   0.015 min)  22.6 %
                             ****ORCA TERMINATED NORMALLY****
TOTAL RUN TIME: 0 days 0 hours 0 minutes 4 seconds 388 msec
