
                                 *****************
                                 * O   R   C   A *
                                 *****************

                                            #,                                       
                                            ###                                      
                                            ####                                     
                                            #####                                    
                                            ######                                   
                                           ########,                                 
                                     ,,################,,,,,                         
                               ,,#################################,,                 
                          ,,##########################################,,             
                       ,#########################################, ''#####,          
                    ,#############################################,,   '####,        
                  ,##################################################,,,,####,       
                ,###########''''           ''''###############################       
              ,#####''   ,,,,##########,,,,          '''####'''          '####       
            ,##' ,,,,###########################,,,                        '##       
           ' ,,###''''                  '''############,,,                           
         ,,##''                                '''############,,,,        ,,,,,,###''
      ,#''                                            '''#######################'''  
     '                                                          ''''####''''         
             ,#######,   #######,   ,#######,      ##                                
            ,#'     '#,  ##    ##  ,#'     '#,    #''#        ######   ,####,        
            ##       ##  ##   ,#'  ##            #'  '#       #        #'  '#        
            ##       ##  #######   ##           ,######,      #####,   #    #        
            '#,     ,#'  ##    ##  '#,     ,#' ,#      #,         ##   #,  ,#        
             '#######'   ##     ##  '#######'  #'      '#     #####' # '####'        



                  #######################################################
                  #                        -***-                        #
                  #          Department of theory and spectroscopy      #
                  #    Directorship and core code : Frank Neese         #
                  #        Max Planck Institute fuer Kohlenforschung    #
                  #                Kaiser Wilhelm Platz 1               #
                  #                 D-45470 Muelheim/Ruhr               #
                  #                      Germany                        #
                  #                                                     #
                  #                  All rights reserved                #
                  #                        -***-                        #
                  #######################################################


                         Program Version 5.0.2 -  RELEASE  -


 With contributions from (in alphabetic order):
   Daniel Aravena         : Magnetic Suceptibility
   Michael Atanasov       : Ab Initio Ligand Field Theory (pilot matlab implementation)
   Alexander A. Auer      : GIAO ZORA, VPT2 properties, NMR spectrum
   Ute Becker             : Parallelization
   Giovanni Bistoni       : ED, misc. LED, open-shell LED, HFLD
   Martin Brehm           : Molecular dynamics
   Dmytro Bykov           : SCF Hessian
   Vijay G. Chilkuri      : MRCI spin determinant printing, contributions to CSF-ICE
   Dipayan Datta          : RHF DLPNO-CCSD density
   Achintya Kumar Dutta   : EOM-CC, STEOM-CC
   Dmitry Ganyushin       : Spin-Orbit,Spin-Spin,Magnetic field MRCI
   Miquel Garcia          : C-PCM and meta-GGA Hessian, CC/C-PCM, Gaussian charge scheme
   Yang Guo               : DLPNO-NEVPT2, F12-NEVPT2, CIM, IAO-localization
   Andreas Hansen         : Spin unrestricted coupled pair/coupled cluster methods
   Benjamin Helmich-Paris : MC-RPA, TRAH-SCF, COSX integrals
   Lee Huntington         : MR-EOM, pCC
   Robert Izsak           : Overlap fitted RIJCOSX, COSX-SCS-MP3, EOM
   Marcus Kettner         : VPT2
   Christian Kollmar      : KDIIS, OOCD, Brueckner-CCSD(T), CCSD density, CASPT2, CASPT2-K
   Simone Kossmann        : Meta GGA functionals, TD-DFT gradient, OOMP2, MP2 Hessian
   Martin Krupicka        : Initial AUTO-CI
   Lucas Lang             : DCDCAS
   Marvin Lechner         : AUTO-CI (C++ implementation), FIC-MRCC
   Dagmar Lenk            : GEPOL surface, SMD
   Dimitrios Liakos       : Extrapolation schemes; Compound Job, initial MDCI parallelization
   Dimitrios Manganas     : Further ROCIS development; embedding schemes
   Dimitrios Pantazis     : SARC Basis sets
   Anastasios Papadopoulos: AUTO-CI, single reference methods and gradients
   Taras Petrenko         : DFT Hessian,TD-DFT gradient, ASA, ECA, R-Raman, ABS, FL, XAS/XES, NRVS
   Peter Pinski           : DLPNO-MP2, DLPNO-MP2 Gradient
   Christoph Reimann      : Effective Core Potentials
   Marius Retegan         : Local ZFS, SOC
   Christoph Riplinger    : Optimizer, TS searches, QM/MM, DLPNO-CCSD(T), (RO)-DLPNO pert. Triples
   Tobias Risthaus        : Range-separated hybrids, TD-DFT gradient, RPA, STAB
   Michael Roemelt        : Original ROCIS implementation
   Masaaki Saitow         : Open-shell DLPNO-CCSD energy and density
   Barbara Sandhoefer     : DKH picture change effects
   Avijit Sen             : IP-ROCIS
   Kantharuban Sivalingam : CASSCF convergence, NEVPT2, FIC-MRCI
   Bernardo de Souza      : ESD, SOC TD-DFT
   Georgi Stoychev        : AutoAux, RI-MP2 NMR, DLPNO-MP2 response
   Willem Van den Heuvel  : Paramagnetic NMR
   Boris Wezisla          : Elementary symmetry handling
   Frank Wennmohs         : Technical directorship


 We gratefully acknowledge several colleagues who have allowed us to
 interface, adapt or use parts of their codes:
   Stefan Grimme, W. Hujo, H. Kruse, P. Pracht,  : VdW corrections, initial TS optimization,
                  C. Bannwarth, S. Ehlert          DFT functionals, gCP, sTDA/sTD-DF
   Ed Valeev, F. Pavosevic, A. Kumar             : LibInt (2-el integral package), F12 methods
   Garnet Chan, S. Sharma, J. Yang, R. Olivares  : DMRG
   Ulf Ekstrom                                   : XCFun DFT Library
   Mihaly Kallay                                 : mrcc  (arbitrary order and MRCC methods)
   Jiri Pittner, Ondrej Demel                    : Mk-CCSD
   Frank Weinhold                                : gennbo (NPA and NBO analysis)
   Christopher J. Cramer and Donald G. Truhlar   : smd solvation model
   Lars Goerigk                                  : TD-DFT with DH, B97 family of functionals
   V. Asgeirsson, H. Jonsson                     : NEB implementation
   FAccTs GmbH                                   : IRC, NEB, NEB-TS, DLPNO-Multilevel, CI-OPT
                                                   MM, QMMM, 2- and 3-layer-ONIOM, Crystal-QMMM,
                                                   LR-CPCM, SF, NACMEs, symmetry and pop. for TD-DFT,
                                                   nearIR, NL-DFT gradient (VV10), updates on ESD,
                                                   ML-optimized integration grids
   S Lehtola, MJT Oliveira, MAL Marques          : LibXC Library
   Liviu Ungur et al                             : ANISO software


 Your calculation uses the libint2 library for the computation of 2-el integrals
 For citations please refer to: http://libint.valeyev.net

 Your ORCA version has been built with support for libXC version: 5.1.0
 For citations please refer to: https://tddft.org/programs/libxc/

 This ORCA versions uses:
   CBLAS   interface :  Fast vector & matrix operations
   LAPACKE interface :  Fast linear algebra routines
   SCALAPACK package :  Parallel linear algebra routines
   Shared memory     :  Shared parallel matrices
   BLAS/LAPACK       :  OpenBLAS 0.3.15  USE64BITINT DYNAMIC_ARCH NO_AFFINITY SkylakeX SINGLE_THREADED
        Core in use  :  SkylakeX
   Copyright (c) 2011-2014, The OpenBLAS Project


Your calculation utilizes the atom-pairwise dispersion correction
with the Becke-Johnson damping scheme (D3BJ)
Cite in your paper:
S.Grimme, S.Ehrlich, L.Goerigk, J Comput Chem, (2011), 32, 1456–1465 
S.Grimme, J.Antony, S.Ehrlich and H.Krieg, J.Chem.Phys., 132, (2010), 154104 
   

================================================================================

----- Orbital basis set information -----
Your calculation utilizes the basis: def2-TZVP
   F. Weigend and R. Ahlrichs, Phys. Chem. Chem. Phys. 7, 3297 (2005).

----- AuxJ basis set information -----
Your calculation utilizes the auxiliary basis: def2/J
   F. Weigend, Phys. Chem. Chem. Phys. 8, 1057 (2006).

================================================================================
                                        WARNINGS
                       Please study these warnings very carefully!
================================================================================


INFO   : the flag for use of the SHARK integral package has been found!

================================================================================
                                       INPUT FILE
================================================================================
NAME = ox_gs_D_orca0003.inp
|  1> ! engrad PBE0 D3BJ def2-TZVP  
|  2> %pal nprocs 8 end
|  3> %maxcore 3000
|  4>  
|  5> *xyz 0 1 
|  6> O   -0.6760558291839665 0.9505118596229704 -0.0070507768165884955
|  7> C   -0.7343991716209768 -0.48638970451929103 -0.025707958217194144
|  8> C   0.686903461610899 -0.4263773203854076 -0.1048420950584123
|  9> H   -1.283101423706982 -0.6383072503981899 0.9478960487208161
| 10> H   -1.3294669808354926 -0.7583187581342034 -0.9527535048353902
| 11> H   1.3529397035192854 -0.6556485896401142 -0.960817037897408
| 12> H   1.2966393050408103 -0.7453791341842744 0.956961263748533
| 13> *
| 14> 
| 15>                          ****END OF INPUT****
================================================================================

                     *******************************
                     * Energy+Gradient Calculation *
                     *******************************

---------------------------------
CARTESIAN COORDINATES (ANGSTROEM)
---------------------------------
  O     -0.676056    0.950512   -0.007051
  C     -0.734399   -0.486390   -0.025708
  C      0.686903   -0.426377   -0.104842
  H     -1.283101   -0.638307    0.947896
  H     -1.329467   -0.758319   -0.952754
  H      1.352940   -0.655649   -0.960817
  H      1.296639   -0.745379    0.956961

----------------------------
CARTESIAN COORDINATES (A.U.)
----------------------------
  NO LB      ZA    FRAG     MASS         X           Y           Z
   0 O     8.0000    0    15.999   -1.277560    1.796207   -0.013324
   1 C     6.0000    0    12.011   -1.387813   -0.919143   -0.048581
   2 C     6.0000    0    12.011    1.298059   -0.805736   -0.198123
   3 H     1.0000    0     1.008   -2.424710   -1.206226    1.791264
   4 H     1.0000    0     1.008   -2.512328   -1.433015   -1.800443
   5 H     1.0000    0     1.008    2.556686   -1.238996   -1.815681
   6 H     1.0000    0     1.008    2.450293   -1.408562    1.808395

--------------------------------
INTERNAL COORDINATES (ANGSTROEM)
--------------------------------
 O      0   0   0     0.000000000000     0.00000000     0.00000000
 C      1   0   0     1.438206571067     0.00000000     0.00000000
 C      2   1   0     1.424768357697    85.30623118     0.00000000
 H      2   1   3     1.127855427134    98.22791324   122.31009868
 H      2   1   3     1.134664951987   105.74236272   240.95751767
 H      3   2   1     1.108540794563   129.31154560   251.54374855
 H      3   2   1     1.265292981386   115.05525825   106.47888626

---------------------------
INTERNAL COORDINATES (A.U.)
---------------------------
 O      0   0   0     0.000000000000     0.00000000     0.00000000
 C      1   0   0     2.717816543322     0.00000000     0.00000000
 C      2   1   0     2.692422000324    85.30623118     0.00000000
 H      2   1   3     2.131337875940    98.22791324   122.31009868
 H      2   1   3     2.144206013015   105.74236272   240.95751767
 H      3   2   1     2.094838510003   129.31154560   251.54374855
 H      3   2   1     2.391057213992   115.05525825   106.47888626

---------------------
BASIS SET INFORMATION
---------------------
There are 3 groups of distinct atoms

 Group   1 Type O   : 11s6p2d1f contracted to 5s3p2d1f pattern {62111/411/11/1}
 Group   2 Type C   : 11s6p2d1f contracted to 5s3p2d1f pattern {62111/411/11/1}
 Group   3 Type H   : 5s1p contracted to 3s1p pattern {311/1}

Atom   0O    basis set group =>   1
Atom   1C    basis set group =>   2
Atom   2C    basis set group =>   2
Atom   3H    basis set group =>   3
Atom   4H    basis set group =>   3
Atom   5H    basis set group =>   3
Atom   6H    basis set group =>   3
---------------------------------
AUXILIARY/J BASIS SET INFORMATION
---------------------------------
There are 3 groups of distinct atoms

 Group   1 Type O   : 12s5p4d2f1g contracted to 6s4p3d1f1g pattern {711111/2111/211/2/1}
 Group   2 Type C   : 12s5p4d2f1g contracted to 6s4p3d1f1g pattern {711111/2111/211/2/1}
 Group   3 Type H   : 5s2p1d contracted to 3s1p1d pattern {311/2/1}

Atom   0O    basis set group =>   1
Atom   1C    basis set group =>   2
Atom   2C    basis set group =>   2
Atom   3H    basis set group =>   3
Atom   4H    basis set group =>   3
Atom   5H    basis set group =>   3
Atom   6H    basis set group =>   3


           ************************************************************
           *        Program running with 8 parallel MPI-processes     *
           *              working on a common directory               *
           ************************************************************
------------------------------------------------------------------------------
                           ORCA GTO INTEGRAL CALCULATION
                           -- RI-GTO INTEGRALS CHOSEN --
------------------------------------------------------------------------------
------------------------------------------------------------------------------
                   ___                                                        
                  /   \      - P O W E R E D   B Y -                         
                 /     \                                                     
                 |  |  |   _    _      __       _____    __    __             
                 |  |  |  | |  | |    /  \     |  _  \  |  |  /  |          
                  \  \/   | |  | |   /    \    | | | |  |  | /  /          
                 / \  \   | |__| |  /  /\  \   | |_| |  |  |/  /          
                |  |  |   |  __  | /  /__\  \  |    /   |      \           
                |  |  |   | |  | | |   __   |  |    \   |  |\   \          
                \     /   | |  | | |  |  |  |  | |\  \  |  | \   \       
                 \___/    |_|  |_| |__|  |__|  |_| \__\ |__|  \__/        
                                                                              
                      - O R C A' S   B I G   F R I E N D -                    
                                      &                                       
                       - I N T E G R A L  F E E D E R -                       
                                                                              
 v1 FN, 2020, v2 2021                                                         
------------------------------------------------------------------------------


Reading SHARK input file ox_gs_D_orca0003.SHARKINP.tmp ... ok
----------------------
SHARK INTEGRAL PACKAGE
----------------------

Number of atoms                             ...      7
Number of basis functions                   ...    117
Number of shells                            ...     49
Maximum angular momentum                    ...      3
Integral batch strategy                     ... SHARK/LIBINT Hybrid
RI-J (if used) integral strategy            ... SPLIT-RIJ (Revised 2003 algorithm where possible)
Printlevel                                  ...      1
Contraction scheme used                     ... SEGMENTED contraction
Coulomb Range Separation                    ... NOT USED
Exchange Range Separation                   ... NOT USED
Finite Nucleus Model                        ... NOT USED
Auxiliary Coulomb fitting basis             ... AVAILABLE
   # of basis functions in Aux-J            ...    191
   # of shells in Aux-J                     ...     65
   Maximum angular momentum in Aux-J        ...      4
Auxiliary J/K fitting basis                 ... NOT available
Auxiliary Correlation fitting basis         ... NOT available
Auxiliary 'external' fitting basis          ... NOT available
Integral threshold                          ...     2.500000e-11
Primitive cut-off                           ...     2.500000e-12
Primitive pair pre-selection threshold      ...     2.500000e-12

Calculating pre-screening integrals         ... done (  0.0 sec) Dimension = 49
Organizing shell pair data                  ... done (  0.0 sec)
Shell pair information
Total number of shell pairs                 ...      1225
Shell pairs after pre-screening             ...      1215
Total number of primitive shell pairs       ...      3648
Primitive shell pairs kept                  ...      3089
          la=0 lb=0:    368 shell pairs
          la=1 lb=0:    351 shell pairs
          la=1 lb=1:     91 shell pairs
          la=2 lb=0:    162 shell pairs
          la=2 lb=1:     78 shell pairs
          la=2 lb=2:     21 shell pairs
          la=3 lb=0:     81 shell pairs
          la=3 lb=1:     39 shell pairs
          la=3 lb=2:     18 shell pairs
          la=3 lb=3:      6 shell pairs

Calculating one electron integrals          ... done (  0.0 sec)
Calculating RI/J V-Matrix + Cholesky decomp.... done (  0.0 sec)
Calculating Nuclear repulsion               ... done (  0.0 sec) ENN=     69.313430163808 Eh

SHARK setup successfully completed in   0.1 seconds

Maximum memory used throughout the entire GTOINT-calculation: 14.9 MB


           ************************************************************
           *        Program running with 8 parallel MPI-processes     *
           *              working on a common directory               *
           ************************************************************
-------------------------------------------------------------------------------
                                 ORCA SCF
-------------------------------------------------------------------------------

------------
SCF SETTINGS
------------
Hamiltonian:
 Density Functional     Method          .... DFT(GTOs)
 Exchange Functional    Exchange        .... PBE
   PBE kappa parameter   XKappa         ....  0.804000
   PBE mue parameter    XMuePBE         ....  0.219520
 Correlation Functional Correlation     .... PBE
   PBE beta parameter  CBetaPBE         ....  0.066725
 LDA part of GGA corr.  LDAOpt          .... PW91-LDA
 Gradients option       PostSCFGGA      .... off
 Hybrid DFT is turned on
   Fraction HF Exchange ScalHFX         ....  0.250000
   Scaling of DF-GGA-X  ScalDFX         ....  0.750000
   Scaling of DF-GGA-C  ScalDFC         ....  1.000000
   Scaling of DF-LDA-C  ScalLDAC        ....  1.000000
   Perturbative correction              ....  0.000000
   Density functional embedding theory  .... OFF
   NL short-range parameter             ....  6.900000
 RI-approximation to the Coulomb term is turned on
   Number of AuxJ basis functions       .... 191
   RIJ-COSX (HFX calculated with COS-X)).... on


General Settings:
 Integral files         IntName         .... ox_gs_D_orca0003
 Hartree-Fock type      HFTyp           .... RHF
 Total Charge           Charge          ....    0
 Multiplicity           Mult            ....    1
 Number of Electrons    NEL             ....   24
 Basis Dimension        Dim             ....  117
 Nuclear Repulsion      ENuc            ....     69.3134301638 Eh

Convergence Acceleration:
 DIIS                   CNVDIIS         .... on
   Start iteration      DIISMaxIt       ....    12
   Startup error        DIISStart       ....  0.200000
   # of expansion vecs  DIISMaxEq       ....     5
   Bias factor          DIISBfac        ....   1.050
   Max. coefficient     DIISMaxC        ....  10.000
 Trust-Rad. Augm. Hess. CNVTRAH         .... auto
   Auto Start mean grad. ratio tolernc. ....  1.125000
   Auto Start start iteration           ....    20
   Auto Start num. interpolation iter.  ....    10
   Max. Number of Micro iterations      ....    16
   Max. Number of Macro iterations      .... Maxiter - #DIIS iter
   Number of Davidson start vectors     ....     2
   Converg. threshold I  (grad. norm)   ....   1.000e-05
   Converg. threshold II (energy diff.) ....   1.000e-08
   Grad. Scal. Fac. for Micro threshold ....   0.100
   Minimum threshold for Micro iter.    ....   0.010
   NR start threshold (gradient norm)   ....   0.001
   Initial trust radius                 ....   0.400
   Minimum AH scaling param. (alpha)    ....   1.000
   Maximum AH scaling param. (alpha)    .... 1000.000
   Orbital update algorithm             .... Taylor
   White noise on init. David. guess    .... on
   Maximum white noise                  ....   0.010
   Quad. conv. algorithm                .... NR
 SOSCF                  CNVSOSCF        .... on
   Start iteration      SOSCFMaxIt      ....   150
   Startup grad/error   SOSCFStart      ....  0.003300
 Level Shifting         CNVShift        .... on
   Level shift para.    LevelShift      ....    0.2500
   Turn off err/grad.   ShiftErr        ....    0.0010
 Zerner damping         CNVZerner       .... off
 Static damping         CNVDamp         .... on
   Fraction old density DampFac         ....    0.7000
   Max. Damping (<1)    DampMax         ....    0.9800
   Min. Damping (>=0)   DampMin         ....    0.0000
   Turn off err/grad.   DampErr         ....    0.1000
 Fernandez-Rico         CNVRico         .... off

SCF Procedure:
 Maximum # iterations   MaxIter         ....   125
 SCF integral mode      SCFMode         .... Direct
   Integral package                     .... SHARK and LIBINT hybrid scheme
 Reset frequency        DirectResetFreq ....    20
 Integral Threshold     Thresh          ....  2.500e-11 Eh
 Primitive CutOff       TCut            ....  2.500e-12 Eh

Convergence Tolerance:
 Convergence Check Mode ConvCheckMode   .... Total+1el-Energy
 Convergence forced     ConvForced      .... 0
 Energy Change          TolE            ....  1.000e-08 Eh
 1-El. energy change                    ....  1.000e-05 Eh
 Orbital Gradient       TolG            ....  1.000e-05
 Orbital Rotation angle TolX            ....  1.000e-05
 DIIS Error             TolErr          ....  5.000e-07


Diagonalization of the overlap matrix:
Smallest eigenvalue                        ... 3.429e-04
Time for diagonalization                   ...    0.001 sec
Threshold for overlap eigenvalues          ... 1.000e-08
Number of eigenvalues below threshold      ... 0
Time for construction of square roots      ...    0.001 sec
Total time needed                          ...    0.003 sec

Time for model grid setup =    0.023 sec

------------------------------
INITIAL GUESS: MODEL POTENTIAL
------------------------------
Loading Hartree-Fock densities                     ... done
Calculating cut-offs                               ... done
Initializing the effective Hamiltonian             ... done
Setting up the integral package (SHARK)            ... done
Starting the Coulomb interaction                   ... done (   0.0 sec)
Reading the grid                                   ... done
Mapping shells                                     ... done
Starting the XC term evaluation                    ... done (   0.0 sec)
  promolecular density results
     # of electrons  =     23.998368997
     EX              =    -19.432355279
     EC              =     -0.764560353
     EX+EC           =    -20.196915632
Transforming the Hamiltonian                       ... done (   0.0 sec)
Diagonalizing the Hamiltonian                      ... done (   0.0 sec)
Back transforming the eigenvectors                 ... done (   0.0 sec)
Now organizing SCF variables                       ... done
                      ------------------
                      INITIAL GUESS DONE (   0.0 sec)
                      ------------------
-------------------
DFT GRID GENERATION
-------------------

General Integration Accuracy     IntAcc      ... 4.388
Radial Grid Type                 RadialGrid  ... OptM3 with GC (2021)
Angular Grid (max. ang.)         AngularGrid ... 4 (Lebedev-302)
Angular grid pruning method      GridPruning ... 4 (adaptive)
Weight generation scheme         WeightScheme... Becke
Basis function cutoff            BFCut       ... 1.0000e-11
Integration weight cutoff        WCut        ... 1.0000e-14
Angular grids for H and He will be reduced by one unit
Partially contracted basis set               ... off
Rotationally invariant grid construction     ... off

Total number of grid points                  ...    31337
Total number of batches                      ...      493
Average number of points per batch           ...       63
Average number of grid points per atom       ...     4477
Time for grid setup =    0.112 sec

--------------------
COSX GRID GENERATION
--------------------

GRIDX 1
-------
General Integration Accuracy     IntAcc      ... 3.816
Radial Grid Type                 RadialGrid  ... OptM3 with GC (2021)
Angular Grid (max. ang.)         AngularGrid ... 1 (Lebedev-50)
Angular grid pruning method      GridPruning ... 4 (adaptive)
Weight generation scheme         WeightScheme... Becke
Basis function cutoff            BFCut       ... 1.0000e-11
Integration weight cutoff        WCut        ... 1.0000e-14
Angular grids for H and He will be reduced by one unit
Partially contracted basis set               ... on
Rotationally invariant grid construction     ... off

Total number of grid points                  ...     4032
Total number of batches                      ...       67
Average number of points per batch           ...       60
Average number of grid points per atom       ...      576
UseSFitting                                  ... on

GRIDX 2
-------
General Integration Accuracy     IntAcc      ... 4.020
Radial Grid Type                 RadialGrid  ... OptM3 with GC (2021)
Angular Grid (max. ang.)         AngularGrid ... 2 (Lebedev-110)
Angular grid pruning method      GridPruning ... 4 (adaptive)
Weight generation scheme         WeightScheme... Becke
Basis function cutoff            BFCut       ... 1.0000e-11
Integration weight cutoff        WCut        ... 1.0000e-14
Angular grids for H and He will be reduced by one unit
Partially contracted basis set               ... on
Rotationally invariant grid construction     ... off

Total number of grid points                  ...     8725
Total number of batches                      ...      140
Average number of points per batch           ...       62
Average number of grid points per atom       ...     1246
UseSFitting                                  ... on

GRIDX 3
-------
General Integration Accuracy     IntAcc      ... 4.338
Radial Grid Type                 RadialGrid  ... OptM3 with GC (2021)
Angular Grid (max. ang.)         AngularGrid ... 3 (Lebedev-194)
Angular grid pruning method      GridPruning ... 4 (adaptive)
Weight generation scheme         WeightScheme... Becke
Basis function cutoff            BFCut       ... 1.0000e-11
Integration weight cutoff        WCut        ... 1.0000e-14
Angular grids for H and He will be reduced by one unit
Partially contracted basis set               ... on
Rotationally invariant grid construction     ... off

Total number of grid points                  ...    19267
Total number of batches                      ...      304
Average number of points per batch           ...       63
Average number of grid points per atom       ...     2752
UseSFitting                                  ... on

Time for X-Grid setup             =    0.073 sec

--------------
SCF ITERATIONS
--------------
ITER       Energy         Delta-E        Max-DP      RMS-DP      [F,P]     Damp
               ***  Starting incremental Fock matrix formation  ***
  0   -153.4603367156   0.000000000000 0.06456005  0.00182470  0.2795636 0.7000
  1   -153.5185271187  -0.058190403104 0.03734574  0.00109448  0.0851947 0.7000
                               ***Turning on DIIS***
  2   -153.5318733367  -0.013346218051 0.02965311  0.00138920  0.0400279 0.0000
  3   -153.5663633621  -0.034490025387 0.02454284  0.00093967  0.0379060 0.0000
  4   -153.5690446780  -0.002681315903 0.00950939  0.00029339  0.0416155 0.0000
  5   -153.5710314236  -0.001986745605 0.00241746  0.00007413  0.0071925 0.0000
                      *** Initiating the SOSCF procedure ***
                           *** Shutting down DIIS ***
                      *** Re-Reading the Fockian *** 
                      *** Removing any level shift *** 
ITER      Energy       Delta-E        Grad      Rot      Max-DP    RMS-DP
  6   -153.57109921  -0.0000677826  0.000620  0.000620  0.000963  0.000031
               *** Restarting incremental Fock matrix formation ***
  7   -153.57110566  -0.0000064554  0.000384  0.001822  0.000788  0.000027
  8   -153.57110494   0.0000007250  0.000578  0.000563  0.000425  0.000017
  9   -153.57110681  -0.0000018699  0.000157  0.000185  0.000307  0.000011
 10   -153.57110673   0.0000000750  0.000171  0.000106  0.000181  0.000006
 11   -153.57110723  -0.0000005022  0.000006  0.000006  0.000011  0.000000
                  ***Gradient check signals convergence***
              ***Rediagonalizing the Fockian in SOSCF/NRSCF***

               *****************************************************
               *                     SUCCESS                       *
               *           SCF CONVERGED AFTER  12 CYCLES          *
               *****************************************************

Old exchange energy                            =     -4.939365854 Eh
New exchange energy                            =     -4.939377824 Eh
Exchange energy change after final integration =     -0.000011969 Eh
Total energy after final integration           =   -153.571119205 Eh
Final COS-X integration done in                =     0.259 sec

----------------
TOTAL SCF ENERGY
----------------

Total Energy       :         -153.57111920 Eh           -4178.88260 eV

Components:
Nuclear Repulsion  :           69.31343016 Eh            1886.11432 eV
Electronic Energy  :         -222.88454937 Eh           -6064.99693 eV
One Electron Energy:         -345.52118653 Eh           -9402.10948 eV
Two Electron Energy:          122.63663716 Eh            3337.11255 eV
Max COSX asymmetry :            0.00000140 Eh               0.00004 eV

Virial components:
Potential Energy   :         -306.02019215 Eh           -8327.23278 eV
Kinetic Energy     :          152.44907294 Eh            4148.35017 eV
Virial Ratio       :            2.00736014


DFT components:
N(Alpha)           :       12.000003217965 electrons
N(Beta)            :       12.000003217965 electrons
N(Total)           :       24.000006435929 electrons
E(X)               :      -14.827723244268 Eh       
E(C)               :       -0.772877079379 Eh       
E(XC)              :      -15.600600323647 Eh       
DFET-embed. en.    :        0.000000000000 Eh       

---------------
SCF CONVERGENCE
---------------

  Last Energy change         ...   -1.7083e-09  Tolerance :   1.0000e-08
  Last MAX-Density change    ...    6.6613e-16  Tolerance :   1.0000e-07
  Last RMS-Density change    ...    1.5882e-17  Tolerance :   5.0000e-09
  Last Orbital Gradient      ...    2.0335e-06  Tolerance :   1.0000e-05
  Last Orbital Rotation      ...    2.3842e-06  Tolerance :   1.0000e-05

             **** THE GBW FILE WAS UPDATED (ox_gs_D_orca0003.gbw) ****
             **** DENSITY ox_gs_D_orca0003.scfp WAS UPDATED ****
             **** ENERGY FILE WAS UPDATED (ox_gs_D_orca0003.en.tmp) ****
             **** THE GBW FILE WAS UPDATED (ox_gs_D_orca0003.gbw) ****
             **** DENSITY ox_gs_D_orca0003.scfp WAS UPDATED ****
----------------
ORBITAL ENERGIES
----------------

  NO   OCC          E(Eh)            E(eV) 
   0   2.0000     -19.213110      -522.8153 
   1   2.0000     -10.325225      -280.9637 
   2   2.0000     -10.281027      -279.7610 
   3   2.0000      -1.012745       -27.5582 
   4   2.0000      -0.750780       -20.4298 
   5   2.0000      -0.619098       -16.8465 
   6   2.0000      -0.504867       -13.7381 
   7   2.0000      -0.489409       -13.3175 
   8   2.0000      -0.404514       -11.0074 
   9   2.0000      -0.381000       -10.3676 
  10   2.0000      -0.302696        -8.2368 
  11   2.0000      -0.268147        -7.2966 
  12   0.0000      -0.091780        -2.4975 
  13   0.0000       0.038283         1.0417 
  14   0.0000       0.071061         1.9337 
  15   0.0000       0.075036         2.0418 
  16   0.0000       0.114567         3.1175 
  17   0.0000       0.142094         3.8666 
  18   0.0000       0.184736         5.0269 
  19   0.0000       0.198875         5.4117 
  20   0.0000       0.239242         6.5101 
  21   0.0000       0.248087         6.7508 
  22   0.0000       0.275700         7.5022 
  23   0.0000       0.320551         8.7226 
  24   0.0000       0.364123         9.9083 
  25   0.0000       0.367537        10.0012 
  26   0.0000       0.399399        10.8682 
  27   0.0000       0.403721        10.9858 
  28   0.0000       0.427027        11.6200 
  29   0.0000       0.477012        12.9802 
  30   0.0000       0.506198        13.7743 
  31   0.0000       0.515203        14.0194 
  32   0.0000       0.548453        14.9242 
  33   0.0000       0.632151        17.2017 
  34   0.0000       0.679744        18.4968 
  35   0.0000       0.764315        20.7981 
  36   0.0000       0.780235        21.2313 
  37   0.0000       0.840505        22.8713 
  38   0.0000       0.861838        23.4518 
  39   0.0000       0.930481        25.3197 
  40   0.0000       0.944060        25.6892 
  41   0.0000       1.034411        28.1477 
  42   0.0000       1.074240        29.2316 
  43   0.0000       1.094413        29.7805 
  44   0.0000       1.180934        32.1349 
  45   0.0000       1.349269        36.7155 
  46   0.0000       1.396688        38.0058 
  47   0.0000       1.449441        39.4413 
  48   0.0000       1.506012        40.9807 
  49   0.0000       1.532077        41.6899 
  50   0.0000       1.555871        42.3374 
  51   0.0000       1.585344        43.1394 
  52   0.0000       1.657493        45.1027 
  53   0.0000       1.671676        45.4886 
  54   0.0000       1.693422        46.0804 
  55   0.0000       1.754014        47.7291 
  56   0.0000       1.803203        49.0677 
  57   0.0000       1.820788        49.5462 
  58   0.0000       1.876893        51.0729 
  59   0.0000       1.917619        52.1811 
  60   0.0000       1.992318        54.2137 
  61   0.0000       2.049269        55.7634 
  62   0.0000       2.102020        57.1989 
  63   0.0000       2.214290        60.2539 
  64   0.0000       2.278288        61.9954 
  65   0.0000       2.322830        63.2074 
  66   0.0000       2.390002        65.0353 
  67   0.0000       2.408791        65.5465 
  68   0.0000       2.447766        66.6071 
  69   0.0000       2.504176        68.1421 
  70   0.0000       2.511640        68.3452 
  71   0.0000       2.584804        70.3361 
  72   0.0000       2.623110        71.3785 
  73   0.0000       2.686548        73.1047 
  74   0.0000       2.756958        75.0206 
  75   0.0000       2.771613        75.4194 
  76   0.0000       2.863142        77.9101 
  77   0.0000       2.915111        79.3242 
  78   0.0000       2.965714        80.7012 
  79   0.0000       3.001534        81.6759 
  80   0.0000       3.022134        82.2364 
  81   0.0000       3.073854        83.6438 
  82   0.0000       3.097928        84.2989 
  83   0.0000       3.130876        85.1955 
  84   0.0000       3.173856        86.3650 
  85   0.0000       3.186187        86.7006 
  86   0.0000       3.284796        89.3839 
  87   0.0000       3.303296        89.8872 
  88   0.0000       3.473213        94.5109 
  89   0.0000       3.498412        95.1966 
  90   0.0000       3.564654        96.9992 
  91   0.0000       3.658326        99.5481 
  92   0.0000       3.698259       100.6347 
  93   0.0000       3.798682       103.3674 
  94   0.0000       3.993464       108.6677 
  95   0.0000       4.100377       111.5769 
  96   0.0000       4.126244       112.2808 
  97   0.0000       4.183341       113.8345 
  98   0.0000       4.332053       117.8811 
  99   0.0000       4.529744       123.2606 
 100   0.0000       4.552235       123.8726 
 101   0.0000       4.730852       128.7330 
 102   0.0000       5.229113       142.2914 
 103   0.0000       5.251374       142.8972 
 104   0.0000       5.365656       146.0069 
 105   0.0000       5.390688       146.6881 
 106   0.0000       5.731947       155.9742 
 107   0.0000       5.752119       156.5231 
 108   0.0000       5.917875       161.0336 
 109   0.0000       6.393871       173.9861 
 110   0.0000       6.480331       176.3388 
 111   0.0000       6.767563       184.1548 
 112   0.0000       6.888032       187.4329 
 113   0.0000       6.970011       189.6636 
 114   0.0000      21.982770       598.1816 
 115   0.0000      22.354445       608.2954 
 116   0.0000      43.696129      1189.0321 

                    ********************************
                    * MULLIKEN POPULATION ANALYSIS *
                    ********************************

-----------------------
MULLIKEN ATOMIC CHARGES
-----------------------
   0 O :   -0.359274
   1 C :   -0.036341
   2 C :   -0.158312
   3 H :    0.127961
   4 H :    0.108348
   5 H :    0.170795
   6 H :    0.146824
Sum of atomic charges:   -0.0000000

--------------------------------
MULLIKEN REDUCED ORBITAL CHARGES
--------------------------------
  0 O s       :     3.912353  s :     3.912353
      pz      :     1.903667  p :     4.420564
      px      :     1.291539
      py      :     1.225358
      dz2     :     0.003562  d :     0.025063
      dxz     :     0.000487
      dyz     :     0.005031
      dx2y2   :     0.008403
      dxy     :     0.007580
      f0      :     0.000146  f :     0.001294
      f+1     :     0.000074
      f-1     :     0.000321
      f+2     :     0.000143
      f-2     :     0.000032
      f+3     :     0.000282
      f-3     :     0.000296
  1 C s       :     3.192192  s :     3.192192
      pz      :     1.056961  p :     2.684355
      px      :     0.912962
      py      :     0.714432
      dz2     :     0.010333  d :     0.149398
      dxz     :     0.021056
      dyz     :     0.044692
      dx2y2   :     0.026449
      dxy     :     0.046868
      f0      :     0.001693  f :     0.010395
      f+1     :     0.001164
      f-1     :     0.000766
      f+2     :     0.002951
      f-2     :     0.000118
      f+3     :     0.002099
      f-3     :     0.001604
  2 C s       :     3.308869  s :     3.308869
      pz      :     1.033722  p :     2.778133
      px      :     0.981014
      py      :     0.763397
      dz2     :     0.006361  d :     0.065407
      dxz     :     0.025310
      dyz     :     0.008079
      dx2y2   :     0.008763
      dxy     :     0.016894
      f0      :     0.000554  f :     0.005903
      f+1     :     0.000995
      f-1     :     0.000185
      f+2     :     0.000945
      f-2     :     0.000504
      f+3     :     0.001136
      f-3     :     0.001584
  3 H s       :     0.851684  s :     0.851684
      pz      :     0.010636  p :     0.020355
      px      :     0.005700
      py      :     0.004019
  4 H s       :     0.872231  s :     0.872231
      pz      :     0.009688  p :     0.019421
      px      :     0.006174
      py      :     0.003559
  5 H s       :     0.807004  s :     0.807004
      pz      :     0.009802  p :     0.022201
      px      :     0.008264
      py      :     0.004135
  6 H s       :     0.837201  s :     0.837201
      pz      :     0.008543  p :     0.015976
      px      :     0.004569
      py      :     0.002863


                     *******************************
                     * LOEWDIN POPULATION ANALYSIS *
                     *******************************

----------------------
LOEWDIN ATOMIC CHARGES
----------------------
   0 O :   -0.041896
   1 C :   -0.426220
   2 C :   -0.087619
   3 H :    0.132525
   4 H :    0.124151
   5 H :    0.134188
   6 H :    0.164870

-------------------------------
LOEWDIN REDUCED ORBITAL CHARGES
-------------------------------
  0 O s       :     3.561982  s :     3.561982
      pz      :     1.829883  p :     4.421678
      px      :     1.249545
      py      :     1.342250
      dz2     :     0.007626  d :     0.054700
      dxz     :     0.000816
      dyz     :     0.012874
      dx2y2   :     0.017564
      dxy     :     0.015819
      f0      :     0.000341  f :     0.003536
      f+1     :     0.000112
      f-1     :     0.000601
      f+2     :     0.000625
      f-2     :     0.000049
      f+3     :     0.001067
      f-3     :     0.000742
  1 C s       :     2.840446  s :     2.840446
      pz      :     1.043219  p :     2.926264
      px      :     1.062101
      py      :     0.820945
      dz2     :     0.063889  d :     0.585719
      dxz     :     0.116093
      dyz     :     0.117681
      dx2y2   :     0.137050
      dxy     :     0.151006
      f0      :     0.010429  f :     0.073790
      f+1     :     0.005567
      f-1     :     0.007103
      f+2     :     0.016919
      f-2     :     0.000891
      f+3     :     0.015163
      f-3     :     0.017718
  2 C s       :     2.920696  s :     2.920696
      pz      :     1.055035  p :     2.866914
      px      :     1.101807
      py      :     0.710071
      dz2     :     0.029743  d :     0.270758
      dxz     :     0.119779
      dyz     :     0.019008
      dx2y2   :     0.046880
      dxy     :     0.055348
      f0      :     0.003286  f :     0.029251
      f+1     :     0.003413
      f-1     :     0.001410
      f+2     :     0.004906
      f-2     :     0.002161
      f+3     :     0.005975
      f-3     :     0.008100
  3 H s       :     0.811984  s :     0.811984
      pz      :     0.030351  p :     0.055491
      px      :     0.014726
      py      :     0.010413
  4 H s       :     0.822350  s :     0.822350
      pz      :     0.028047  p :     0.053499
      px      :     0.015799
      py      :     0.009652
  5 H s       :     0.802005  s :     0.802005
      pz      :     0.030670  p :     0.063807
      px      :     0.021563
      py      :     0.011574
  6 H s       :     0.794517  s :     0.794517
      pz      :     0.023263  p :     0.040613
      px      :     0.010284
      py      :     0.007067


                      *****************************
                      * MAYER POPULATION ANALYSIS *
                      *****************************

  NA   - Mulliken gross atomic population
  ZA   - Total nuclear charge
  QA   - Mulliken gross atomic charge
  VA   - Mayer's total valence
  BVA  - Mayer's bonded valence
  FA   - Mayer's free valence

  ATOM       NA         ZA         QA         VA         BVA        FA
  0 O      8.3593     8.0000    -0.3593     1.8670     1.8670    -0.0000
  1 C      6.0363     6.0000    -0.0363     4.0067     4.0067    -0.0000
  2 C      6.1583     6.0000    -0.1583     3.8704     3.8704     0.0000
  3 H      0.8720     1.0000     0.1280     0.9673     0.9673     0.0000
  4 H      0.8917     1.0000     0.1083     0.9611     0.9611    -0.0000
  5 H      0.8292     1.0000     0.1708     0.9506     0.9506     0.0000
  6 H      0.8532     1.0000     0.1468     0.9587     0.9587     0.0000

  Mayer bond orders larger than 0.100000
B(  0-O ,  1-C ) :   0.9671 B(  0-O ,  2-C ) :   0.8878 B(  1-C ,  2-C ) :   1.1086 
B(  1-C ,  3-H ) :   0.9637 B(  1-C ,  4-H ) :   0.9468 B(  2-C ,  5-H ) :   0.9326 
B(  2-C ,  6-H ) :   0.9301 

-------
TIMINGS
-------

Total SCF time: 0 days 0 hours 0 min 2 sec 

Total time                  ....       2.978 sec
Sum of individual times     ....       2.567 sec  ( 86.2%)

Fock matrix formation       ....       2.295 sec  ( 77.1%)
  Split-RI-J                ....       0.245 sec  ( 10.7% of F)
  Chain of spheres X        ....       1.551 sec  ( 67.6% of F)
  XC integration            ....       0.423 sec  ( 18.4% of F)
    Basis function eval.    ....       0.112 sec  ( 26.6% of XC)
    Density eval.           ....       0.083 sec  ( 19.7% of XC)
    XC-Functional eval.     ....       0.025 sec  (  5.8% of XC)
    XC-Potential eval.      ....       0.140 sec  ( 33.2% of XC)
Diagonalization             ....       0.016 sec  (  0.5%)
Density matrix formation    ....       0.001 sec  (  0.0%)
Population analysis         ....       0.003 sec  (  0.1%)
Initial guess               ....       0.017 sec  (  0.6%)
Orbital Transformation      ....       0.000 sec  (  0.0%)
Orbital Orthonormalization  ....       0.000 sec  (  0.0%)
DIIS solution               ....       0.014 sec  (  0.5%)
SOSCF solution              ....       0.013 sec  (  0.4%)
Grid generation             ....       0.208 sec  (  7.0%)

Maximum memory used throughout the entire SCF-calculation: 61.0 MB


-------------------------------------------------------------------------------
                          DFT DISPERSION CORRECTION                            
                                                                               
                              DFTD3 V3.1  Rev 1                                
                          USING Becke-Johnson damping                          
-------------------------------------------------------------------------------
The PBE0 functional is recognized
Active option DFTDOPT                   ...         4   

molecular C6(AA) [au] = 391.442322 


            DFT-D V3
 parameters
 s6 scaling factor         :     1.0000 
 a1 scaling factor         :     0.4145 
 s8 scaling factor         :     1.2177 
 a2 scaling factor         :     4.8593 
 ad hoc parameters k1-k3   :    16.0000     1.3333    -4.0000 

 Edisp/kcal,au: -1.636065981694  -0.002607236822 
 E6   /kcal   :  -1.067522942 
 E8   /kcal   :  -0.568543039 
 % E8         :  34.750617995 

-------------------------   ----------------
Dispersion correction           -0.002607237
-------------------------   ----------------


-------------------------   --------------------
FINAL SINGLE POINT ENERGY      -153.573726441668
-------------------------   --------------------



           ************************************************************
           *        Program running with 8 parallel MPI-processes     *
           *              working on a common directory               *
           ************************************************************
------------------------------------------------------------------------------
                         ORCA SCF GRADIENT CALCULATION
------------------------------------------------------------------------------

 ... reading COSX grid (gridx3)
Gradient of the Kohn-Sham DFT energy:
Kohn-Sham wavefunction type      ... RKS
Hartree-Fock exchange scaling    ...    0.250
Number of operators              ...    1
Number of atoms                  ...    7
Basis set dimensions             ...  117
Integral neglect threshold       ... 2.5e-11
Integral primitive cutoff        ... 2.5e-12
SHARK Integral package           ... ON

Nuc. rep. gradient       (SHARK) ... done (  0.0 sec)
HCore & Overlap gradient (SHARK) ... done (  0.0 sec)
RI-J gradient            (SHARK) ... done (  0.1 sec)
COSX-gradient                    ... done (  0.3 sec)
Exchange-correlation gradient    ... done
Dispersion correction            ... done

------------------
CARTESIAN GRADIENT
------------------

   1   O   :   -0.078293337    0.032091277    0.013457419
   2   C   :    0.073500050   -0.023115834    0.006827568
   3   C   :   -0.020140144    0.009858692   -0.073178921
   4   H   :   -0.017311371    0.027707323    0.019520535
   5   H   :   -0.014031930    0.009544520   -0.022080260
   6   H   :    0.020804532   -0.021163145   -0.001416770
   7   H   :    0.035654142   -0.034908357    0.056935856

Difference to translation invariance:
           :    0.0001819414    0.0000144781    0.0000654269

Difference to rotation invariance:
           :    0.0000261777    0.0000496380    0.0000435897

Norm of the cartesian gradient     ...    0.1673922522
RMS gradient                       ...    0.0365279841
MAX gradient                       ...    0.0782933372

-------
TIMINGS
-------

Total SCF gradient time            ...        0.693 sec

One electron gradient       ....       0.010 sec  (  1.4%)
RI-J Coulomb gradient       ....       0.080 sec  ( 11.6%)
COSX gradient               ....       0.308 sec  ( 44.5%)
XC gradient                 ....       0.148 sec  ( 21.4%)

Maximum memory used throughout the entire SCFGRAD-calculation: 35.9 MB

                            ***************************************
                            *     ORCA property calculations      *
                            ***************************************

                                    ---------------------
                                    Active property flags
                                    ---------------------
   (+) Dipole Moment


------------------------------------------------------------------------------
                       ORCA ELECTRIC PROPERTIES CALCULATION
------------------------------------------------------------------------------

Dipole Moment Calculation                       ... on
Quadrupole Moment Calculation                   ... off
Polarizability Calculation                      ... off
GBWName                                         ... ox_gs_D_orca0003.gbw
Electron density                                ... ox_gs_D_orca0003.scfp
The origin for moment calculation is the CENTER OF MASS  = (-0.486850,  0.061083 -0.072479)

-------------
DIPOLE MOMENT
-------------
                                X             Y             Z
Electronic contribution:     -0.52053       1.61410      -0.17997
Nuclear contribution   :      0.99534      -2.73242       0.13622
                        -----------------------------------------
Total Dipole Moment    :      0.47482      -1.11832      -0.04375
                        -----------------------------------------
Magnitude (a.u.)       :      1.21573
Magnitude (Debye)      :      3.09014



--------------------
Rotational spectrum 
--------------------
 
Rotational constants in cm-1:     0.995292     0.475652     0.374729 
Rotational constants in MHz : 29838.105977 14259.689495 11234.104916 

 Dipole components along the rotational axes: 
x,y,z [a.u.] :    -1.099456    -0.518803    -0.006071 
x,y,z [Debye]:    -2.794595    -1.318693    -0.015432 

 

Timings for individual modules:

Sum of individual times         ...        4.358 sec (=   0.073 min)
GTO integral calculation        ...        0.306 sec (=   0.005 min)   7.0 %
SCF iterations                  ...        3.151 sec (=   0.053 min)  72.3 %
SCF Gradient evaluation         ...        0.901 sec (=   0.015 min)  20.7 %
                             ****ORCA TERMINATED NORMALLY****
TOTAL RUN TIME: 0 days 0 hours 0 minutes 4 seconds 701 msec
