
                                 *****************
                                 * O   R   C   A *
                                 *****************

                                            #,                                       
                                            ###                                      
                                            ####                                     
                                            #####                                    
                                            ######                                   
                                           ########,                                 
                                     ,,################,,,,,                         
                               ,,#################################,,                 
                          ,,##########################################,,             
                       ,#########################################, ''#####,          
                    ,#############################################,,   '####,        
                  ,##################################################,,,,####,       
                ,###########''''           ''''###############################       
              ,#####''   ,,,,##########,,,,          '''####'''          '####       
            ,##' ,,,,###########################,,,                        '##       
           ' ,,###''''                  '''############,,,                           
         ,,##''                                '''############,,,,        ,,,,,,###''
      ,#''                                            '''#######################'''  
     '                                                          ''''####''''         
             ,#######,   #######,   ,#######,      ##                                
            ,#'     '#,  ##    ##  ,#'     '#,    #''#        ######   ,####,        
            ##       ##  ##   ,#'  ##            #'  '#       #        #'  '#        
            ##       ##  #######   ##           ,######,      #####,   #    #        
            '#,     ,#'  ##    ##  '#,     ,#' ,#      #,         ##   #,  ,#        
             '#######'   ##     ##  '#######'  #'      '#     #####' # '####'        



                  #######################################################
                  #                        -***-                        #
                  #          Department of theory and spectroscopy      #
                  #    Directorship and core code : Frank Neese         #
                  #        Max Planck Institute fuer Kohlenforschung    #
                  #                Kaiser Wilhelm Platz 1               #
                  #                 D-45470 Muelheim/Ruhr               #
                  #                      Germany                        #
                  #                                                     #
                  #                  All rights reserved                #
                  #                        -***-                        #
                  #######################################################


                         Program Version 5.0.2 -  RELEASE  -


 With contributions from (in alphabetic order):
   Daniel Aravena         : Magnetic Suceptibility
   Michael Atanasov       : Ab Initio Ligand Field Theory (pilot matlab implementation)
   Alexander A. Auer      : GIAO ZORA, VPT2 properties, NMR spectrum
   Ute Becker             : Parallelization
   Giovanni Bistoni       : ED, misc. LED, open-shell LED, HFLD
   Martin Brehm           : Molecular dynamics
   Dmytro Bykov           : SCF Hessian
   Vijay G. Chilkuri      : MRCI spin determinant printing, contributions to CSF-ICE
   Dipayan Datta          : RHF DLPNO-CCSD density
   Achintya Kumar Dutta   : EOM-CC, STEOM-CC
   Dmitry Ganyushin       : Spin-Orbit,Spin-Spin,Magnetic field MRCI
   Miquel Garcia          : C-PCM and meta-GGA Hessian, CC/C-PCM, Gaussian charge scheme
   Yang Guo               : DLPNO-NEVPT2, F12-NEVPT2, CIM, IAO-localization
   Andreas Hansen         : Spin unrestricted coupled pair/coupled cluster methods
   Benjamin Helmich-Paris : MC-RPA, TRAH-SCF, COSX integrals
   Lee Huntington         : MR-EOM, pCC
   Robert Izsak           : Overlap fitted RIJCOSX, COSX-SCS-MP3, EOM
   Marcus Kettner         : VPT2
   Christian Kollmar      : KDIIS, OOCD, Brueckner-CCSD(T), CCSD density, CASPT2, CASPT2-K
   Simone Kossmann        : Meta GGA functionals, TD-DFT gradient, OOMP2, MP2 Hessian
   Martin Krupicka        : Initial AUTO-CI
   Lucas Lang             : DCDCAS
   Marvin Lechner         : AUTO-CI (C++ implementation), FIC-MRCC
   Dagmar Lenk            : GEPOL surface, SMD
   Dimitrios Liakos       : Extrapolation schemes; Compound Job, initial MDCI parallelization
   Dimitrios Manganas     : Further ROCIS development; embedding schemes
   Dimitrios Pantazis     : SARC Basis sets
   Anastasios Papadopoulos: AUTO-CI, single reference methods and gradients
   Taras Petrenko         : DFT Hessian,TD-DFT gradient, ASA, ECA, R-Raman, ABS, FL, XAS/XES, NRVS
   Peter Pinski           : DLPNO-MP2, DLPNO-MP2 Gradient
   Christoph Reimann      : Effective Core Potentials
   Marius Retegan         : Local ZFS, SOC
   Christoph Riplinger    : Optimizer, TS searches, QM/MM, DLPNO-CCSD(T), (RO)-DLPNO pert. Triples
   Tobias Risthaus        : Range-separated hybrids, TD-DFT gradient, RPA, STAB
   Michael Roemelt        : Original ROCIS implementation
   Masaaki Saitow         : Open-shell DLPNO-CCSD energy and density
   Barbara Sandhoefer     : DKH picture change effects
   Avijit Sen             : IP-ROCIS
   Kantharuban Sivalingam : CASSCF convergence, NEVPT2, FIC-MRCI
   Bernardo de Souza      : ESD, SOC TD-DFT
   Georgi Stoychev        : AutoAux, RI-MP2 NMR, DLPNO-MP2 response
   Willem Van den Heuvel  : Paramagnetic NMR
   Boris Wezisla          : Elementary symmetry handling
   Frank Wennmohs         : Technical directorship


 We gratefully acknowledge several colleagues who have allowed us to
 interface, adapt or use parts of their codes:
   Stefan Grimme, W. Hujo, H. Kruse, P. Pracht,  : VdW corrections, initial TS optimization,
                  C. Bannwarth, S. Ehlert          DFT functionals, gCP, sTDA/sTD-DF
   Ed Valeev, F. Pavosevic, A. Kumar             : LibInt (2-el integral package), F12 methods
   Garnet Chan, S. Sharma, J. Yang, R. Olivares  : DMRG
   Ulf Ekstrom                                   : XCFun DFT Library
   Mihaly Kallay                                 : mrcc  (arbitrary order and MRCC methods)
   Jiri Pittner, Ondrej Demel                    : Mk-CCSD
   Frank Weinhold                                : gennbo (NPA and NBO analysis)
   Christopher J. Cramer and Donald G. Truhlar   : smd solvation model
   Lars Goerigk                                  : TD-DFT with DH, B97 family of functionals
   V. Asgeirsson, H. Jonsson                     : NEB implementation
   FAccTs GmbH                                   : IRC, NEB, NEB-TS, DLPNO-Multilevel, CI-OPT
                                                   MM, QMMM, 2- and 3-layer-ONIOM, Crystal-QMMM,
                                                   LR-CPCM, SF, NACMEs, symmetry and pop. for TD-DFT,
                                                   nearIR, NL-DFT gradient (VV10), updates on ESD,
                                                   ML-optimized integration grids
   S Lehtola, MJT Oliveira, MAL Marques          : LibXC Library
   Liviu Ungur et al                             : ANISO software


 Your calculation uses the libint2 library for the computation of 2-el integrals
 For citations please refer to: http://libint.valeyev.net

 Your ORCA version has been built with support for libXC version: 5.1.0
 For citations please refer to: https://tddft.org/programs/libxc/

 This ORCA versions uses:
   CBLAS   interface :  Fast vector & matrix operations
   LAPACKE interface :  Fast linear algebra routines
   SCALAPACK package :  Parallel linear algebra routines
   Shared memory     :  Shared parallel matrices
   BLAS/LAPACK       :  OpenBLAS 0.3.15  USE64BITINT DYNAMIC_ARCH NO_AFFINITY SkylakeX SINGLE_THREADED
        Core in use  :  SkylakeX
   Copyright (c) 2011-2014, The OpenBLAS Project


Your calculation utilizes the atom-pairwise dispersion correction
with the Becke-Johnson damping scheme (D3BJ)
Cite in your paper:
S.Grimme, S.Ehrlich, L.Goerigk, J Comput Chem, (2011), 32, 1456–1465 
S.Grimme, J.Antony, S.Ehrlich and H.Krieg, J.Chem.Phys., 132, (2010), 154104 
   

================================================================================

----- Orbital basis set information -----
Your calculation utilizes the basis: def2-TZVP
   F. Weigend and R. Ahlrichs, Phys. Chem. Chem. Phys. 7, 3297 (2005).

----- AuxJ basis set information -----
Your calculation utilizes the auxiliary basis: def2/J
   F. Weigend, Phys. Chem. Chem. Phys. 8, 1057 (2006).

================================================================================
                                        WARNINGS
                       Please study these warnings very carefully!
================================================================================


INFO   : the flag for use of the SHARK integral package has been found!

================================================================================
                                       INPUT FILE
================================================================================
NAME = ox_gs_A_orca0048.inp
|  1> ! engrad PBE0 D3BJ def2-TZVP  
|  2> %pal nprocs 8 end
|  3> %maxcore 3000
|  4>  
|  5> *xyz 0 1 
|  6> O   0.05247768576596676 0.7401625494219717 0.06586981328171629
|  7> C   -0.71900960976538 -0.34325744636873673 -0.034459390904478394
|  8> C   0.8156877301582625 -0.4371249508268676 -0.032570900180722416
|  9> H   -1.288017221702716 -0.684288175409716 0.9411845173200958
| 10> H   -1.237680995598225 -0.696955910196929 -0.9211939496130491
| 11> H   1.370936337930593 -0.5818937014949644 -0.8981600365162984
| 12> H   1.26572304390841 -0.6622692436640869 0.9506520686365209
| 13> *
| 14> 
| 15>                          ****END OF INPUT****
================================================================================

                     *******************************
                     * Energy+Gradient Calculation *
                     *******************************

---------------------------------
CARTESIAN COORDINATES (ANGSTROEM)
---------------------------------
  O      0.052478    0.740163    0.065870
  C     -0.719010   -0.343257   -0.034459
  C      0.815688   -0.437125   -0.032571
  H     -1.288017   -0.684288    0.941185
  H     -1.237681   -0.696956   -0.921194
  H      1.370936   -0.581894   -0.898160
  H      1.265723   -0.662269    0.950652

----------------------------
CARTESIAN COORDINATES (A.U.)
----------------------------
  NO LB      ZA    FRAG     MASS         X           Y           Z
   0 O     8.0000    0    15.999    0.099168    1.398705    0.124476
   1 C     6.0000    0    12.011   -1.358731   -0.648663   -0.065119
   2 C     6.0000    0    12.011    1.541426   -0.826046   -0.061550
   3 H     1.0000    0     1.008   -2.434000   -1.293117    1.778581
   4 H     1.0000    0     1.008   -2.338878   -1.317056   -1.740804
   5 H     1.0000    0     1.008    2.590694   -1.099620   -1.697276
   6 H     1.0000    0     1.008    2.391870   -1.251507    1.796472

--------------------------------
INTERNAL COORDINATES (ANGSTROEM)
--------------------------------
 O      0   0   0     0.000000000000     0.00000000     0.00000000
 C      1   0   0     1.333813136709     0.00000000     0.00000000
 C      1   2   0     1.406480004895    68.20370870     0.00000000
 H      2   1   3     1.179810432336   116.84300788   107.22277912
 H      2   1   3     1.086471714958   127.00977103   258.09617355
 H      3   1   2     1.038510260202   117.71977291   111.85949390
 H      3   1   2     1.104513079429   109.23341719   252.79102613

---------------------------
INTERNAL COORDINATES (A.U.)
---------------------------
 O      0   0   0     0.000000000000     0.00000000     0.00000000
 C      1   0   0     2.520541542207     0.00000000     0.00000000
 C      1   2   0     2.657862022088    68.20370870     0.00000000
 H      2   1   3     2.229518607058   116.84300788   107.22277912
 H      2   1   3     2.053133993523   127.00977103   258.09617355
 H      3   1   2     1.962499979049   117.71977291   111.85949390
 H      3   1   2     2.087227231454   109.23341719   252.79102613

---------------------
BASIS SET INFORMATION
---------------------
There are 3 groups of distinct atoms

 Group   1 Type O   : 11s6p2d1f contracted to 5s3p2d1f pattern {62111/411/11/1}
 Group   2 Type C   : 11s6p2d1f contracted to 5s3p2d1f pattern {62111/411/11/1}
 Group   3 Type H   : 5s1p contracted to 3s1p pattern {311/1}

Atom   0O    basis set group =>   1
Atom   1C    basis set group =>   2
Atom   2C    basis set group =>   2
Atom   3H    basis set group =>   3
Atom   4H    basis set group =>   3
Atom   5H    basis set group =>   3
Atom   6H    basis set group =>   3
---------------------------------
AUXILIARY/J BASIS SET INFORMATION
---------------------------------
There are 3 groups of distinct atoms

 Group   1 Type O   : 12s5p4d2f1g contracted to 6s4p3d1f1g pattern {711111/2111/211/2/1}
 Group   2 Type C   : 12s5p4d2f1g contracted to 6s4p3d1f1g pattern {711111/2111/211/2/1}
 Group   3 Type H   : 5s2p1d contracted to 3s1p1d pattern {311/2/1}

Atom   0O    basis set group =>   1
Atom   1C    basis set group =>   2
Atom   2C    basis set group =>   2
Atom   3H    basis set group =>   3
Atom   4H    basis set group =>   3
Atom   5H    basis set group =>   3
Atom   6H    basis set group =>   3


           ************************************************************
           *        Program running with 8 parallel MPI-processes     *
           *              working on a common directory               *
           ************************************************************
------------------------------------------------------------------------------
                           ORCA GTO INTEGRAL CALCULATION
                           -- RI-GTO INTEGRALS CHOSEN --
------------------------------------------------------------------------------
------------------------------------------------------------------------------
                   ___                                                        
                  /   \      - P O W E R E D   B Y -                         
                 /     \                                                     
                 |  |  |   _    _      __       _____    __    __             
                 |  |  |  | |  | |    /  \     |  _  \  |  |  /  |          
                  \  \/   | |  | |   /    \    | | | |  |  | /  /          
                 / \  \   | |__| |  /  /\  \   | |_| |  |  |/  /          
                |  |  |   |  __  | /  /__\  \  |    /   |      \           
                |  |  |   | |  | | |   __   |  |    \   |  |\   \          
                \     /   | |  | | |  |  |  |  | |\  \  |  | \   \       
                 \___/    |_|  |_| |__|  |__|  |_| \__\ |__|  \__/        
                                                                              
                      - O R C A' S   B I G   F R I E N D -                    
                                      &                                       
                       - I N T E G R A L  F E E D E R -                       
                                                                              
 v1 FN, 2020, v2 2021                                                         
------------------------------------------------------------------------------


Reading SHARK input file ox_gs_A_orca0048.SHARKINP.tmp ... ok
----------------------
SHARK INTEGRAL PACKAGE
----------------------

Number of atoms                             ...      7
Number of basis functions                   ...    117
Number of shells                            ...     49
Maximum angular momentum                    ...      3
Integral batch strategy                     ... SHARK/LIBINT Hybrid
RI-J (if used) integral strategy            ... SPLIT-RIJ (Revised 2003 algorithm where possible)
Printlevel                                  ...      1
Contraction scheme used                     ... SEGMENTED contraction
Coulomb Range Separation                    ... NOT USED
Exchange Range Separation                   ... NOT USED
Finite Nucleus Model                        ... NOT USED
Auxiliary Coulomb fitting basis             ... AVAILABLE
   # of basis functions in Aux-J            ...    191
   # of shells in Aux-J                     ...     65
   Maximum angular momentum in Aux-J        ...      4
Auxiliary J/K fitting basis                 ... NOT available
Auxiliary Correlation fitting basis         ... NOT available
Auxiliary 'external' fitting basis          ... NOT available
Integral threshold                          ...     2.500000e-11
Primitive cut-off                           ...     2.500000e-12
Primitive pair pre-selection threshold      ...     2.500000e-12

Calculating pre-screening integrals         ... done (  0.0 sec) Dimension = 49
Organizing shell pair data                  ... done (  0.0 sec)
Shell pair information
Total number of shell pairs                 ...      1225
Shell pairs after pre-screening             ...      1221
Total number of primitive shell pairs       ...      3648
Primitive shell pairs kept                  ...      3155
          la=0 lb=0:    374 shell pairs
          la=1 lb=0:    351 shell pairs
          la=1 lb=1:     91 shell pairs
          la=2 lb=0:    162 shell pairs
          la=2 lb=1:     78 shell pairs
          la=2 lb=2:     21 shell pairs
          la=3 lb=0:     81 shell pairs
          la=3 lb=1:     39 shell pairs
          la=3 lb=2:     18 shell pairs
          la=3 lb=3:      6 shell pairs

Calculating one electron integrals          ... done (  0.0 sec)
Calculating RI/J V-Matrix + Cholesky decomp.... done (  0.0 sec)
Calculating Nuclear repulsion               ... done (  0.0 sec) ENN=     75.939450395516 Eh

SHARK setup successfully completed in   0.1 seconds

Maximum memory used throughout the entire GTOINT-calculation: 14.9 MB


           ************************************************************
           *        Program running with 8 parallel MPI-processes     *
           *              working on a common directory               *
           ************************************************************
-------------------------------------------------------------------------------
                                 ORCA SCF
-------------------------------------------------------------------------------

------------
SCF SETTINGS
------------
Hamiltonian:
 Density Functional     Method          .... DFT(GTOs)
 Exchange Functional    Exchange        .... PBE
   PBE kappa parameter   XKappa         ....  0.804000
   PBE mue parameter    XMuePBE         ....  0.219520
 Correlation Functional Correlation     .... PBE
   PBE beta parameter  CBetaPBE         ....  0.066725
 LDA part of GGA corr.  LDAOpt          .... PW91-LDA
 Gradients option       PostSCFGGA      .... off
 Hybrid DFT is turned on
   Fraction HF Exchange ScalHFX         ....  0.250000
   Scaling of DF-GGA-X  ScalDFX         ....  0.750000
   Scaling of DF-GGA-C  ScalDFC         ....  1.000000
   Scaling of DF-LDA-C  ScalLDAC        ....  1.000000
   Perturbative correction              ....  0.000000
   Density functional embedding theory  .... OFF
   NL short-range parameter             ....  6.900000
 RI-approximation to the Coulomb term is turned on
   Number of AuxJ basis functions       .... 191
   RIJ-COSX (HFX calculated with COS-X)).... on


General Settings:
 Integral files         IntName         .... ox_gs_A_orca0048
 Hartree-Fock type      HFTyp           .... RHF
 Total Charge           Charge          ....    0
 Multiplicity           Mult            ....    1
 Number of Electrons    NEL             ....   24
 Basis Dimension        Dim             ....  117
 Nuclear Repulsion      ENuc            ....     75.9394503955 Eh

Convergence Acceleration:
 DIIS                   CNVDIIS         .... on
   Start iteration      DIISMaxIt       ....    12
   Startup error        DIISStart       ....  0.200000
   # of expansion vecs  DIISMaxEq       ....     5
   Bias factor          DIISBfac        ....   1.050
   Max. coefficient     DIISMaxC        ....  10.000
 Trust-Rad. Augm. Hess. CNVTRAH         .... auto
   Auto Start mean grad. ratio tolernc. ....  1.125000
   Auto Start start iteration           ....    20
   Auto Start num. interpolation iter.  ....    10
   Max. Number of Micro iterations      ....    16
   Max. Number of Macro iterations      .... Maxiter - #DIIS iter
   Number of Davidson start vectors     ....     2
   Converg. threshold I  (grad. norm)   ....   1.000e-05
   Converg. threshold II (energy diff.) ....   1.000e-08
   Grad. Scal. Fac. for Micro threshold ....   0.100
   Minimum threshold for Micro iter.    ....   0.010
   NR start threshold (gradient norm)   ....   0.001
   Initial trust radius                 ....   0.400
   Minimum AH scaling param. (alpha)    ....   1.000
   Maximum AH scaling param. (alpha)    .... 1000.000
   Orbital update algorithm             .... Taylor
   White noise on init. David. guess    .... on
   Maximum white noise                  ....   0.010
   Quad. conv. algorithm                .... NR
 SOSCF                  CNVSOSCF        .... on
   Start iteration      SOSCFMaxIt      ....   150
   Startup grad/error   SOSCFStart      ....  0.003300
 Level Shifting         CNVShift        .... on
   Level shift para.    LevelShift      ....    0.2500
   Turn off err/grad.   ShiftErr        ....    0.0010
 Zerner damping         CNVZerner       .... off
 Static damping         CNVDamp         .... on
   Fraction old density DampFac         ....    0.7000
   Max. Damping (<1)    DampMax         ....    0.9800
   Min. Damping (>=0)   DampMin         ....    0.0000
   Turn off err/grad.   DampErr         ....    0.1000
 Fernandez-Rico         CNVRico         .... off

SCF Procedure:
 Maximum # iterations   MaxIter         ....   125
 SCF integral mode      SCFMode         .... Direct
   Integral package                     .... SHARK and LIBINT hybrid scheme
 Reset frequency        DirectResetFreq ....    20
 Integral Threshold     Thresh          ....  2.500e-11 Eh
 Primitive CutOff       TCut            ....  2.500e-12 Eh

Convergence Tolerance:
 Convergence Check Mode ConvCheckMode   .... Total+1el-Energy
 Convergence forced     ConvForced      .... 0
 Energy Change          TolE            ....  1.000e-08 Eh
 1-El. energy change                    ....  1.000e-05 Eh
 Orbital Gradient       TolG            ....  1.000e-05
 Orbital Rotation angle TolX            ....  1.000e-05
 DIIS Error             TolErr          ....  5.000e-07


Diagonalization of the overlap matrix:
Smallest eigenvalue                        ... 5.580e-04
Time for diagonalization                   ...    0.001 sec
Threshold for overlap eigenvalues          ... 1.000e-08
Number of eigenvalues below threshold      ... 0
Time for construction of square roots      ...    0.001 sec
Total time needed                          ...    0.003 sec

Time for model grid setup =    0.021 sec

------------------------------
INITIAL GUESS: MODEL POTENTIAL
------------------------------
Loading Hartree-Fock densities                     ... done
Calculating cut-offs                               ... done
Initializing the effective Hamiltonian             ... done
Setting up the integral package (SHARK)            ... done
Starting the Coulomb interaction                   ... done (   0.0 sec)
Reading the grid                                   ... done
Mapping shells                                     ... done
Starting the XC term evaluation                    ... done (   0.0 sec)
  promolecular density results
     # of electrons  =     23.997360127
     EX              =    -19.551295858
     EC              =     -0.783004541
     EX+EC           =    -20.334300399
Transforming the Hamiltonian                       ... done (   0.0 sec)
Diagonalizing the Hamiltonian                      ... done (   0.0 sec)
Back transforming the eigenvectors                 ... done (   0.0 sec)
Now organizing SCF variables                       ... done
                      ------------------
                      INITIAL GUESS DONE (   0.0 sec)
                      ------------------
-------------------
DFT GRID GENERATION
-------------------

General Integration Accuracy     IntAcc      ... 4.388
Radial Grid Type                 RadialGrid  ... OptM3 with GC (2021)
Angular Grid (max. ang.)         AngularGrid ... 4 (Lebedev-302)
Angular grid pruning method      GridPruning ... 4 (adaptive)
Weight generation scheme         WeightScheme... Becke
Basis function cutoff            BFCut       ... 1.0000e-11
Integration weight cutoff        WCut        ... 1.0000e-14
Angular grids for H and He will be reduced by one unit
Partially contracted basis set               ... off
Rotationally invariant grid construction     ... off

Total number of grid points                  ...    31335
Total number of batches                      ...      494
Average number of points per batch           ...       63
Average number of grid points per atom       ...     4476
Time for grid setup =    0.113 sec

--------------------
COSX GRID GENERATION
--------------------

GRIDX 1
-------
General Integration Accuracy     IntAcc      ... 3.816
Radial Grid Type                 RadialGrid  ... OptM3 with GC (2021)
Angular Grid (max. ang.)         AngularGrid ... 1 (Lebedev-50)
Angular grid pruning method      GridPruning ... 4 (adaptive)
Weight generation scheme         WeightScheme... Becke
Basis function cutoff            BFCut       ... 1.0000e-11
Integration weight cutoff        WCut        ... 1.0000e-14
Angular grids for H and He will be reduced by one unit
Partially contracted basis set               ... on
Rotationally invariant grid construction     ... off

Total number of grid points                  ...     4035
Total number of batches                      ...       67
Average number of points per batch           ...       60
Average number of grid points per atom       ...      576
UseSFitting                                  ... on

GRIDX 2
-------
General Integration Accuracy     IntAcc      ... 4.020
Radial Grid Type                 RadialGrid  ... OptM3 with GC (2021)
Angular Grid (max. ang.)         AngularGrid ... 2 (Lebedev-110)
Angular grid pruning method      GridPruning ... 4 (adaptive)
Weight generation scheme         WeightScheme... Becke
Basis function cutoff            BFCut       ... 1.0000e-11
Integration weight cutoff        WCut        ... 1.0000e-14
Angular grids for H and He will be reduced by one unit
Partially contracted basis set               ... on
Rotationally invariant grid construction     ... off

Total number of grid points                  ...     8716
Total number of batches                      ...      140
Average number of points per batch           ...       62
Average number of grid points per atom       ...     1245
UseSFitting                                  ... on

GRIDX 3
-------
General Integration Accuracy     IntAcc      ... 4.338
Radial Grid Type                 RadialGrid  ... OptM3 with GC (2021)
Angular Grid (max. ang.)         AngularGrid ... 3 (Lebedev-194)
Angular grid pruning method      GridPruning ... 4 (adaptive)
Weight generation scheme         WeightScheme... Becke
Basis function cutoff            BFCut       ... 1.0000e-11
Integration weight cutoff        WCut        ... 1.0000e-14
Angular grids for H and He will be reduced by one unit
Partially contracted basis set               ... on
Rotationally invariant grid construction     ... off

Total number of grid points                  ...    19253
Total number of batches                      ...      305
Average number of points per batch           ...       63
Average number of grid points per atom       ...     2750
UseSFitting                                  ... on

Time for X-Grid setup             =    0.073 sec

--------------
SCF ITERATIONS
--------------
ITER       Energy         Delta-E        Max-DP      RMS-DP      [F,P]     Damp
               ***  Starting incremental Fock matrix formation  ***
  0   -153.5945597866   0.000000000000 0.03411058  0.00112706  0.1728365 0.7000
  1   -153.6225240042  -0.027964217579 0.01889854  0.00083062  0.0739731 0.7000
                               ***Turning on DIIS***
  2   -153.6339742704  -0.011450266189 0.02522445  0.00140601  0.0313186 0.0000
  3   -153.6524308099  -0.018456539555 0.01409757  0.00062080  0.0398866 0.0000
  4   -153.6560838294  -0.003653019501 0.00330948  0.00017301  0.0068671 0.0000
                      *** Initiating the SOSCF procedure ***
                           *** Shutting down DIIS ***
                      *** Re-Reading the Fockian *** 
                      *** Removing any level shift *** 
ITER      Energy       Delta-E        Grad      Rot      Max-DP    RMS-DP
  5   -153.65623991  -0.0001560826  0.000555  0.000555  0.001406  0.000060
               *** Restarting incremental Fock matrix formation ***
  6   -153.65624544  -0.0000055255  0.000133  0.000156  0.000759  0.000027
  7   -153.65624571  -0.0000002751  0.000169  0.000136  0.000397  0.000014
  8   -153.65624594  -0.0000002274  0.000036  0.000058  0.000242  0.000008
  9   -153.65624598  -0.0000000439  0.000009  0.000013  0.000021  0.000001
 10   -153.65624599  -0.0000000021  0.000006  0.000008  0.000023  0.000001
                  ***Gradient check signals convergence***
              ***Rediagonalizing the Fockian in SOSCF/NRSCF***

               *****************************************************
               *                     SUCCESS                       *
               *           SCF CONVERGED AFTER  11 CYCLES          *
               *****************************************************

Old exchange energy                            =     -4.996880799 Eh
New exchange energy                            =     -4.996882197 Eh
Exchange energy change after final integration =     -0.000001398 Eh
Total energy after final integration           =   -153.656247385 Eh
Final COS-X integration done in                =     0.261 sec

----------------
TOTAL SCF ENERGY
----------------

Total Energy       :         -153.65624739 Eh           -4181.19906 eV

Components:
Nuclear Repulsion  :           75.93945040 Eh            2066.41750 eV
Electronic Energy  :         -229.59569778 Eh           -6247.61656 eV
One Electron Energy:         -358.40479433 Eh           -9752.69027 eV
Two Electron Energy:          128.80909655 Eh            3505.07371 eV
Max COSX asymmetry :            0.00000166 Eh               0.00005 eV

Virial components:
Potential Energy   :         -306.62980063 Eh           -8343.82107 eV
Kinetic Energy     :          152.97355324 Eh            4162.62201 eV
Virial Ratio       :            2.00446282


DFT components:
N(Alpha)           :       12.000003399279 electrons
N(Beta)            :       12.000003399279 electrons
N(Total)           :       24.000006798558 electrons
E(X)               :      -14.959636232235 Eh       
E(C)               :       -0.791549082402 Eh       
E(XC)              :      -15.751185314638 Eh       
DFET-embed. en.    :        0.000000000000 Eh       

---------------
SCF CONVERGENCE
---------------

  Last Energy change         ...   -1.2420e-09  Tolerance :   1.0000e-08
  Last MAX-Density change    ...    1.4433e-15  Tolerance :   1.0000e-07
  Last RMS-Density change    ...    2.5578e-17  Tolerance :   5.0000e-09
  Last Orbital Gradient      ...    1.3122e-06  Tolerance :   1.0000e-05
  Last Orbital Rotation      ...    1.7628e-06  Tolerance :   1.0000e-05

             **** THE GBW FILE WAS UPDATED (ox_gs_A_orca0048.gbw) ****
             **** DENSITY ox_gs_A_orca0048.scfp WAS UPDATED ****
             **** ENERGY FILE WAS UPDATED (ox_gs_A_orca0048.en.tmp) ****
             **** THE GBW FILE WAS UPDATED (ox_gs_A_orca0048.gbw) ****
             **** DENSITY ox_gs_A_orca0048.scfp WAS UPDATED ****
----------------
ORBITAL ENERGIES
----------------

  NO   OCC          E(Eh)            E(eV) 
   0   2.0000     -19.231489      -523.3154 
   1   2.0000     -10.286814      -279.9185 
   2   2.0000     -10.273404      -279.5535 
   3   2.0000      -1.142981       -31.1021 
   4   2.0000      -0.686915       -18.6919 
   5   2.0000      -0.662495       -18.0274 
   6   2.0000      -0.535415       -14.5694 
   7   2.0000      -0.504966       -13.7408 
   8   2.0000      -0.452694       -12.3184 
   9   2.0000      -0.394360       -10.7311 
  10   2.0000      -0.306944        -8.3524 
  11   2.0000      -0.292668        -7.9639 
  12   0.0000       0.059754         1.6260 
  13   0.0000       0.069904         1.9022 
  14   0.0000       0.088043         2.3958 
  15   0.0000       0.108335         2.9479 
  16   0.0000       0.108928         2.9641 
  17   0.0000       0.150907         4.1064 
  18   0.0000       0.195548         5.3211 
  19   0.0000       0.211903         5.7662 
  20   0.0000       0.267087         7.2678 
  21   0.0000       0.275092         7.4856 
  22   0.0000       0.294764         8.0209 
  23   0.0000       0.349894         9.5211 
  24   0.0000       0.364195         9.9102 
  25   0.0000       0.382660        10.4127 
  26   0.0000       0.399866        10.8809 
  27   0.0000       0.433475        11.7955 
  28   0.0000       0.446908        12.1610 
  29   0.0000       0.463727        12.6187 
  30   0.0000       0.483119        13.1463 
  31   0.0000       0.513834        13.9821 
  32   0.0000       0.536814        14.6075 
  33   0.0000       0.703960        19.1557 
  34   0.0000       0.713495        19.4152 
  35   0.0000       0.717631        19.5277 
  36   0.0000       0.831874        22.6364 
  37   0.0000       0.865301        23.5460 
  38   0.0000       0.915113        24.9015 
  39   0.0000       0.939715        25.5709 
  40   0.0000       1.020666        27.7737 
  41   0.0000       1.025280        27.8993 
  42   0.0000       1.055729        28.7278 
  43   0.0000       1.074945        29.2507 
  44   0.0000       1.138151        30.9707 
  45   0.0000       1.365367        37.1535 
  46   0.0000       1.436846        39.0986 
  47   0.0000       1.489027        40.5185 
  48   0.0000       1.516821        41.2748 
  49   0.0000       1.533553        41.7301 
  50   0.0000       1.561638        42.4943 
  51   0.0000       1.634463        44.4760 
  52   0.0000       1.660704        45.1900 
  53   0.0000       1.706319        46.4313 
  54   0.0000       1.766604        48.0717 
  55   0.0000       1.799834        48.9760 
  56   0.0000       1.824644        49.6511 
  57   0.0000       1.924235        52.3611 
  58   0.0000       1.939243        52.7695 
  59   0.0000       1.975293        53.7505 
  60   0.0000       2.081728        56.6467 
  61   0.0000       2.153743        58.6063 
  62   0.0000       2.171204        59.0815 
  63   0.0000       2.245384        61.1000 
  64   0.0000       2.284743        62.1710 
  65   0.0000       2.425577        66.0033 
  66   0.0000       2.442271        66.4576 
  67   0.0000       2.469973        67.2114 
  68   0.0000       2.503966        68.1364 
  69   0.0000       2.552738        69.4635 
  70   0.0000       2.606643        70.9304 
  71   0.0000       2.642124        71.8958 
  72   0.0000       2.707546        73.6761 
  73   0.0000       2.726575        74.1939 
  74   0.0000       2.767469        75.3066 
  75   0.0000       2.828730        76.9736 
  76   0.0000       2.896996        78.8313 
  77   0.0000       2.955343        80.4190 
  78   0.0000       3.009769        81.9000 
  79   0.0000       3.029299        82.4314 
  80   0.0000       3.046577        82.9016 
  81   0.0000       3.063239        83.3550 
  82   0.0000       3.148435        85.6733 
  83   0.0000       3.233806        87.9963 
  84   0.0000       3.281126        89.2840 
  85   0.0000       3.301101        89.8275 
  86   0.0000       3.386324        92.1466 
  87   0.0000       3.435198        93.4765 
  88   0.0000       3.549870        96.5969 
  89   0.0000       3.603446        98.0548 
  90   0.0000       3.631620        98.8214 
  91   0.0000       3.731222       101.5317 
  92   0.0000       3.829233       104.1987 
  93   0.0000       3.976349       108.2019 
  94   0.0000       3.989855       108.5695 
  95   0.0000       4.058602       110.4402 
  96   0.0000       4.217244       114.7570 
  97   0.0000       4.273924       116.2994 
  98   0.0000       4.331688       117.8712 
  99   0.0000       4.532958       123.3481 
 100   0.0000       4.692983       127.7026 
 101   0.0000       4.870855       132.5427 
 102   0.0000       5.366144       146.0202 
 103   0.0000       5.528504       150.4382 
 104   0.0000       5.761292       156.7727 
 105   0.0000       5.868141       159.6802 
 106   0.0000       5.929231       161.3426 
 107   0.0000       5.959440       162.1646 
 108   0.0000       6.148314       167.3041 
 109   0.0000       6.668657       181.4634 
 110   0.0000       6.690975       182.0707 
 111   0.0000       6.807402       185.2388 
 112   0.0000       6.987673       190.1442 
 113   0.0000       7.190858       195.6732 
 114   0.0000      22.345405       608.0494 
 115   0.0000      22.403814       609.6388 
 116   0.0000      43.904575      1194.7042 

                    ********************************
                    * MULLIKEN POPULATION ANALYSIS *
                    ********************************

-----------------------
MULLIKEN ATOMIC CHARGES
-----------------------
   0 O :   -0.283555
   1 C :   -0.058131
   2 C :   -0.109754
   3 H :    0.094891
   4 H :    0.111768
   5 H :    0.128196
   6 H :    0.116584
Sum of atomic charges:    0.0000000

--------------------------------
MULLIKEN REDUCED ORBITAL CHARGES
--------------------------------
  0 O s       :     3.831345  s :     3.831345
      pz      :     1.798482  p :     4.399844
      px      :     1.277712
      py      :     1.323650
      dz2     :     0.005993  d :     0.049885
      dxz     :     0.003734
      dyz     :     0.007913
      dx2y2   :     0.014454
      dxy     :     0.017791
      f0      :     0.000326  f :     0.002481
      f+1     :     0.000249
      f-1     :     0.000470
      f+2     :     0.000088
      f-2     :     0.000294
      f+3     :     0.000317
      f-3     :     0.000738
  1 C s       :     3.219246  s :     3.219246
      pz      :     1.026532  p :     2.705405
      px      :     0.884643
      py      :     0.794230
      dz2     :     0.005908  d :     0.120541
      dxz     :     0.029198
      dyz     :     0.034268
      dx2y2   :     0.030185
      dxy     :     0.020983
      f0      :     0.001630  f :     0.012939
      f+1     :     0.001473
      f-1     :     0.000880
      f+2     :     0.000878
      f-2     :     0.002348
      f+3     :     0.002626
      f-3     :     0.003103
  2 C s       :     3.236109  s :     3.236109
      pz      :     1.049525  p :     2.756267
      px      :     0.897134
      py      :     0.809608
      dz2     :     0.007529  d :     0.105608
      dxz     :     0.024801
      dyz     :     0.028321
      dx2y2   :     0.028149
      dxy     :     0.016808
      f0      :     0.001657  f :     0.011769
      f+1     :     0.001473
      f-1     :     0.000600
      f+2     :     0.001038
      f-2     :     0.001835
      f+3     :     0.002403
      f-3     :     0.002762
  3 H s       :     0.887073  s :     0.887073
      pz      :     0.009235  p :     0.018036
      px      :     0.005362
      py      :     0.003438
  4 H s       :     0.866571  s :     0.866571
      pz      :     0.010160  p :     0.021661
      px      :     0.006800
      py      :     0.004700
  5 H s       :     0.848880  s :     0.848880
      pz      :     0.010957  p :     0.022925
      px      :     0.007430
      py      :     0.004538
  6 H s       :     0.862199  s :     0.862199
      pz      :     0.011505  p :     0.021218
      px      :     0.005308
      py      :     0.004405


                     *******************************
                     * LOEWDIN POPULATION ANALYSIS *
                     *******************************

----------------------
LOEWDIN ATOMIC CHARGES
----------------------
   0 O :    0.194914
   1 C :   -0.364541
   2 C :   -0.284289
   3 H :    0.123334
   4 H :    0.109625
   5 H :    0.100586
   6 H :    0.120370

-------------------------------
LOEWDIN REDUCED ORBITAL CHARGES
-------------------------------
  0 O s       :     3.316977  s :     3.316977
      pz      :     1.663503  p :     4.361119
      px      :     1.269574
      py      :     1.428042
      dz2     :     0.012293  d :     0.118147
      dxz     :     0.011867
      dyz     :     0.018359
      dx2y2   :     0.043502
      dxy     :     0.032127
      f0      :     0.000854  f :     0.008844
      f+1     :     0.000405
      f-1     :     0.000928
      f+2     :     0.000179
      f-2     :     0.001405
      f+3     :     0.001447
      f-3     :     0.003627
  1 C s       :     2.831796  s :     2.831796
      pz      :     1.047537  p :     2.929574
      px      :     0.998832
      py      :     0.883206
      dz2     :     0.052125  d :     0.519764
      dxz     :     0.134181
      dyz     :     0.114314
      dx2y2   :     0.111368
      dxy     :     0.107776
      f0      :     0.011327  f :     0.083407
      f+1     :     0.006338
      f-1     :     0.006193
      f+2     :     0.005915
      f-2     :     0.012116
      f+3     :     0.018309
      f-3     :     0.023208
  2 C s       :     2.834407  s :     2.834407
      pz      :     1.062180  p :     2.939789
      px      :     1.003164
      py      :     0.874445
      dz2     :     0.055486  d :     0.439148
      dxz     :     0.119822
      dyz     :     0.080158
      dx2y2   :     0.099210
      dxy     :     0.084472
      f0      :     0.010569  f :     0.070944
      f+1     :     0.006003
      f-1     :     0.005762
      f+2     :     0.006571
      f-2     :     0.008056
      f+3     :     0.014988
      f-3     :     0.018994
  3 H s       :     0.827891  s :     0.827891
      pz      :     0.026432  p :     0.048775
      px      :     0.012952
      py      :     0.009391
  4 H s       :     0.826752  s :     0.826752
      pz      :     0.031725  p :     0.063623
      px      :     0.017984
      py      :     0.013914
  5 H s       :     0.827992  s :     0.827992
      pz      :     0.035115  p :     0.071421
      px      :     0.021862
      py      :     0.014444
  6 H s       :     0.819675  s :     0.819675
      pz      :     0.033165  p :     0.059955
      px      :     0.014336
      py      :     0.012454


                      *****************************
                      * MAYER POPULATION ANALYSIS *
                      *****************************

  NA   - Mulliken gross atomic population
  ZA   - Total nuclear charge
  QA   - Mulliken gross atomic charge
  VA   - Mayer's total valence
  BVA  - Mayer's bonded valence
  FA   - Mayer's free valence

  ATOM       NA         ZA         QA         VA         BVA        FA
  0 O      8.2836     8.0000    -0.2836     2.0214     2.0214    -0.0000
  1 C      6.0581     6.0000    -0.0581     3.9741     3.9741     0.0000
  2 C      6.1098     6.0000    -0.1098     3.9431     3.9431     0.0000
  3 H      0.9051     1.0000     0.0949     0.9631     0.9631    -0.0000
  4 H      0.8882     1.0000     0.1118     0.9509     0.9509     0.0000
  5 H      0.8718     1.0000     0.1282     0.9616     0.9616     0.0000
  6 H      0.8834     1.0000     0.1166     0.9671     0.9671     0.0000

  Mayer bond orders larger than 0.100000
B(  0-O ,  1-C ) :   1.0318 B(  0-O ,  2-C ) :   0.9563 B(  1-C ,  2-C ) :   1.0493 
B(  1-C ,  3-H ) :   0.9434 B(  1-C ,  4-H ) :   0.9400 B(  2-C ,  5-H ) :   0.9571 
B(  2-C ,  6-H ) :   0.9638 

-------
TIMINGS
-------

Total SCF time: 0 days 0 hours 0 min 2 sec 

Total time                  ....       2.651 sec
Sum of individual times     ....       2.455 sec  ( 92.6%)

Fock matrix formation       ....       2.190 sec  ( 82.6%)
  Split-RI-J                ....       0.231 sec  ( 10.6% of F)
  Chain of spheres X        ....       1.496 sec  ( 68.3% of F)
  XC integration            ....       0.397 sec  ( 18.1% of F)
    Basis function eval.    ....       0.107 sec  ( 26.9% of XC)
    Density eval.           ....       0.080 sec  ( 20.2% of XC)
    XC-Functional eval.     ....       0.022 sec  (  5.7% of XC)
    XC-Potential eval.      ....       0.146 sec  ( 36.7% of XC)
Diagonalization             ....       0.014 sec  (  0.5%)
Density matrix formation    ....       0.001 sec  (  0.0%)
Population analysis         ....       0.003 sec  (  0.1%)
Initial guess               ....       0.017 sec  (  0.6%)
Orbital Transformation      ....       0.000 sec  (  0.0%)
Orbital Orthonormalization  ....       0.000 sec  (  0.0%)
DIIS solution               ....       0.010 sec  (  0.4%)
SOSCF solution              ....       0.013 sec  (  0.5%)
Grid generation             ....       0.206 sec  (  7.8%)

Maximum memory used throughout the entire SCF-calculation: 61.1 MB


-------------------------------------------------------------------------------
                          DFT DISPERSION CORRECTION                            
                                                                               
                              DFTD3 V3.1  Rev 1                                
                          USING Becke-Johnson damping                          
-------------------------------------------------------------------------------
The PBE0 functional is recognized
Active option DFTDOPT                   ...         4   

molecular C6(AA) [au] = 351.072522 


            DFT-D V3
 parameters
 s6 scaling factor         :     1.0000 
 a1 scaling factor         :     0.4145 
 s8 scaling factor         :     1.2177 
 a2 scaling factor         :     4.8593 
 ad hoc parameters k1-k3   :    16.0000     1.3333    -4.0000 

 Edisp/kcal,au: -1.504822482905  -0.002398087016 
 E6   /kcal   :  -0.986241090 
 E8   /kcal   :  -0.518581393 
 % E8         :  34.461300154 

-------------------------   ----------------
Dispersion correction           -0.002398087
-------------------------   ----------------


-------------------------   --------------------
FINAL SINGLE POINT ENERGY      -153.658645472255
-------------------------   --------------------



           ************************************************************
           *        Program running with 8 parallel MPI-processes     *
           *              working on a common directory               *
           ************************************************************
------------------------------------------------------------------------------
                         ORCA SCF GRADIENT CALCULATION
------------------------------------------------------------------------------

 ... reading COSX grid (gridx3)
Gradient of the Kohn-Sham DFT energy:
Kohn-Sham wavefunction type      ... RKS
Hartree-Fock exchange scaling    ...    0.250
Number of operators              ...    1
Number of atoms                  ...    7
Basis set dimensions             ...  117
Integral neglect threshold       ... 2.5e-11
Integral primitive cutoff        ... 2.5e-12
SHARK Integral package           ... ON

Nuc. rep. gradient       (SHARK) ... done (  0.0 sec)
HCore & Overlap gradient (SHARK) ... done (  0.0 sec)
RI-J gradient            (SHARK) ... done (  0.1 sec)
COSX-gradient                    ... done (  0.3 sec)
Exchange-correlation gradient    ... done
Dispersion correction            ... done

------------------
CARTESIAN GRADIENT
------------------

   1   O   :   -0.011675221   -0.054556652    0.016140924
   2   C   :    0.001740268    0.073608584   -0.044782018
   3   C   :    0.048704584    0.001623441   -0.060347332
   4   H   :   -0.022757741   -0.013869385    0.034683889
   5   H   :    0.000607825   -0.015648829    0.008838852
   6   H   :   -0.015938157    0.004211501    0.030808772
   7   H   :   -0.000576163    0.004528903    0.014978818

Difference to translation invariance:
           :    0.0001053957   -0.0001024381    0.0003219044

Difference to rotation invariance:
           :    0.0004813914   -0.0000589138   -0.0000037145

Norm of the cartesian gradient     ...    0.1432455926
RMS gradient                       ...    0.0312587510
MAX gradient                       ...    0.0736085839

-------
TIMINGS
-------

Total SCF gradient time            ...        0.695 sec

One electron gradient       ....       0.010 sec  (  1.4%)
RI-J Coulomb gradient       ....       0.078 sec  ( 11.2%)
COSX gradient               ....       0.311 sec  ( 44.8%)
XC gradient                 ....       0.157 sec  ( 22.6%)

Maximum memory used throughout the entire SCFGRAD-calculation: 35.9 MB

                            ***************************************
                            *     ORCA property calculations      *
                            ***************************************

                                    ---------------------
                                    Active property flags
                                    ---------------------
   (+) Dipole Moment


------------------------------------------------------------------------------
                       ORCA ELECTRIC PROPERTIES CALCULATION
------------------------------------------------------------------------------

Dipole Moment Calculation                       ... on
Quadrupole Moment Calculation                   ... off
Polarizability Calculation                      ... off
GBWName                                         ... ox_gs_A_orca0048.gbw
Electron density                                ... ox_gs_A_orca0048.scfp
The origin for moment calculation is the CENTER OF MASS  = ( 0.090625, -0.007624  0.013805)

-------------
DIPOLE MOMENT
-------------
                                X             Y             Z
Electronic contribution:      0.11580       1.85151      -0.13458
Nuclear contribution   :     -0.07580      -2.43695       0.04145
                        -----------------------------------------
Total Dipole Moment    :      0.04000      -0.58544      -0.09312
                        -----------------------------------------
Magnitude (a.u.)       :      0.59415
Magnitude (Debye)      :      1.51020



--------------------
Rotational spectrum 
--------------------
 
Rotational constants in cm-1:     0.950571     0.690964     0.479195 
Rotational constants in MHz : 28497.396025 20714.577905 14365.898921 

 Dipole components along the rotational axes: 
x,y,z [a.u.] :     0.092008    -0.585664    -0.039291 
x,y,z [Debye]:     0.233866    -1.488638    -0.099870 

 

Timings for individual modules:

Sum of individual times         ...        4.105 sec (=   0.068 min)
GTO integral calculation        ...        0.323 sec (=   0.005 min)   7.9 %
SCF iterations                  ...        2.852 sec (=   0.048 min)  69.5 %
SCF Gradient evaluation         ...        0.930 sec (=   0.016 min)  22.7 %
                             ****ORCA TERMINATED NORMALLY****
TOTAL RUN TIME: 0 days 0 hours 0 minutes 4 seconds 392 msec
