
                                 *****************
                                 * O   R   C   A *
                                 *****************

                                            #,                                       
                                            ###                                      
                                            ####                                     
                                            #####                                    
                                            ######                                   
                                           ########,                                 
                                     ,,################,,,,,                         
                               ,,#################################,,                 
                          ,,##########################################,,             
                       ,#########################################, ''#####,          
                    ,#############################################,,   '####,        
                  ,##################################################,,,,####,       
                ,###########''''           ''''###############################       
              ,#####''   ,,,,##########,,,,          '''####'''          '####       
            ,##' ,,,,###########################,,,                        '##       
           ' ,,###''''                  '''############,,,                           
         ,,##''                                '''############,,,,        ,,,,,,###''
      ,#''                                            '''#######################'''  
     '                                                          ''''####''''         
             ,#######,   #######,   ,#######,      ##                                
            ,#'     '#,  ##    ##  ,#'     '#,    #''#        ######   ,####,        
            ##       ##  ##   ,#'  ##            #'  '#       #        #'  '#        
            ##       ##  #######   ##           ,######,      #####,   #    #        
            '#,     ,#'  ##    ##  '#,     ,#' ,#      #,         ##   #,  ,#        
             '#######'   ##     ##  '#######'  #'      '#     #####' # '####'        



                  #######################################################
                  #                        -***-                        #
                  #          Department of theory and spectroscopy      #
                  #    Directorship and core code : Frank Neese         #
                  #        Max Planck Institute fuer Kohlenforschung    #
                  #                Kaiser Wilhelm Platz 1               #
                  #                 D-45470 Muelheim/Ruhr               #
                  #                      Germany                        #
                  #                                                     #
                  #                  All rights reserved                #
                  #                        -***-                        #
                  #######################################################


                         Program Version 5.0.2 -  RELEASE  -


 With contributions from (in alphabetic order):
   Daniel Aravena         : Magnetic Suceptibility
   Michael Atanasov       : Ab Initio Ligand Field Theory (pilot matlab implementation)
   Alexander A. Auer      : GIAO ZORA, VPT2 properties, NMR spectrum
   Ute Becker             : Parallelization
   Giovanni Bistoni       : ED, misc. LED, open-shell LED, HFLD
   Martin Brehm           : Molecular dynamics
   Dmytro Bykov           : SCF Hessian
   Vijay G. Chilkuri      : MRCI spin determinant printing, contributions to CSF-ICE
   Dipayan Datta          : RHF DLPNO-CCSD density
   Achintya Kumar Dutta   : EOM-CC, STEOM-CC
   Dmitry Ganyushin       : Spin-Orbit,Spin-Spin,Magnetic field MRCI
   Miquel Garcia          : C-PCM and meta-GGA Hessian, CC/C-PCM, Gaussian charge scheme
   Yang Guo               : DLPNO-NEVPT2, F12-NEVPT2, CIM, IAO-localization
   Andreas Hansen         : Spin unrestricted coupled pair/coupled cluster methods
   Benjamin Helmich-Paris : MC-RPA, TRAH-SCF, COSX integrals
   Lee Huntington         : MR-EOM, pCC
   Robert Izsak           : Overlap fitted RIJCOSX, COSX-SCS-MP3, EOM
   Marcus Kettner         : VPT2
   Christian Kollmar      : KDIIS, OOCD, Brueckner-CCSD(T), CCSD density, CASPT2, CASPT2-K
   Simone Kossmann        : Meta GGA functionals, TD-DFT gradient, OOMP2, MP2 Hessian
   Martin Krupicka        : Initial AUTO-CI
   Lucas Lang             : DCDCAS
   Marvin Lechner         : AUTO-CI (C++ implementation), FIC-MRCC
   Dagmar Lenk            : GEPOL surface, SMD
   Dimitrios Liakos       : Extrapolation schemes; Compound Job, initial MDCI parallelization
   Dimitrios Manganas     : Further ROCIS development; embedding schemes
   Dimitrios Pantazis     : SARC Basis sets
   Anastasios Papadopoulos: AUTO-CI, single reference methods and gradients
   Taras Petrenko         : DFT Hessian,TD-DFT gradient, ASA, ECA, R-Raman, ABS, FL, XAS/XES, NRVS
   Peter Pinski           : DLPNO-MP2, DLPNO-MP2 Gradient
   Christoph Reimann      : Effective Core Potentials
   Marius Retegan         : Local ZFS, SOC
   Christoph Riplinger    : Optimizer, TS searches, QM/MM, DLPNO-CCSD(T), (RO)-DLPNO pert. Triples
   Tobias Risthaus        : Range-separated hybrids, TD-DFT gradient, RPA, STAB
   Michael Roemelt        : Original ROCIS implementation
   Masaaki Saitow         : Open-shell DLPNO-CCSD energy and density
   Barbara Sandhoefer     : DKH picture change effects
   Avijit Sen             : IP-ROCIS
   Kantharuban Sivalingam : CASSCF convergence, NEVPT2, FIC-MRCI
   Bernardo de Souza      : ESD, SOC TD-DFT
   Georgi Stoychev        : AutoAux, RI-MP2 NMR, DLPNO-MP2 response
   Willem Van den Heuvel  : Paramagnetic NMR
   Boris Wezisla          : Elementary symmetry handling
   Frank Wennmohs         : Technical directorship


 We gratefully acknowledge several colleagues who have allowed us to
 interface, adapt or use parts of their codes:
   Stefan Grimme, W. Hujo, H. Kruse, P. Pracht,  : VdW corrections, initial TS optimization,
                  C. Bannwarth, S. Ehlert          DFT functionals, gCP, sTDA/sTD-DF
   Ed Valeev, F. Pavosevic, A. Kumar             : LibInt (2-el integral package), F12 methods
   Garnet Chan, S. Sharma, J. Yang, R. Olivares  : DMRG
   Ulf Ekstrom                                   : XCFun DFT Library
   Mihaly Kallay                                 : mrcc  (arbitrary order and MRCC methods)
   Jiri Pittner, Ondrej Demel                    : Mk-CCSD
   Frank Weinhold                                : gennbo (NPA and NBO analysis)
   Christopher J. Cramer and Donald G. Truhlar   : smd solvation model
   Lars Goerigk                                  : TD-DFT with DH, B97 family of functionals
   V. Asgeirsson, H. Jonsson                     : NEB implementation
   FAccTs GmbH                                   : IRC, NEB, NEB-TS, DLPNO-Multilevel, CI-OPT
                                                   MM, QMMM, 2- and 3-layer-ONIOM, Crystal-QMMM,
                                                   LR-CPCM, SF, NACMEs, symmetry and pop. for TD-DFT,
                                                   nearIR, NL-DFT gradient (VV10), updates on ESD,
                                                   ML-optimized integration grids
   S Lehtola, MJT Oliveira, MAL Marques          : LibXC Library
   Liviu Ungur et al                             : ANISO software


 Your calculation uses the libint2 library for the computation of 2-el integrals
 For citations please refer to: http://libint.valeyev.net

 Your ORCA version has been built with support for libXC version: 5.1.0
 For citations please refer to: https://tddft.org/programs/libxc/

 This ORCA versions uses:
   CBLAS   interface :  Fast vector & matrix operations
   LAPACKE interface :  Fast linear algebra routines
   SCALAPACK package :  Parallel linear algebra routines
   Shared memory     :  Shared parallel matrices
   BLAS/LAPACK       :  OpenBLAS 0.3.15  USE64BITINT DYNAMIC_ARCH NO_AFFINITY SkylakeX SINGLE_THREADED
        Core in use  :  SkylakeX
   Copyright (c) 2011-2014, The OpenBLAS Project


Your calculation utilizes the atom-pairwise dispersion correction
with the Becke-Johnson damping scheme (D3BJ)
Cite in your paper:
S.Grimme, S.Ehrlich, L.Goerigk, J Comput Chem, (2011), 32, 1456–1465 
S.Grimme, J.Antony, S.Ehrlich and H.Krieg, J.Chem.Phys., 132, (2010), 154104 
   

================================================================================

----- Orbital basis set information -----
Your calculation utilizes the basis: def2-TZVP
   F. Weigend and R. Ahlrichs, Phys. Chem. Chem. Phys. 7, 3297 (2005).

----- AuxJ basis set information -----
Your calculation utilizes the auxiliary basis: def2/J
   F. Weigend, Phys. Chem. Chem. Phys. 8, 1057 (2006).

================================================================================
                                        WARNINGS
                       Please study these warnings very carefully!
================================================================================


INFO   : the flag for use of the SHARK integral package has been found!

================================================================================
                                       INPUT FILE
================================================================================
NAME = ox_gs_A_orca0029.inp
|  1> ! engrad PBE0 D3BJ def2-TZVP  
|  2> %pal nprocs 8 end
|  3> %maxcore 3000
|  4>  
|  5> *xyz 0 1 
|  6> O   0.07480226557445915 0.7996425928177029 -0.0027791235455227534
|  7> C   -0.714891158684009 -0.5032949423649188 0.12228759898084132
|  8> C   0.7353505990987613 -0.4415507502697553 0.036288331194934596
|  9> H   -1.2397724684131641 -0.6570766087860435 0.8804524972277344
| 10> H   -1.2402493521432 -0.5741696851762483 -0.8527052176922512
| 11> H   1.3434821513319697 -0.6938316438215593 -0.969456461012929
| 12> H   1.2575335239950176 -0.6654845643855652 0.9746857459235474
| 13> *
| 14> 
| 15>                          ****END OF INPUT****
================================================================================

                     *******************************
                     * Energy+Gradient Calculation *
                     *******************************

---------------------------------
CARTESIAN COORDINATES (ANGSTROEM)
---------------------------------
  O      0.074802    0.799643   -0.002779
  C     -0.714891   -0.503295    0.122288
  C      0.735351   -0.441551    0.036288
  H     -1.239772   -0.657077    0.880452
  H     -1.240249   -0.574170   -0.852705
  H      1.343482   -0.693832   -0.969456
  H      1.257534   -0.665485    0.974686

----------------------------
CARTESIAN COORDINATES (A.U.)
----------------------------
  NO LB      ZA    FRAG     MASS         X           Y           Z
   0 O     8.0000    0    15.999    0.141356    1.511106   -0.005252
   1 C     6.0000    0    12.011   -1.350949   -0.951090    0.231090
   2 C     6.0000    0    12.011    1.389611   -0.834410    0.068575
   3 H     1.0000    0     1.008   -2.342830   -1.241695    1.663814
   4 H     1.0000    0     1.008   -2.343732   -1.085023   -1.611379
   5 H     1.0000    0     1.008    2.538813   -1.311152   -1.832007
   6 H     1.0000    0     1.008    2.376394   -1.257584    1.841889

--------------------------------
INTERNAL COORDINATES (ANGSTROEM)
--------------------------------
 O      0   0   0     0.000000000000     0.00000000     0.00000000
 C      1   0   0     1.528693432310     0.00000000     0.00000000
 C      1   2   0     1.406560088253    59.21679341     0.00000000
 H      2   1   3     0.934859991209   119.77467637   118.00481710
 H      2   1   3     1.109790724942   103.12626479   248.50396715
 H      3   1   2     1.202078292428   113.54932819   116.82433686
 H      3   1   2     1.097000942628   115.30496165   253.49254973

---------------------------
INTERNAL COORDINATES (A.U.)
---------------------------
 O      0   0   0     0.000000000000     0.00000000     0.00000000
 C      1   0   0     2.888811929790     0.00000000     0.00000000
 C      1   2   0     2.658013357702    59.21679341     0.00000000
 H      2   1   3     1.766629356946   119.77467637   118.00481710
 H      2   1   3     2.097200536106   103.12626479   248.50396715
 H      3   1   2     2.271598764220   113.54932819   116.82433686
 H      3   1   2     2.073031350221   115.30496165   253.49254973

---------------------
BASIS SET INFORMATION
---------------------
There are 3 groups of distinct atoms

 Group   1 Type O   : 11s6p2d1f contracted to 5s3p2d1f pattern {62111/411/11/1}
 Group   2 Type C   : 11s6p2d1f contracted to 5s3p2d1f pattern {62111/411/11/1}
 Group   3 Type H   : 5s1p contracted to 3s1p pattern {311/1}

Atom   0O    basis set group =>   1
Atom   1C    basis set group =>   2
Atom   2C    basis set group =>   2
Atom   3H    basis set group =>   3
Atom   4H    basis set group =>   3
Atom   5H    basis set group =>   3
Atom   6H    basis set group =>   3
---------------------------------
AUXILIARY/J BASIS SET INFORMATION
---------------------------------
There are 3 groups of distinct atoms

 Group   1 Type O   : 12s5p4d2f1g contracted to 6s4p3d1f1g pattern {711111/2111/211/2/1}
 Group   2 Type C   : 12s5p4d2f1g contracted to 6s4p3d1f1g pattern {711111/2111/211/2/1}
 Group   3 Type H   : 5s2p1d contracted to 3s1p1d pattern {311/2/1}

Atom   0O    basis set group =>   1
Atom   1C    basis set group =>   2
Atom   2C    basis set group =>   2
Atom   3H    basis set group =>   3
Atom   4H    basis set group =>   3
Atom   5H    basis set group =>   3
Atom   6H    basis set group =>   3


           ************************************************************
           *        Program running with 8 parallel MPI-processes     *
           *              working on a common directory               *
           ************************************************************
------------------------------------------------------------------------------
                           ORCA GTO INTEGRAL CALCULATION
                           -- RI-GTO INTEGRALS CHOSEN --
------------------------------------------------------------------------------
------------------------------------------------------------------------------
                   ___                                                        
                  /   \      - P O W E R E D   B Y -                         
                 /     \                                                     
                 |  |  |   _    _      __       _____    __    __             
                 |  |  |  | |  | |    /  \     |  _  \  |  |  /  |          
                  \  \/   | |  | |   /    \    | | | |  |  | /  /          
                 / \  \   | |__| |  /  /\  \   | |_| |  |  |/  /          
                |  |  |   |  __  | /  /__\  \  |    /   |      \           
                |  |  |   | |  | | |   __   |  |    \   |  |\   \          
                \     /   | |  | | |  |  |  |  | |\  \  |  | \   \       
                 \___/    |_|  |_| |__|  |__|  |_| \__\ |__|  \__/        
                                                                              
                      - O R C A' S   B I G   F R I E N D -                    
                                      &                                       
                       - I N T E G R A L  F E E D E R -                       
                                                                              
 v1 FN, 2020, v2 2021                                                         
------------------------------------------------------------------------------


Reading SHARK input file ox_gs_A_orca0029.SHARKINP.tmp ... ok
----------------------
SHARK INTEGRAL PACKAGE
----------------------

Number of atoms                             ...      7
Number of basis functions                   ...    117
Number of shells                            ...     49
Maximum angular momentum                    ...      3
Integral batch strategy                     ... SHARK/LIBINT Hybrid
RI-J (if used) integral strategy            ... SPLIT-RIJ (Revised 2003 algorithm where possible)
Printlevel                                  ...      1
Contraction scheme used                     ... SEGMENTED contraction
Coulomb Range Separation                    ... NOT USED
Exchange Range Separation                   ... NOT USED
Finite Nucleus Model                        ... NOT USED
Auxiliary Coulomb fitting basis             ... AVAILABLE
   # of basis functions in Aux-J            ...    191
   # of shells in Aux-J                     ...     65
   Maximum angular momentum in Aux-J        ...      4
Auxiliary J/K fitting basis                 ... NOT available
Auxiliary Correlation fitting basis         ... NOT available
Auxiliary 'external' fitting basis          ... NOT available
Integral threshold                          ...     2.500000e-11
Primitive cut-off                           ...     2.500000e-12
Primitive pair pre-selection threshold      ...     2.500000e-12

Calculating pre-screening integrals         ... done (  0.0 sec) Dimension = 49
Organizing shell pair data                  ... done (  0.0 sec)
Shell pair information
Total number of shell pairs                 ...      1225
Shell pairs after pre-screening             ...      1220
Total number of primitive shell pairs       ...      3648
Primitive shell pairs kept                  ...      3147
          la=0 lb=0:    373 shell pairs
          la=1 lb=0:    351 shell pairs
          la=1 lb=1:     91 shell pairs
          la=2 lb=0:    162 shell pairs
          la=2 lb=1:     78 shell pairs
          la=2 lb=2:     21 shell pairs
          la=3 lb=0:     81 shell pairs
          la=3 lb=1:     39 shell pairs
          la=3 lb=2:     18 shell pairs
          la=3 lb=3:      6 shell pairs

Calculating one electron integrals          ... done (  0.0 sec)
Calculating RI/J V-Matrix + Cholesky decomp.... done (  0.0 sec)
Calculating Nuclear repulsion               ... done (  0.0 sec) ENN=     74.596761777861 Eh

SHARK setup successfully completed in   0.1 seconds

Maximum memory used throughout the entire GTOINT-calculation: 14.9 MB


           ************************************************************
           *        Program running with 8 parallel MPI-processes     *
           *              working on a common directory               *
           ************************************************************
-------------------------------------------------------------------------------
                                 ORCA SCF
-------------------------------------------------------------------------------

------------
SCF SETTINGS
------------
Hamiltonian:
 Density Functional     Method          .... DFT(GTOs)
 Exchange Functional    Exchange        .... PBE
   PBE kappa parameter   XKappa         ....  0.804000
   PBE mue parameter    XMuePBE         ....  0.219520
 Correlation Functional Correlation     .... PBE
   PBE beta parameter  CBetaPBE         ....  0.066725
 LDA part of GGA corr.  LDAOpt          .... PW91-LDA
 Gradients option       PostSCFGGA      .... off
 Hybrid DFT is turned on
   Fraction HF Exchange ScalHFX         ....  0.250000
   Scaling of DF-GGA-X  ScalDFX         ....  0.750000
   Scaling of DF-GGA-C  ScalDFC         ....  1.000000
   Scaling of DF-LDA-C  ScalLDAC        ....  1.000000
   Perturbative correction              ....  0.000000
   Density functional embedding theory  .... OFF
   NL short-range parameter             ....  6.900000
 RI-approximation to the Coulomb term is turned on
   Number of AuxJ basis functions       .... 191
   RIJ-COSX (HFX calculated with COS-X)).... on


General Settings:
 Integral files         IntName         .... ox_gs_A_orca0029
 Hartree-Fock type      HFTyp           .... RHF
 Total Charge           Charge          ....    0
 Multiplicity           Mult            ....    1
 Number of Electrons    NEL             ....   24
 Basis Dimension        Dim             ....  117
 Nuclear Repulsion      ENuc            ....     74.5967617779 Eh

Convergence Acceleration:
 DIIS                   CNVDIIS         .... on
   Start iteration      DIISMaxIt       ....    12
   Startup error        DIISStart       ....  0.200000
   # of expansion vecs  DIISMaxEq       ....     5
   Bias factor          DIISBfac        ....   1.050
   Max. coefficient     DIISMaxC        ....  10.000
 Trust-Rad. Augm. Hess. CNVTRAH         .... auto
   Auto Start mean grad. ratio tolernc. ....  1.125000
   Auto Start start iteration           ....    20
   Auto Start num. interpolation iter.  ....    10
   Max. Number of Micro iterations      ....    16
   Max. Number of Macro iterations      .... Maxiter - #DIIS iter
   Number of Davidson start vectors     ....     2
   Converg. threshold I  (grad. norm)   ....   1.000e-05
   Converg. threshold II (energy diff.) ....   1.000e-08
   Grad. Scal. Fac. for Micro threshold ....   0.100
   Minimum threshold for Micro iter.    ....   0.010
   NR start threshold (gradient norm)   ....   0.001
   Initial trust radius                 ....   0.400
   Minimum AH scaling param. (alpha)    ....   1.000
   Maximum AH scaling param. (alpha)    .... 1000.000
   Orbital update algorithm             .... Taylor
   White noise on init. David. guess    .... on
   Maximum white noise                  ....   0.010
   Quad. conv. algorithm                .... NR
 SOSCF                  CNVSOSCF        .... on
   Start iteration      SOSCFMaxIt      ....   150
   Startup grad/error   SOSCFStart      ....  0.003300
 Level Shifting         CNVShift        .... on
   Level shift para.    LevelShift      ....    0.2500
   Turn off err/grad.   ShiftErr        ....    0.0010
 Zerner damping         CNVZerner       .... off
 Static damping         CNVDamp         .... on
   Fraction old density DampFac         ....    0.7000
   Max. Damping (<1)    DampMax         ....    0.9800
   Min. Damping (>=0)   DampMin         ....    0.0000
   Turn off err/grad.   DampErr         ....    0.1000
 Fernandez-Rico         CNVRico         .... off

SCF Procedure:
 Maximum # iterations   MaxIter         ....   125
 SCF integral mode      SCFMode         .... Direct
   Integral package                     .... SHARK and LIBINT hybrid scheme
 Reset frequency        DirectResetFreq ....    20
 Integral Threshold     Thresh          ....  2.500e-11 Eh
 Primitive CutOff       TCut            ....  2.500e-12 Eh

Convergence Tolerance:
 Convergence Check Mode ConvCheckMode   .... Total+1el-Energy
 Convergence forced     ConvForced      .... 0
 Energy Change          TolE            ....  1.000e-08 Eh
 1-El. energy change                    ....  1.000e-05 Eh
 Orbital Gradient       TolG            ....  1.000e-05
 Orbital Rotation angle TolX            ....  1.000e-05
 DIIS Error             TolErr          ....  5.000e-07


Diagonalization of the overlap matrix:
Smallest eigenvalue                        ... 3.712e-04
Time for diagonalization                   ...    0.001 sec
Threshold for overlap eigenvalues          ... 1.000e-08
Number of eigenvalues below threshold      ... 0
Time for construction of square roots      ...    0.001 sec
Total time needed                          ...    0.003 sec

Time for model grid setup =    0.021 sec

------------------------------
INITIAL GUESS: MODEL POTENTIAL
------------------------------
Loading Hartree-Fock densities                     ... done
Calculating cut-offs                               ... done
Initializing the effective Hamiltonian             ... done
Setting up the integral package (SHARK)            ... done
Starting the Coulomb interaction                   ... done (   0.0 sec)
Reading the grid                                   ... done
Mapping shells                                     ... done
Starting the XC term evaluation                    ... done (   0.0 sec)
  promolecular density results
     # of electrons  =     23.997239356
     EX              =    -19.532003807
     EC              =     -0.780117760
     EX+EC           =    -20.312121568
Transforming the Hamiltonian                       ... done (   0.0 sec)
Diagonalizing the Hamiltonian                      ... done (   0.0 sec)
Back transforming the eigenvectors                 ... done (   0.0 sec)
Now organizing SCF variables                       ... done
                      ------------------
                      INITIAL GUESS DONE (   0.0 sec)
                      ------------------
-------------------
DFT GRID GENERATION
-------------------

General Integration Accuracy     IntAcc      ... 4.388
Radial Grid Type                 RadialGrid  ... OptM3 with GC (2021)
Angular Grid (max. ang.)         AngularGrid ... 4 (Lebedev-302)
Angular grid pruning method      GridPruning ... 4 (adaptive)
Weight generation scheme         WeightScheme... Becke
Basis function cutoff            BFCut       ... 1.0000e-11
Integration weight cutoff        WCut        ... 1.0000e-14
Angular grids for H and He will be reduced by one unit
Partially contracted basis set               ... off
Rotationally invariant grid construction     ... off

Total number of grid points                  ...    31316
Total number of batches                      ...      492
Average number of points per batch           ...       63
Average number of grid points per atom       ...     4474
Time for grid setup =    0.112 sec

--------------------
COSX GRID GENERATION
--------------------

GRIDX 1
-------
General Integration Accuracy     IntAcc      ... 3.816
Radial Grid Type                 RadialGrid  ... OptM3 with GC (2021)
Angular Grid (max. ang.)         AngularGrid ... 1 (Lebedev-50)
Angular grid pruning method      GridPruning ... 4 (adaptive)
Weight generation scheme         WeightScheme... Becke
Basis function cutoff            BFCut       ... 1.0000e-11
Integration weight cutoff        WCut        ... 1.0000e-14
Angular grids for H and He will be reduced by one unit
Partially contracted basis set               ... on
Rotationally invariant grid construction     ... off

Total number of grid points                  ...     4038
Total number of batches                      ...       68
Average number of points per batch           ...       59
Average number of grid points per atom       ...      577
UseSFitting                                  ... on

GRIDX 2
-------
General Integration Accuracy     IntAcc      ... 4.020
Radial Grid Type                 RadialGrid  ... OptM3 with GC (2021)
Angular Grid (max. ang.)         AngularGrid ... 2 (Lebedev-110)
Angular grid pruning method      GridPruning ... 4 (adaptive)
Weight generation scheme         WeightScheme... Becke
Basis function cutoff            BFCut       ... 1.0000e-11
Integration weight cutoff        WCut        ... 1.0000e-14
Angular grids for H and He will be reduced by one unit
Partially contracted basis set               ... on
Rotationally invariant grid construction     ... off

Total number of grid points                  ...     8718
Total number of batches                      ...      141
Average number of points per batch           ...       61
Average number of grid points per atom       ...     1245
UseSFitting                                  ... on

GRIDX 3
-------
General Integration Accuracy     IntAcc      ... 4.338
Radial Grid Type                 RadialGrid  ... OptM3 with GC (2021)
Angular Grid (max. ang.)         AngularGrid ... 3 (Lebedev-194)
Angular grid pruning method      GridPruning ... 4 (adaptive)
Weight generation scheme         WeightScheme... Becke
Basis function cutoff            BFCut       ... 1.0000e-11
Integration weight cutoff        WCut        ... 1.0000e-14
Angular grids for H and He will be reduced by one unit
Partially contracted basis set               ... on
Rotationally invariant grid construction     ... off

Total number of grid points                  ...    19239
Total number of batches                      ...      304
Average number of points per batch           ...       63
Average number of grid points per atom       ...     2748
UseSFitting                                  ... on

Time for X-Grid setup             =    0.072 sec

--------------
SCF ITERATIONS
--------------
ITER       Energy         Delta-E        Max-DP      RMS-DP      [F,P]     Damp
               ***  Starting incremental Fock matrix formation  ***
  0   -153.5745275248   0.000000000000 0.03240013  0.00116352  0.1738856 0.7000
  1   -153.6033507799  -0.028823255103 0.01748264  0.00086267  0.0727274 0.7000
                               ***Turning on DIIS***
  2   -153.6153128079  -0.011962028091 0.02840088  0.00146713  0.0353002 0.0000
  3   -153.6346011958  -0.019288387815 0.01384597  0.00065665  0.0389903 0.0000
  4   -153.6383140511  -0.003712855311 0.00398173  0.00017848  0.0084557 0.0000
  5   -153.6384965692  -0.000182518142 0.00147764  0.00006443  0.0043952 0.0000
                      *** Initiating the SOSCF procedure ***
                           *** Shutting down DIIS ***
                      *** Re-Reading the Fockian *** 
                      *** Removing any level shift *** 
ITER      Energy       Delta-E        Grad      Rot      Max-DP    RMS-DP
  6   -153.63852547  -0.0000288998  0.000118  0.000118  0.000927  0.000030
               *** Restarting incremental Fock matrix formation ***
  7   -153.63851754   0.0000079305  0.000065  0.000132  0.000124  0.000005
  8   -153.63851746   0.0000000750  0.000116  0.000096  0.000088  0.000003
  9   -153.63851759  -0.0000001314  0.000009  0.000016  0.000024  0.000001
 10   -153.63851759   0.0000000012  0.000012  0.000009  0.000015  0.000000
                  ***Gradient check signals convergence***
              ***Rediagonalizing the Fockian in SOSCF/NRSCF***

               *****************************************************
               *                     SUCCESS                       *
               *           SCF CONVERGED AFTER  11 CYCLES          *
               *****************************************************

Old exchange energy                            =     -4.993472628 Eh
New exchange energy                            =     -4.993463503 Eh
Exchange energy change after final integration =      0.000009125 Eh
Total energy after final integration           =   -153.638508473 Eh
Final COS-X integration done in                =     0.272 sec

----------------
TOTAL SCF ENERGY
----------------

Total Energy       :         -153.63850847 Eh           -4180.71636 eV

Components:
Nuclear Repulsion  :           74.59676178 Eh            2029.88109 eV
Electronic Energy  :         -228.23527025 Eh           -6210.59744 eV
One Electron Energy:         -355.86293301 Eh           -9683.52271 eV
Two Electron Energy:          127.62766276 Eh            3472.92526 eV
Max COSX asymmetry :            0.00000182 Eh               0.00005 eV

Virial components:
Potential Energy   :         -306.62815274 Eh           -8343.77623 eV
Kinetic Energy     :          152.98964426 Eh            4163.05987 eV
Virial Ratio       :            2.00424123


DFT components:
N(Alpha)           :       12.000002024530 electrons
N(Beta)            :       12.000002024530 electrons
N(Total)           :       24.000004049060 electrons
E(X)               :      -14.955166864433 Eh       
E(C)               :       -0.788313834119 Eh       
E(XC)              :      -15.743480698551 Eh       
DFET-embed. en.    :        0.000000000000 Eh       

---------------
SCF CONVERGENCE
---------------

  Last Energy change         ...   -3.7424e-09  Tolerance :   1.0000e-08
  Last MAX-Density change    ...    8.8818e-16  Tolerance :   1.0000e-07
  Last RMS-Density change    ...    1.7988e-17  Tolerance :   5.0000e-09
  Last Orbital Gradient      ...    7.2046e-07  Tolerance :   1.0000e-05
  Last Orbital Rotation      ...    1.0825e-06  Tolerance :   1.0000e-05

             **** THE GBW FILE WAS UPDATED (ox_gs_A_orca0029.gbw) ****
             **** DENSITY ox_gs_A_orca0029.scfp WAS UPDATED ****
             **** ENERGY FILE WAS UPDATED (ox_gs_A_orca0029.en.tmp) ****
             **** THE GBW FILE WAS UPDATED (ox_gs_A_orca0029.gbw) ****
             **** DENSITY ox_gs_A_orca0029.scfp WAS UPDATED ****
----------------
ORBITAL ENERGIES
----------------

  NO   OCC          E(Eh)            E(eV) 
   0   2.0000     -19.220285      -523.0105 
   1   2.0000     -10.288368      -279.9607 
   2   2.0000     -10.267286      -279.3871 
   3   2.0000      -1.085887       -29.5485 
   4   2.0000      -0.719067       -19.5668 
   5   2.0000      -0.650715       -17.7068 
   6   2.0000      -0.533608       -14.5202 
   7   2.0000      -0.495262       -13.4768 
   8   2.0000      -0.417155       -11.3514 
   9   2.0000      -0.382001       -10.3948 
  10   2.0000      -0.338094        -9.2000 
  11   2.0000      -0.285982        -7.7820 
  12   0.0000       0.051276         1.3953 
  13   0.0000       0.058010         1.5785 
  14   0.0000       0.085167         2.3175 
  15   0.0000       0.097869         2.6631 
  16   0.0000       0.106740         2.9046 
  17   0.0000       0.151311         4.1174 
  18   0.0000       0.190081         5.1724 
  19   0.0000       0.211425         5.7532 
  20   0.0000       0.263966         7.1829 
  21   0.0000       0.269630         7.3370 
  22   0.0000       0.284786         7.7494 
  23   0.0000       0.318668         8.6714 
  24   0.0000       0.386063        10.5053 
  25   0.0000       0.397111        10.8059 
  26   0.0000       0.417167        11.3517 
  27   0.0000       0.434337        11.8189 
  28   0.0000       0.452561        12.3148 
  29   0.0000       0.461564        12.5598 
  30   0.0000       0.498397        13.5621 
  31   0.0000       0.523460        14.2441 
  32   0.0000       0.564290        15.3551 
  33   0.0000       0.686812        18.6891 
  34   0.0000       0.703038        19.1306 
  35   0.0000       0.740341        20.1457 
  36   0.0000       0.825039        22.4505 
  37   0.0000       0.838613        22.8198 
  38   0.0000       0.875805        23.8319 
  39   0.0000       0.943407        25.6714 
  40   0.0000       1.009585        27.4722 
  41   0.0000       1.037682        28.2368 
  42   0.0000       1.075712        29.2716 
  43   0.0000       1.084012        29.4975 
  44   0.0000       1.174412        31.9574 
  45   0.0000       1.352932        36.8152 
  46   0.0000       1.466287        39.8997 
  47   0.0000       1.491883        40.5962 
  48   0.0000       1.515119        41.2285 
  49   0.0000       1.530364        41.6433 
  50   0.0000       1.577776        42.9335 
  51   0.0000       1.629306        44.3357 
  52   0.0000       1.654004        45.0077 
  53   0.0000       1.692062        46.0433 
  54   0.0000       1.766707        48.0745 
  55   0.0000       1.822245        49.5858 
  56   0.0000       1.837390        49.9979 
  57   0.0000       1.861508        50.6542 
  58   0.0000       1.926495        52.4226 
  59   0.0000       1.985966        54.0409 
  60   0.0000       2.137117        58.1539 
  61   0.0000       2.143218        58.3199 
  62   0.0000       2.209414        60.1212 
  63   0.0000       2.239273        60.9337 
  64   0.0000       2.265799        61.6555 
  65   0.0000       2.385912        64.9240 
  66   0.0000       2.413031        65.6619 
  67   0.0000       2.472485        67.2797 
  68   0.0000       2.544212        69.2315 
  69   0.0000       2.590821        70.4998 
  70   0.0000       2.623973        71.4019 
  71   0.0000       2.662278        72.4443 
  72   0.0000       2.699765        73.4643 
  73   0.0000       2.712965        73.8235 
  74   0.0000       2.752351        74.8953 
  75   0.0000       2.822890        76.8148 
  76   0.0000       2.929586        79.7181 
  77   0.0000       2.953759        80.3759 
  78   0.0000       2.975278        80.9614 
  79   0.0000       3.015196        82.0476 
  80   0.0000       3.049213        82.9733 
  81   0.0000       3.096266        84.2537 
  82   0.0000       3.146952        85.6329 
  83   0.0000       3.234155        88.0058 
  84   0.0000       3.279695        89.2450 
  85   0.0000       3.346309        91.0577 
  86   0.0000       3.376990        91.8926 
  87   0.0000       3.424784        93.1931 
  88   0.0000       3.561153        96.9039 
  89   0.0000       3.584506        97.5394 
  90   0.0000       3.634137        98.8899 
  91   0.0000       3.691759       100.4579 
  92   0.0000       3.900822       106.1468 
  93   0.0000       4.000650       108.8632 
  94   0.0000       4.104008       111.6757 
  95   0.0000       4.152104       112.9845 
  96   0.0000       4.243047       115.4592 
  97   0.0000       4.284380       116.5839 
  98   0.0000       4.459417       121.3469 
  99   0.0000       4.601711       125.2189 
 100   0.0000       4.749901       129.2514 
 101   0.0000       4.895260       133.2068 
 102   0.0000       5.284622       143.8019 
 103   0.0000       5.399812       146.9363 
 104   0.0000       5.607474       152.5871 
 105   0.0000       5.735305       156.0656 
 106   0.0000       5.774824       157.1409 
 107   0.0000       5.808679       158.0622 
 108   0.0000       6.019684       163.8039 
 109   0.0000       6.572724       178.8529 
 110   0.0000       6.603379       179.6871 
 111   0.0000       6.785435       184.6411 
 112   0.0000       6.964302       189.5083 
 113   0.0000       7.175456       195.2541 
 114   0.0000      22.252292       605.5156 
 115   0.0000      22.477288       611.6381 
 116   0.0000      43.830317      1192.6836 

                    ********************************
                    * MULLIKEN POPULATION ANALYSIS *
                    ********************************

-----------------------
MULLIKEN ATOMIC CHARGES
-----------------------
   0 O :   -0.322495
   1 C :   -0.121310
   2 C :   -0.032540
   3 H :    0.138092
   4 H :    0.124292
   5 H :    0.108893
   6 H :    0.105068
Sum of atomic charges:    0.0000000

--------------------------------
MULLIKEN REDUCED ORBITAL CHARGES
--------------------------------
  0 O s       :     3.868529  s :     3.868529
      pz      :     1.847664  p :     4.412935
      px      :     1.333554
      py      :     1.231717
      dz2     :     0.005391  d :     0.039036
      dxz     :     0.002326
      dyz     :     0.006246
      dx2y2   :     0.011176
      dxy     :     0.013898
      f0      :     0.000232  f :     0.001994
      f+1     :     0.000166
      f-1     :     0.000438
      f+2     :     0.000094
      f-2     :     0.000181
      f+3     :     0.000377
      f-3     :     0.000506
  1 C s       :     3.233035  s :     3.233035
      pz      :     1.067379  p :     2.778856
      px      :     0.924743
      py      :     0.786734
      dz2     :     0.007798  d :     0.099084
      dxz     :     0.024827
      dyz     :     0.022967
      dx2y2   :     0.025351
      dxy     :     0.018142
      f0      :     0.001331  f :     0.010336
      f+1     :     0.001398
      f-1     :     0.000475
      f+2     :     0.001327
      f-2     :     0.001278
      f+3     :     0.002041
      f-3     :     0.002485
  2 C s       :     3.225064  s :     3.225064
      pz      :     1.021527  p :     2.673865
      px      :     0.897274
      py      :     0.755065
      dz2     :     0.006035  d :     0.121715
      dxz     :     0.026829
      dyz     :     0.034183
      dx2y2   :     0.030954
      dxy     :     0.023714
      f0      :     0.001590  f :     0.011895
      f+1     :     0.001374
      f-1     :     0.000686
      f+2     :     0.001547
      f-2     :     0.001569
      f+3     :     0.001853
      f-3     :     0.003277
  3 H s       :     0.837070  s :     0.837070
      pz      :     0.010494  p :     0.024838
      px      :     0.008605
      py      :     0.005739
  4 H s       :     0.854774  s :     0.854774
      pz      :     0.011328  p :     0.020934
      px      :     0.005687
      py      :     0.003919
  5 H s       :     0.874077  s :     0.874077
      pz      :     0.009229  p :     0.017030
      px      :     0.005154
      py      :     0.002646
  6 H s       :     0.873866  s :     0.873866
      pz      :     0.011058  p :     0.021066
      px      :     0.006238
      py      :     0.003771


                     *******************************
                     * LOEWDIN POPULATION ANALYSIS *
                     *******************************

----------------------
LOEWDIN ATOMIC CHARGES
----------------------
   0 O :    0.083093
   1 C :   -0.199393
   2 C :   -0.339642
   3 H :    0.068683
   4 H :    0.134214
   5 H :    0.134737
   6 H :    0.118308

-------------------------------
LOEWDIN REDUCED ORBITAL CHARGES
-------------------------------
  0 O s       :     3.423419  s :     3.423419
      pz      :     1.743202  p :     4.404797
      px      :     1.319917
      py      :     1.341678
      dz2     :     0.011156  d :     0.082949
      dxz     :     0.006556
      dyz     :     0.013539
      dx2y2   :     0.028420
      dxy     :     0.023277
      f0      :     0.000535  f :     0.005742
      f+1     :     0.000220
      f-1     :     0.000863
      f+2     :     0.000206
      f-2     :     0.000767
      f+3     :     0.001095
      f-3     :     0.002057
  1 C s       :     2.814009  s :     2.814009
      pz      :     1.072274  p :     2.916332
      px      :     1.043986
      py      :     0.800073
      dz2     :     0.050269  d :     0.410036
      dxz     :     0.127672
      dyz     :     0.056907
      dx2y2   :     0.092154
      dxy     :     0.083034
      f0      :     0.007405  f :     0.059016
      f+1     :     0.005999
      f-1     :     0.004747
      f+2     :     0.007713
      f-2     :     0.004588
      f+3     :     0.012487
      f-3     :     0.016077
  2 C s       :     2.839342  s :     2.839342
      pz      :     1.034688  p :     2.900716
      px      :     1.035150
      py      :     0.830878
      dz2     :     0.055894  d :     0.521108
      dxz     :     0.134844
      dyz     :     0.098430
      dx2y2   :     0.118641
      dxy     :     0.113298
      f0      :     0.010786  f :     0.078477
      f+1     :     0.005607
      f-1     :     0.006187
      f+2     :     0.009954
      f-2     :     0.007054
      f+3     :     0.015461
      f-3     :     0.023429
  3 H s       :     0.840603  s :     0.840603
      pz      :     0.040393  p :     0.090714
      px      :     0.029600
      py      :     0.020722
  4 H s       :     0.807853  s :     0.807853
      pz      :     0.031841  p :     0.057933
      px      :     0.014894
      py      :     0.011198
  5 H s       :     0.819890  s :     0.819890
      pz      :     0.025810  p :     0.045373
      px      :     0.012444
      py      :     0.007119
  6 H s       :     0.821820  s :     0.821820
      pz      :     0.032556  p :     0.059872
      px      :     0.016404
      py      :     0.010912


                      *****************************
                      * MAYER POPULATION ANALYSIS *
                      *****************************

  NA   - Mulliken gross atomic population
  ZA   - Total nuclear charge
  QA   - Mulliken gross atomic charge
  VA   - Mayer's total valence
  BVA  - Mayer's bonded valence
  FA   - Mayer's free valence

  ATOM       NA         ZA         QA         VA         BVA        FA
  0 O      8.3225     8.0000    -0.3225     1.9809     1.9809    -0.0000
  1 C      6.1213     6.0000    -0.1213     3.9724     3.9724     0.0000
  2 C      6.0325     6.0000    -0.0325     3.9880     3.9880     0.0000
  3 H      0.8619     1.0000     0.1381     0.9565     0.9565     0.0000
  4 H      0.8757     1.0000     0.1243     0.9683     0.9683     0.0000
  5 H      0.8911     1.0000     0.1089     0.9598     0.9598     0.0000
  6 H      0.8949     1.0000     0.1051     0.9553     0.9553     0.0000

  Mayer bond orders larger than 0.100000
B(  0-O ,  1-C ) :   0.9433 B(  0-O ,  2-C ) :   1.0207 B(  1-C ,  2-C ) :   1.0800 
B(  1-C ,  3-H ) :   0.9597 B(  1-C ,  4-H ) :   0.9651 B(  2-C ,  5-H ) :   0.9324 
B(  2-C ,  6-H ) :   0.9462 

-------
TIMINGS
-------

Total SCF time: 0 days 0 hours 0 min 2 sec 

Total time                  ....       2.502 sec
Sum of individual times     ....       2.316 sec  ( 92.6%)

Fock matrix formation       ....       2.052 sec  ( 82.0%)
  Split-RI-J                ....       0.228 sec  ( 11.1% of F)
  Chain of spheres X        ....       1.409 sec  ( 68.7% of F)
  XC integration            ....       0.392 sec  ( 19.1% of F)
    Basis function eval.    ....       0.105 sec  ( 26.7% of XC)
    Density eval.           ....       0.080 sec  ( 20.4% of XC)
    XC-Functional eval.     ....       0.022 sec  (  5.6% of XC)
    XC-Potential eval.      ....       0.137 sec  ( 35.0% of XC)
Diagonalization             ....       0.015 sec  (  0.6%)
Density matrix formation    ....       0.001 sec  (  0.1%)
Population analysis         ....       0.002 sec  (  0.1%)
Initial guess               ....       0.017 sec  (  0.7%)
Orbital Transformation      ....       0.000 sec  (  0.0%)
Orbital Orthonormalization  ....       0.000 sec  (  0.0%)
DIIS solution               ....       0.013 sec  (  0.5%)
SOSCF solution              ....       0.011 sec  (  0.4%)
Grid generation             ....       0.205 sec  (  8.2%)

Maximum memory used throughout the entire SCF-calculation: 61.1 MB


-------------------------------------------------------------------------------
                          DFT DISPERSION CORRECTION                            
                                                                               
                              DFTD3 V3.1  Rev 1                                
                          USING Becke-Johnson damping                          
-------------------------------------------------------------------------------
The PBE0 functional is recognized
Active option DFTDOPT                   ...         4   

molecular C6(AA) [au] = 351.401745 


            DFT-D V3
 parameters
 s6 scaling factor         :     1.0000 
 a1 scaling factor         :     0.4145 
 s8 scaling factor         :     1.2177 
 a2 scaling factor         :     4.8593 
 ad hoc parameters k1-k3   :    16.0000     1.3333    -4.0000 

 Edisp/kcal,au: -1.511205449499  -0.002408258920 
 E6   /kcal   :  -0.990775069 
 E8   /kcal   :  -0.520430380 
 % E8         :  34.438095802 

-------------------------   ----------------
Dispersion correction           -0.002408259
-------------------------   ----------------


-------------------------   --------------------
FINAL SINGLE POINT ENERGY      -153.640916731688
-------------------------   --------------------



           ************************************************************
           *        Program running with 8 parallel MPI-processes     *
           *              working on a common directory               *
           ************************************************************
------------------------------------------------------------------------------
                         ORCA SCF GRADIENT CALCULATION
------------------------------------------------------------------------------

 ... reading COSX grid (gridx3)
Gradient of the Kohn-Sham DFT energy:
Kohn-Sham wavefunction type      ... RKS
Hartree-Fock exchange scaling    ...    0.250
Number of operators              ...    1
Number of atoms                  ...    7
Basis set dimensions             ...  117
Integral neglect threshold       ... 2.5e-11
Integral primitive cutoff        ... 2.5e-12
SHARK Integral package           ... ON

Nuc. rep. gradient       (SHARK) ... done (  0.0 sec)
HCore & Overlap gradient (SHARK) ... done (  0.0 sec)
RI-J gradient            (SHARK) ... done (  0.1 sec)
COSX-gradient                    ... done (  0.3 sec)
Exchange-correlation gradient    ... done
Dispersion correction            ... done

------------------
CARTESIAN GRADIENT
------------------

   1   O   :    0.016281138    0.031335887   -0.020069404
   2   C   :   -0.087979772   -0.061697788    0.179391974
   3   C   :   -0.028500872    0.006955863    0.031643254
   4   H   :    0.078772444    0.021537418   -0.135704951
   5   H   :   -0.003872978    0.009514504   -0.015850072
   6   H   :    0.029593813   -0.004975676   -0.046488415
   7   H   :   -0.004485685   -0.002703656    0.006981422

Difference to translation invariance:
           :   -0.0001919112   -0.0000334485   -0.0000961932

Difference to rotation invariance:
           :   -0.0001658975    0.0000213380    0.0003401086

Norm of the cartesian gradient     ...    0.2753538617
RMS gradient                       ...    0.0600871388
MAX gradient                       ...    0.1793919739

-------
TIMINGS
-------

Total SCF gradient time            ...        0.678 sec

One electron gradient       ....       0.009 sec  (  1.4%)
RI-J Coulomb gradient       ....       0.074 sec  ( 10.9%)
COSX gradient               ....       0.298 sec  ( 44.0%)
XC gradient                 ....       0.159 sec  ( 23.5%)

Maximum memory used throughout the entire SCFGRAD-calculation: 35.9 MB

                            ***************************************
                            *     ORCA property calculations      *
                            ***************************************

                                    ---------------------
                                    Active property flags
                                    ---------------------
   (+) Dipole Moment


------------------------------------------------------------------------------
                       ORCA ELECTRIC PROPERTIES CALCULATION
------------------------------------------------------------------------------

Dipole Moment Calculation                       ... on
Quadrupole Moment Calculation                   ... off
Polarizability Calculation                      ... off
GBWName                                         ... ox_gs_A_orca0029.gbw
Electron density                                ... ox_gs_A_orca0029.scfp
The origin for moment calculation is the CENTER OF MASS  = ( 0.067110, -0.050032  0.081222)

-------------
DIPOLE MOMENT
-------------
                                X             Y             Z
Electronic contribution:     -0.07366       1.54081       0.21324
Nuclear contribution   :     -0.01918      -2.31883      -0.13103
                        -----------------------------------------
Total Dipole Moment    :     -0.09284      -0.77802       0.08221
                        -----------------------------------------
Magnitude (a.u.)       :      0.78784
Magnitude (Debye)      :      2.00252



--------------------
Rotational spectrum 
--------------------
 
Rotational constants in cm-1:     0.836259     0.724800     0.460885 
Rotational constants in MHz : 25070.419660 21728.959800 13816.976084 

 Dipole components along the rotational axes: 
x,y,z [a.u.] :    -0.432351     0.658109     0.025550 
x,y,z [Debye]:    -1.098948     1.672781     0.064944 

 

Timings for individual modules:

Sum of individual times         ...        3.969 sec (=   0.066 min)
GTO integral calculation        ...        0.314 sec (=   0.005 min)   7.9 %
SCF iterations                  ...        2.711 sec (=   0.045 min)  68.3 %
SCF Gradient evaluation         ...        0.944 sec (=   0.016 min)  23.8 %
                             ****ORCA TERMINATED NORMALLY****
TOTAL RUN TIME: 0 days 0 hours 0 minutes 4 seconds 260 msec
