
                                 *****************
                                 * O   R   C   A *
                                 *****************

                                            #,                                       
                                            ###                                      
                                            ####                                     
                                            #####                                    
                                            ######                                   
                                           ########,                                 
                                     ,,################,,,,,                         
                               ,,#################################,,                 
                          ,,##########################################,,             
                       ,#########################################, ''#####,          
                    ,#############################################,,   '####,        
                  ,##################################################,,,,####,       
                ,###########''''           ''''###############################       
              ,#####''   ,,,,##########,,,,          '''####'''          '####       
            ,##' ,,,,###########################,,,                        '##       
           ' ,,###''''                  '''############,,,                           
         ,,##''                                '''############,,,,        ,,,,,,###''
      ,#''                                            '''#######################'''  
     '                                                          ''''####''''         
             ,#######,   #######,   ,#######,      ##                                
            ,#'     '#,  ##    ##  ,#'     '#,    #''#        ######   ,####,        
            ##       ##  ##   ,#'  ##            #'  '#       #        #'  '#        
            ##       ##  #######   ##           ,######,      #####,   #    #        
            '#,     ,#'  ##    ##  '#,     ,#' ,#      #,         ##   #,  ,#        
             '#######'   ##     ##  '#######'  #'      '#     #####' # '####'        



                  #######################################################
                  #                        -***-                        #
                  #          Department of theory and spectroscopy      #
                  #    Directorship and core code : Frank Neese         #
                  #        Max Planck Institute fuer Kohlenforschung    #
                  #                Kaiser Wilhelm Platz 1               #
                  #                 D-45470 Muelheim/Ruhr               #
                  #                      Germany                        #
                  #                                                     #
                  #                  All rights reserved                #
                  #                        -***-                        #
                  #######################################################


                         Program Version 5.0.2 -  RELEASE  -


 With contributions from (in alphabetic order):
   Daniel Aravena         : Magnetic Suceptibility
   Michael Atanasov       : Ab Initio Ligand Field Theory (pilot matlab implementation)
   Alexander A. Auer      : GIAO ZORA, VPT2 properties, NMR spectrum
   Ute Becker             : Parallelization
   Giovanni Bistoni       : ED, misc. LED, open-shell LED, HFLD
   Martin Brehm           : Molecular dynamics
   Dmytro Bykov           : SCF Hessian
   Vijay G. Chilkuri      : MRCI spin determinant printing, contributions to CSF-ICE
   Dipayan Datta          : RHF DLPNO-CCSD density
   Achintya Kumar Dutta   : EOM-CC, STEOM-CC
   Dmitry Ganyushin       : Spin-Orbit,Spin-Spin,Magnetic field MRCI
   Miquel Garcia          : C-PCM and meta-GGA Hessian, CC/C-PCM, Gaussian charge scheme
   Yang Guo               : DLPNO-NEVPT2, F12-NEVPT2, CIM, IAO-localization
   Andreas Hansen         : Spin unrestricted coupled pair/coupled cluster methods
   Benjamin Helmich-Paris : MC-RPA, TRAH-SCF, COSX integrals
   Lee Huntington         : MR-EOM, pCC
   Robert Izsak           : Overlap fitted RIJCOSX, COSX-SCS-MP3, EOM
   Marcus Kettner         : VPT2
   Christian Kollmar      : KDIIS, OOCD, Brueckner-CCSD(T), CCSD density, CASPT2, CASPT2-K
   Simone Kossmann        : Meta GGA functionals, TD-DFT gradient, OOMP2, MP2 Hessian
   Martin Krupicka        : Initial AUTO-CI
   Lucas Lang             : DCDCAS
   Marvin Lechner         : AUTO-CI (C++ implementation), FIC-MRCC
   Dagmar Lenk            : GEPOL surface, SMD
   Dimitrios Liakos       : Extrapolation schemes; Compound Job, initial MDCI parallelization
   Dimitrios Manganas     : Further ROCIS development; embedding schemes
   Dimitrios Pantazis     : SARC Basis sets
   Anastasios Papadopoulos: AUTO-CI, single reference methods and gradients
   Taras Petrenko         : DFT Hessian,TD-DFT gradient, ASA, ECA, R-Raman, ABS, FL, XAS/XES, NRVS
   Peter Pinski           : DLPNO-MP2, DLPNO-MP2 Gradient
   Christoph Reimann      : Effective Core Potentials
   Marius Retegan         : Local ZFS, SOC
   Christoph Riplinger    : Optimizer, TS searches, QM/MM, DLPNO-CCSD(T), (RO)-DLPNO pert. Triples
   Tobias Risthaus        : Range-separated hybrids, TD-DFT gradient, RPA, STAB
   Michael Roemelt        : Original ROCIS implementation
   Masaaki Saitow         : Open-shell DLPNO-CCSD energy and density
   Barbara Sandhoefer     : DKH picture change effects
   Avijit Sen             : IP-ROCIS
   Kantharuban Sivalingam : CASSCF convergence, NEVPT2, FIC-MRCI
   Bernardo de Souza      : ESD, SOC TD-DFT
   Georgi Stoychev        : AutoAux, RI-MP2 NMR, DLPNO-MP2 response
   Willem Van den Heuvel  : Paramagnetic NMR
   Boris Wezisla          : Elementary symmetry handling
   Frank Wennmohs         : Technical directorship


 We gratefully acknowledge several colleagues who have allowed us to
 interface, adapt or use parts of their codes:
   Stefan Grimme, W. Hujo, H. Kruse, P. Pracht,  : VdW corrections, initial TS optimization,
                  C. Bannwarth, S. Ehlert          DFT functionals, gCP, sTDA/sTD-DF
   Ed Valeev, F. Pavosevic, A. Kumar             : LibInt (2-el integral package), F12 methods
   Garnet Chan, S. Sharma, J. Yang, R. Olivares  : DMRG
   Ulf Ekstrom                                   : XCFun DFT Library
   Mihaly Kallay                                 : mrcc  (arbitrary order and MRCC methods)
   Jiri Pittner, Ondrej Demel                    : Mk-CCSD
   Frank Weinhold                                : gennbo (NPA and NBO analysis)
   Christopher J. Cramer and Donald G. Truhlar   : smd solvation model
   Lars Goerigk                                  : TD-DFT with DH, B97 family of functionals
   V. Asgeirsson, H. Jonsson                     : NEB implementation
   FAccTs GmbH                                   : IRC, NEB, NEB-TS, DLPNO-Multilevel, CI-OPT
                                                   MM, QMMM, 2- and 3-layer-ONIOM, Crystal-QMMM,
                                                   LR-CPCM, SF, NACMEs, symmetry and pop. for TD-DFT,
                                                   nearIR, NL-DFT gradient (VV10), updates on ESD,
                                                   ML-optimized integration grids
   S Lehtola, MJT Oliveira, MAL Marques          : LibXC Library
   Liviu Ungur et al                             : ANISO software


 Your calculation uses the libint2 library for the computation of 2-el integrals
 For citations please refer to: http://libint.valeyev.net

 Your ORCA version has been built with support for libXC version: 5.1.0
 For citations please refer to: https://tddft.org/programs/libxc/

 This ORCA versions uses:
   CBLAS   interface :  Fast vector & matrix operations
   LAPACKE interface :  Fast linear algebra routines
   SCALAPACK package :  Parallel linear algebra routines
   Shared memory     :  Shared parallel matrices
   BLAS/LAPACK       :  OpenBLAS 0.3.15  USE64BITINT DYNAMIC_ARCH NO_AFFINITY SkylakeX SINGLE_THREADED
        Core in use  :  SkylakeX
   Copyright (c) 2011-2014, The OpenBLAS Project


Your calculation utilizes the atom-pairwise dispersion correction
with the Becke-Johnson damping scheme (D3BJ)
Cite in your paper:
S.Grimme, S.Ehrlich, L.Goerigk, J Comput Chem, (2011), 32, 1456–1465 
S.Grimme, J.Antony, S.Ehrlich and H.Krieg, J.Chem.Phys., 132, (2010), 154104 
   

================================================================================

----- Orbital basis set information -----
Your calculation utilizes the basis: def2-TZVP
   F. Weigend and R. Ahlrichs, Phys. Chem. Chem. Phys. 7, 3297 (2005).

----- AuxJ basis set information -----
Your calculation utilizes the auxiliary basis: def2/J
   F. Weigend, Phys. Chem. Chem. Phys. 8, 1057 (2006).

================================================================================
                                        WARNINGS
                       Please study these warnings very carefully!
================================================================================


INFO   : the flag for use of the SHARK integral package has been found!

================================================================================
                                       INPUT FILE
================================================================================
NAME = ox_gs_G_orca0007.inp
|  1> ! engrad PBE0 D3BJ def2-TZVP  
|  2> %pal nprocs 8 end
|  3> %maxcore 3000
|  4>  
|  5> *xyz 0 1 
|  6> O   -1.421243989887276 0.7928679823528262 -0.008659749834222207
|  7> C   -0.753228548263796 -0.48330008522677387 0.037681986017704616
|  8> C   0.702527301064532 -0.5165168389283155 0.04739039084185589
|  9> H   -1.3136668336256865 -0.6461166511469033 0.8878322959698782
| 10> H   -1.2781999509466955 -0.7524361823891113 -0.9393150204086582
| 11> H   1.1812256548792182 -0.6854247465315751 -0.8480115904391948
| 12> H   1.2731066604964216 -0.7082682033763984 0.8959303894222267
| 13> *
| 14> 
| 15>                          ****END OF INPUT****
================================================================================

                     *******************************
                     * Energy+Gradient Calculation *
                     *******************************

---------------------------------
CARTESIAN COORDINATES (ANGSTROEM)
---------------------------------
  O     -1.421244    0.792868   -0.008660
  C     -0.753229   -0.483300    0.037682
  C      0.702527   -0.516517    0.047390
  H     -1.313667   -0.646117    0.887832
  H     -1.278200   -0.752436   -0.939315
  H      1.181226   -0.685425   -0.848012
  H      1.273107   -0.708268    0.895930

----------------------------
CARTESIAN COORDINATES (A.U.)
----------------------------
  NO LB      ZA    FRAG     MASS         X           Y           Z
   0 O     8.0000    0    15.999   -2.685762    1.498303   -0.016365
   1 C     6.0000    0    12.011   -1.423396   -0.913305    0.071209
   2 C     6.0000    0    12.011    1.327584   -0.976075    0.089555
   3 H     1.0000    0     1.008   -2.482471   -1.220984    1.677760
   4 H     1.0000    0     1.008   -2.415448   -1.421898   -1.775048
   5 H     1.0000    0     1.008    2.232193   -1.295265   -1.602510
   6 H     1.0000    0     1.008    2.405823   -1.338433    1.693063

--------------------------------
INTERNAL COORDINATES (ANGSTROEM)
--------------------------------
 O      0   0   0     0.000000000000     0.00000000     0.00000000
 C      1   0   0     1.441179074036     0.00000000     0.00000000
 C      2   1   0     1.456167125952   118.93406677     0.00000000
 H      2   1   3     1.031191473660    85.08986573   124.41533658
 H      2   1   3     1.141294161466    88.17082418   239.44108194
 H      3   2   1     1.029284558943   117.57380601   261.92547012
 H      3   2   1     1.040360283925   123.91285337   103.83862993

---------------------------
INTERNAL COORDINATES (A.U.)
---------------------------
 O      0   0   0     0.000000000000     0.00000000     0.00000000
 C      1   0   0     2.723433759866     0.00000000     0.00000000
 C      2   1   0     2.751757073269   118.93406677     0.00000000
 H      2   1   3     1.948669476852    85.08986573   124.41533658
 H      2   1   3     2.156733403414    88.17082418   239.44108194
 H      3   2   1     1.945065930276   117.57380601   261.92547012
 H      3   2   1     1.965996017227   123.91285337   103.83862993

---------------------
BASIS SET INFORMATION
---------------------
There are 3 groups of distinct atoms

 Group   1 Type O   : 11s6p2d1f contracted to 5s3p2d1f pattern {62111/411/11/1}
 Group   2 Type C   : 11s6p2d1f contracted to 5s3p2d1f pattern {62111/411/11/1}
 Group   3 Type H   : 5s1p contracted to 3s1p pattern {311/1}

Atom   0O    basis set group =>   1
Atom   1C    basis set group =>   2
Atom   2C    basis set group =>   2
Atom   3H    basis set group =>   3
Atom   4H    basis set group =>   3
Atom   5H    basis set group =>   3
Atom   6H    basis set group =>   3
---------------------------------
AUXILIARY/J BASIS SET INFORMATION
---------------------------------
There are 3 groups of distinct atoms

 Group   1 Type O   : 12s5p4d2f1g contracted to 6s4p3d1f1g pattern {711111/2111/211/2/1}
 Group   2 Type C   : 12s5p4d2f1g contracted to 6s4p3d1f1g pattern {711111/2111/211/2/1}
 Group   3 Type H   : 5s2p1d contracted to 3s1p1d pattern {311/2/1}

Atom   0O    basis set group =>   1
Atom   1C    basis set group =>   2
Atom   2C    basis set group =>   2
Atom   3H    basis set group =>   3
Atom   4H    basis set group =>   3
Atom   5H    basis set group =>   3
Atom   6H    basis set group =>   3


           ************************************************************
           *        Program running with 8 parallel MPI-processes     *
           *              working on a common directory               *
           ************************************************************
------------------------------------------------------------------------------
                           ORCA GTO INTEGRAL CALCULATION
                           -- RI-GTO INTEGRALS CHOSEN --
------------------------------------------------------------------------------
------------------------------------------------------------------------------
                   ___                                                        
                  /   \      - P O W E R E D   B Y -                         
                 /     \                                                     
                 |  |  |   _    _      __       _____    __    __             
                 |  |  |  | |  | |    /  \     |  _  \  |  |  /  |          
                  \  \/   | |  | |   /    \    | | | |  |  | /  /          
                 / \  \   | |__| |  /  /\  \   | |_| |  |  |/  /          
                |  |  |   |  __  | /  /__\  \  |    /   |      \           
                |  |  |   | |  | | |   __   |  |    \   |  |\   \          
                \     /   | |  | | |  |  |  |  | |\  \  |  | \   \       
                 \___/    |_|  |_| |__|  |__|  |_| \__\ |__|  \__/        
                                                                              
                      - O R C A' S   B I G   F R I E N D -                    
                                      &                                       
                       - I N T E G R A L  F E E D E R -                       
                                                                              
 v1 FN, 2020, v2 2021                                                         
------------------------------------------------------------------------------


Reading SHARK input file ox_gs_G_orca0007.SHARKINP.tmp ... ok
----------------------
SHARK INTEGRAL PACKAGE
----------------------

Number of atoms                             ...      7
Number of basis functions                   ...    117
Number of shells                            ...     49
Maximum angular momentum                    ...      3
Integral batch strategy                     ... SHARK/LIBINT Hybrid
RI-J (if used) integral strategy            ... SPLIT-RIJ (Revised 2003 algorithm where possible)
Printlevel                                  ...      1
Contraction scheme used                     ... SEGMENTED contraction
Coulomb Range Separation                    ... NOT USED
Exchange Range Separation                   ... NOT USED
Finite Nucleus Model                        ... NOT USED
Auxiliary Coulomb fitting basis             ... AVAILABLE
   # of basis functions in Aux-J            ...    191
   # of shells in Aux-J                     ...     65
   Maximum angular momentum in Aux-J        ...      4
Auxiliary J/K fitting basis                 ... NOT available
Auxiliary Correlation fitting basis         ... NOT available
Auxiliary 'external' fitting basis          ... NOT available
Integral threshold                          ...     2.500000e-11
Primitive cut-off                           ...     2.500000e-12
Primitive pair pre-selection threshold      ...     2.500000e-12

Calculating pre-screening integrals         ... done (  0.0 sec) Dimension = 49
Organizing shell pair data                  ... done (  0.0 sec)
Shell pair information
Total number of shell pairs                 ...      1225
Shell pairs after pre-screening             ...      1211
Total number of primitive shell pairs       ...      3648
Primitive shell pairs kept                  ...      3066
          la=0 lb=0:    367 shell pairs
          la=1 lb=0:    349 shell pairs
          la=1 lb=1:     91 shell pairs
          la=2 lb=0:    161 shell pairs
          la=2 lb=1:     78 shell pairs
          la=2 lb=2:     21 shell pairs
          la=3 lb=0:     81 shell pairs
          la=3 lb=1:     39 shell pairs
          la=3 lb=2:     18 shell pairs
          la=3 lb=3:      6 shell pairs

Calculating one electron integrals          ... done (  0.0 sec)
Calculating RI/J V-Matrix + Cholesky decomp.... done (  0.0 sec)
Calculating Nuclear repulsion               ... done (  0.0 sec) ENN=     67.546196914657 Eh

SHARK setup successfully completed in   0.1 seconds

Maximum memory used throughout the entire GTOINT-calculation: 14.9 MB


           ************************************************************
           *        Program running with 8 parallel MPI-processes     *
           *              working on a common directory               *
           ************************************************************
-------------------------------------------------------------------------------
                                 ORCA SCF
-------------------------------------------------------------------------------

------------
SCF SETTINGS
------------
Hamiltonian:
 Density Functional     Method          .... DFT(GTOs)
 Exchange Functional    Exchange        .... PBE
   PBE kappa parameter   XKappa         ....  0.804000
   PBE mue parameter    XMuePBE         ....  0.219520
 Correlation Functional Correlation     .... PBE
   PBE beta parameter  CBetaPBE         ....  0.066725
 LDA part of GGA corr.  LDAOpt          .... PW91-LDA
 Gradients option       PostSCFGGA      .... off
 Hybrid DFT is turned on
   Fraction HF Exchange ScalHFX         ....  0.250000
   Scaling of DF-GGA-X  ScalDFX         ....  0.750000
   Scaling of DF-GGA-C  ScalDFC         ....  1.000000
   Scaling of DF-LDA-C  ScalLDAC        ....  1.000000
   Perturbative correction              ....  0.000000
   Density functional embedding theory  .... OFF
   NL short-range parameter             ....  6.900000
 RI-approximation to the Coulomb term is turned on
   Number of AuxJ basis functions       .... 191
   RIJ-COSX (HFX calculated with COS-X)).... on


General Settings:
 Integral files         IntName         .... ox_gs_G_orca0007
 Hartree-Fock type      HFTyp           .... RHF
 Total Charge           Charge          ....    0
 Multiplicity           Mult            ....    1
 Number of Electrons    NEL             ....   24
 Basis Dimension        Dim             ....  117
 Nuclear Repulsion      ENuc            ....     67.5461969147 Eh

Convergence Acceleration:
 DIIS                   CNVDIIS         .... on
   Start iteration      DIISMaxIt       ....    12
   Startup error        DIISStart       ....  0.200000
   # of expansion vecs  DIISMaxEq       ....     5
   Bias factor          DIISBfac        ....   1.050
   Max. coefficient     DIISMaxC        ....  10.000
 Trust-Rad. Augm. Hess. CNVTRAH         .... auto
   Auto Start mean grad. ratio tolernc. ....  1.125000
   Auto Start start iteration           ....    20
   Auto Start num. interpolation iter.  ....    10
   Max. Number of Micro iterations      ....    16
   Max. Number of Macro iterations      .... Maxiter - #DIIS iter
   Number of Davidson start vectors     ....     2
   Converg. threshold I  (grad. norm)   ....   1.000e-05
   Converg. threshold II (energy diff.) ....   1.000e-08
   Grad. Scal. Fac. for Micro threshold ....   0.100
   Minimum threshold for Micro iter.    ....   0.010
   NR start threshold (gradient norm)   ....   0.001
   Initial trust radius                 ....   0.400
   Minimum AH scaling param. (alpha)    ....   1.000
   Maximum AH scaling param. (alpha)    .... 1000.000
   Orbital update algorithm             .... Taylor
   White noise on init. David. guess    .... on
   Maximum white noise                  ....   0.010
   Quad. conv. algorithm                .... NR
 SOSCF                  CNVSOSCF        .... on
   Start iteration      SOSCFMaxIt      ....   150
   Startup grad/error   SOSCFStart      ....  0.003300
 Level Shifting         CNVShift        .... on
   Level shift para.    LevelShift      ....    0.2500
   Turn off err/grad.   ShiftErr        ....    0.0010
 Zerner damping         CNVZerner       .... off
 Static damping         CNVDamp         .... on
   Fraction old density DampFac         ....    0.7000
   Max. Damping (<1)    DampMax         ....    0.9800
   Min. Damping (>=0)   DampMin         ....    0.0000
   Turn off err/grad.   DampErr         ....    0.1000
 Fernandez-Rico         CNVRico         .... off

SCF Procedure:
 Maximum # iterations   MaxIter         ....   125
 SCF integral mode      SCFMode         .... Direct
   Integral package                     .... SHARK and LIBINT hybrid scheme
 Reset frequency        DirectResetFreq ....    20
 Integral Threshold     Thresh          ....  2.500e-11 Eh
 Primitive CutOff       TCut            ....  2.500e-12 Eh

Convergence Tolerance:
 Convergence Check Mode ConvCheckMode   .... Total+1el-Energy
 Convergence forced     ConvForced      .... 0
 Energy Change          TolE            ....  1.000e-08 Eh
 1-El. energy change                    ....  1.000e-05 Eh
 Orbital Gradient       TolG            ....  1.000e-05
 Orbital Rotation angle TolX            ....  1.000e-05
 DIIS Error             TolErr          ....  5.000e-07


Diagonalization of the overlap matrix:
Smallest eigenvalue                        ... 4.681e-04
Time for diagonalization                   ...    0.001 sec
Threshold for overlap eigenvalues          ... 1.000e-08
Number of eigenvalues below threshold      ... 0
Time for construction of square roots      ...    0.001 sec
Total time needed                          ...    0.003 sec

Time for model grid setup =    0.022 sec

------------------------------
INITIAL GUESS: MODEL POTENTIAL
------------------------------
Loading Hartree-Fock densities                     ... done
Calculating cut-offs                               ... done
Initializing the effective Hamiltonian             ... done
Setting up the integral package (SHARK)            ... done
Starting the Coulomb interaction                   ... done (   0.0 sec)
Reading the grid                                   ... done
Mapping shells                                     ... done
Starting the XC term evaluation                    ... done (   0.0 sec)
  promolecular density results
     # of electrons  =     23.997888670
     EX              =    -19.474303621
     EC              =     -0.766793049
     EX+EC           =    -20.241096669
Transforming the Hamiltonian                       ... done (   0.0 sec)
Diagonalizing the Hamiltonian                      ... done (   0.0 sec)
Back transforming the eigenvectors                 ... done (   0.0 sec)
Now organizing SCF variables                       ... done
                      ------------------
                      INITIAL GUESS DONE (   0.0 sec)
                      ------------------
-------------------
DFT GRID GENERATION
-------------------

General Integration Accuracy     IntAcc      ... 4.388
Radial Grid Type                 RadialGrid  ... OptM3 with GC (2021)
Angular Grid (max. ang.)         AngularGrid ... 4 (Lebedev-302)
Angular grid pruning method      GridPruning ... 4 (adaptive)
Weight generation scheme         WeightScheme... Becke
Basis function cutoff            BFCut       ... 1.0000e-11
Integration weight cutoff        WCut        ... 1.0000e-14
Angular grids for H and He will be reduced by one unit
Partially contracted basis set               ... off
Rotationally invariant grid construction     ... off

Total number of grid points                  ...    31329
Total number of batches                      ...      492
Average number of points per batch           ...       63
Average number of grid points per atom       ...     4476
Time for grid setup =    0.112 sec

--------------------
COSX GRID GENERATION
--------------------

GRIDX 1
-------
General Integration Accuracy     IntAcc      ... 3.816
Radial Grid Type                 RadialGrid  ... OptM3 with GC (2021)
Angular Grid (max. ang.)         AngularGrid ... 1 (Lebedev-50)
Angular grid pruning method      GridPruning ... 4 (adaptive)
Weight generation scheme         WeightScheme... Becke
Basis function cutoff            BFCut       ... 1.0000e-11
Integration weight cutoff        WCut        ... 1.0000e-14
Angular grids for H and He will be reduced by one unit
Partially contracted basis set               ... on
Rotationally invariant grid construction     ... off

Total number of grid points                  ...     4042
Total number of batches                      ...       67
Average number of points per batch           ...       60
Average number of grid points per atom       ...      577
UseSFitting                                  ... on

GRIDX 2
-------
General Integration Accuracy     IntAcc      ... 4.020
Radial Grid Type                 RadialGrid  ... OptM3 with GC (2021)
Angular Grid (max. ang.)         AngularGrid ... 2 (Lebedev-110)
Angular grid pruning method      GridPruning ... 4 (adaptive)
Weight generation scheme         WeightScheme... Becke
Basis function cutoff            BFCut       ... 1.0000e-11
Integration weight cutoff        WCut        ... 1.0000e-14
Angular grids for H and He will be reduced by one unit
Partially contracted basis set               ... on
Rotationally invariant grid construction     ... off

Total number of grid points                  ...     8735
Total number of batches                      ...      140
Average number of points per batch           ...       62
Average number of grid points per atom       ...     1248
UseSFitting                                  ... on

GRIDX 3
-------
General Integration Accuracy     IntAcc      ... 4.338
Radial Grid Type                 RadialGrid  ... OptM3 with GC (2021)
Angular Grid (max. ang.)         AngularGrid ... 3 (Lebedev-194)
Angular grid pruning method      GridPruning ... 4 (adaptive)
Weight generation scheme         WeightScheme... Becke
Basis function cutoff            BFCut       ... 1.0000e-11
Integration weight cutoff        WCut        ... 1.0000e-14
Angular grids for H and He will be reduced by one unit
Partially contracted basis set               ... on
Rotationally invariant grid construction     ... off

Total number of grid points                  ...    19266
Total number of batches                      ...      305
Average number of points per batch           ...       63
Average number of grid points per atom       ...     2752
UseSFitting                                  ... on

Time for X-Grid setup             =    0.073 sec

--------------
SCF ITERATIONS
--------------
ITER       Energy         Delta-E        Max-DP      RMS-DP      [F,P]     Damp
               ***  Starting incremental Fock matrix formation  ***
  0   -153.2328752300   0.000000000000 0.22318783  0.00554220  0.3817743 0.7000
  1   -153.3600239950  -0.127148764980 0.09545951  0.00243693  0.0988722 0.7000
                               ***Turning on DIIS***
  2   -153.3252300977   0.034793897346 0.05649757  0.00175643  0.1335294 0.7000
  3   -153.3798190713  -0.054588973610 0.14867177  0.00417927  0.0456451 0.0000
  4   -153.4470545569  -0.067235485598 0.00747429  0.00025697  0.1311520 0.7000
  5   -153.4509776398  -0.003923082962 0.00885149  0.00031546  0.1217702 0.7000
  6   -153.4538057144  -0.002828074595 0.00838718  0.00031327  0.1144189 0.7000
  7   -153.4557008353  -0.001895120878 0.00741273  0.00028780  0.1090360 0.7000
  8   -153.4572872773  -0.001586441956 0.02453628  0.00085953  0.1041062 0.7000
  9   -153.4702867199  -0.012999442597 0.03197061  0.00127018  0.0308707 0.0000
 10   -153.4714782005  -0.001191480654 0.01815821  0.00052541  0.0701700 0.0000
 11   -153.4775816598  -0.006103459296 0.00888249  0.00027688  0.0333610 0.0000
 12   -153.4789929534  -0.001411293607 0.00364458  0.00014543  0.0149066 0.0000
 13   -153.4793096963  -0.000316742864 0.00251680  0.00007850  0.0058691 0.0000
                      *** Initiating the SOSCF procedure ***
                           *** Shutting down DIIS ***
                      *** Re-Reading the Fockian *** 
                      *** Removing any level shift *** 
ITER      Energy       Delta-E        Grad      Rot      Max-DP    RMS-DP
 14   -153.47938001  -0.0000703172  0.001397  0.001397  0.001562  0.000052
               *** Restarting incremental Fock matrix formation ***
 15   -153.47940785  -0.0000278331  0.000726  0.011426  0.004148  0.000130
 16   -153.47942401  -0.0000161629  0.001749  0.015114  0.007485  0.000308
 17   -153.47934179   0.0000822189  0.002934  0.011764  0.005292  0.000221
 18   -153.47945373  -0.0001119371  0.000129  0.001508  0.000424  0.000018
 19   -153.47945446  -0.0000007281  0.000074  0.001928  0.000471  0.000021
 20   -153.47945513  -0.0000006769  0.000050  0.003169  0.000715  0.000032
 21   -153.47945554  -0.0000004124  0.000058  0.000143  0.000090  0.000004
 22   -153.47945557  -0.0000000231  0.000039  0.000191  0.000049  0.000002
 23   -153.47945559  -0.0000000193  0.000003  0.000020  0.000011  0.000001
                  ***Gradient check signals convergence***
              ***Rediagonalizing the Fockian in SOSCF/NRSCF***

               *****************************************************
               *                     SUCCESS                       *
               *           SCF CONVERGED AFTER  24 CYCLES          *
               *****************************************************

Old exchange energy                            =     -4.960493772 Eh
New exchange energy                            =     -4.960496512 Eh
Exchange energy change after final integration =     -0.000002740 Eh
Total energy after final integration           =   -153.479458328 Eh
Final COS-X integration done in                =     0.310 sec

----------------
TOTAL SCF ENERGY
----------------

Total Energy       :         -153.47945833 Eh           -4176.38838 eV

Components:
Nuclear Repulsion  :           67.54619691 Eh            1838.02546 eV
Electronic Energy  :         -221.02565524 Eh           -6014.41385 eV
One Electron Energy:         -341.89611488 Eh           -9303.46627 eV
Two Electron Energy:          120.87045964 Eh            3289.05242 eV
Max COSX asymmetry :            0.00000225 Eh               0.00006 eV

Virial components:
Potential Energy   :         -306.53460213 Eh           -8341.23058 eV
Kinetic Energy     :          153.05514380 Eh            4164.84220 eV
Virial Ratio       :            2.00277230


DFT components:
N(Alpha)           :       11.999997202883 electrons
N(Beta)            :       11.999997202883 electrons
N(Total)           :       23.999994405767 electrons
E(X)               :      -14.913019224954 Eh       
E(C)               :       -0.772140999809 Eh       
E(XC)              :      -15.685160224763 Eh       
DFET-embed. en.    :        0.000000000000 Eh       

---------------
SCF CONVERGENCE
---------------

  Last Energy change         ...   -7.3368e-10  Tolerance :   1.0000e-08
  Last MAX-Density change    ...    1.4433e-15  Tolerance :   1.0000e-07
  Last RMS-Density change    ...    2.9323e-17  Tolerance :   5.0000e-09
  Last Orbital Gradient      ...    1.7477e-06  Tolerance :   1.0000e-05
  Last Orbital Rotation      ...    8.0250e-06  Tolerance :   1.0000e-05

             **** THE GBW FILE WAS UPDATED (ox_gs_G_orca0007.gbw) ****
             **** DENSITY ox_gs_G_orca0007.scfp WAS UPDATED ****
             **** ENERGY FILE WAS UPDATED (ox_gs_G_orca0007.en.tmp) ****
             **** THE GBW FILE WAS UPDATED (ox_gs_G_orca0007.gbw) ****
             **** DENSITY ox_gs_G_orca0007.scfp WAS UPDATED ****
----------------
ORBITAL ENERGIES
----------------

  NO   OCC          E(Eh)            E(eV) 
   0   2.0000     -19.176931      -521.8308 
   1   2.0000     -10.297917      -280.2206 
   2   2.0000     -10.275467      -279.6097 
   3   2.0000      -0.979363       -26.6498 
   4   2.0000      -0.789635       -21.4871 
   5   2.0000      -0.629329       -17.1249 
   6   2.0000      -0.532598       -14.4927 
   7   2.0000      -0.484626       -13.1873 
   8   2.0000      -0.442451       -12.0397 
   9   2.0000      -0.387897       -10.5552 
  10   2.0000      -0.252160        -6.8616 
  11   2.0000      -0.228144        -6.2081 
  12   0.0000      -0.168076        -4.5736 
  13   0.0000       0.053045         1.4434 
  14   0.0000       0.079595         2.1659 
  15   0.0000       0.095571         2.6006 
  16   0.0000       0.134620         3.6632 
  17   0.0000       0.147245         4.0067 
  18   0.0000       0.186528         5.0757 
  19   0.0000       0.223350         6.0777 
  20   0.0000       0.226692         6.1686 
  21   0.0000       0.234691         6.3863 
  22   0.0000       0.244965         6.6658 
  23   0.0000       0.335393         9.1265 
  24   0.0000       0.356443         9.6993 
  25   0.0000       0.395484        10.7617 
  26   0.0000       0.418064        11.3761 
  27   0.0000       0.432320        11.7640 
  28   0.0000       0.454879        12.3779 
  29   0.0000       0.481039        13.0897 
  30   0.0000       0.505305        13.7501 
  31   0.0000       0.538984        14.6665 
  32   0.0000       0.546859        14.8808 
  33   0.0000       0.608071        16.5465 
  34   0.0000       0.642707        17.4890 
  35   0.0000       0.738029        20.0828 
  36   0.0000       0.783579        21.3223 
  37   0.0000       0.837915        22.8008 
  38   0.0000       0.889995        24.2180 
  39   0.0000       0.916411        24.9368 
  40   0.0000       0.935203        25.4482 
  41   0.0000       1.013667        27.5833 
  42   0.0000       1.095949        29.8223 
  43   0.0000       1.118701        30.4414 
  44   0.0000       1.203845        32.7583 
  45   0.0000       1.332351        36.2551 
  46   0.0000       1.434577        39.0368 
  47   0.0000       1.439041        39.1583 
  48   0.0000       1.497027        40.7362 
  49   0.0000       1.524167        41.4747 
  50   0.0000       1.550211        42.1834 
  51   0.0000       1.582230        43.0547 
  52   0.0000       1.630285        44.3623 
  53   0.0000       1.644636        44.7528 
  54   0.0000       1.723486        46.8984 
  55   0.0000       1.771191        48.1966 
  56   0.0000       1.823249        49.6131 
  57   0.0000       1.851637        50.3856 
  58   0.0000       1.897112        51.6230 
  59   0.0000       1.938144        52.7396 
  60   0.0000       1.985649        54.0323 
  61   0.0000       2.045115        55.6504 
  62   0.0000       2.104748        57.2731 
  63   0.0000       2.257885        61.4402 
  64   0.0000       2.298246        62.5385 
  65   0.0000       2.356383        64.1204 
  66   0.0000       2.396048        65.1998 
  67   0.0000       2.491595        67.7997 
  68   0.0000       2.513638        68.3996 
  69   0.0000       2.562923        69.7407 
  70   0.0000       2.604802        70.8803 
  71   0.0000       2.617048        71.2135 
  72   0.0000       2.654870        72.2427 
  73   0.0000       2.682284        72.9886 
  74   0.0000       2.751239        74.8650 
  75   0.0000       2.821017        76.7638 
  76   0.0000       2.837915        77.2236 
  77   0.0000       2.962666        80.6183 
  78   0.0000       2.998038        81.5807 
  79   0.0000       3.009739        81.8992 
  80   0.0000       3.051767        83.0428 
  81   0.0000       3.069663        83.5298 
  82   0.0000       3.123322        84.9899 
  83   0.0000       3.152789        85.7917 
  84   0.0000       3.195969        86.9667 
  85   0.0000       3.325151        90.4820 
  86   0.0000       3.331500        90.6547 
  87   0.0000       3.384370        92.0934 
  88   0.0000       3.411840        92.8409 
  89   0.0000       3.426205        93.2318 
  90   0.0000       3.495872        95.1275 
  91   0.0000       3.658660        99.5572 
  92   0.0000       3.733424       101.5916 
  93   0.0000       3.882128       105.6381 
  94   0.0000       4.064458       110.5995 
  95   0.0000       4.140476       112.6681 
  96   0.0000       4.203701       114.3885 
  97   0.0000       4.305005       117.1451 
  98   0.0000       4.438681       120.7827 
  99   0.0000       4.586212       124.7972 
 100   0.0000       4.612060       125.5005 
 101   0.0000       4.790648       130.3602 
 102   0.0000       5.204917       141.6330 
 103   0.0000       5.230631       142.3327 
 104   0.0000       5.398136       146.8908 
 105   0.0000       5.421479       147.5259 
 106   0.0000       5.738132       156.1425 
 107   0.0000       5.820150       158.3743 
 108   0.0000       5.934831       161.4950 
 109   0.0000       6.377584       173.5429 
 110   0.0000       6.385131       173.7482 
 111   0.0000       6.792964       184.8460 
 112   0.0000       6.804582       185.1621 
 113   0.0000       6.980418       189.9468 
 114   0.0000      22.185311       603.6930 
 115   0.0000      22.487278       611.9099 
 116   0.0000      43.778014      1191.2603 

                    ********************************
                    * MULLIKEN POPULATION ANALYSIS *
                    ********************************

-----------------------
MULLIKEN ATOMIC CHARGES
-----------------------
   0 O :   -0.409095
   1 C :   -0.167581
   2 C :   -0.087463
   3 H :    0.141034
   4 H :    0.206097
   5 H :    0.160420
   6 H :    0.156587
Sum of atomic charges:    0.0000000

--------------------------------
MULLIKEN REDUCED ORBITAL CHARGES
--------------------------------
  0 O s       :     3.900583  s :     3.900583
      pz      :     1.469633  p :     4.484518
      px      :     1.611336
      py      :     1.403549
      dz2     :     0.002889  d :     0.022790
      dxz     :     0.000799
      dyz     :     0.005626
      dx2y2   :     0.005799
      dxy     :     0.007676
      f0      :     0.000107  f :     0.001204
      f+1     :     0.000064
      f-1     :     0.000127
      f+2     :     0.000115
      f-2     :     0.000115
      f+3     :     0.000420
      f-3     :     0.000256
  1 C s       :     3.234546  s :     3.234546
      pz      :     1.043480  p :     2.773968
      px      :     0.903246
      py      :     0.827242
      dz2     :     0.014407  d :     0.148673
      dxz     :     0.027060
      dyz     :     0.029516
      dx2y2   :     0.033391
      dxy     :     0.044298
      f0      :     0.001175  f :     0.010394
      f+1     :     0.001405
      f-1     :     0.000356
      f+2     :     0.001335
      f-2     :     0.000950
      f+3     :     0.001959
      f-3     :     0.003214
  2 C s       :     3.261985  s :     3.261985
      pz      :     1.065176  p :     2.779320
      px      :     0.996113
      py      :     0.718031
      dz2     :     0.004301  d :     0.042305
      dxz     :     0.022296
      dyz     :     0.001823
      dx2y2   :     0.004725
      dxy     :     0.009160
      f0      :     0.000436  f :     0.003853
      f+1     :     0.000992
      f-1     :     0.000108
      f+2     :     0.000710
      f-2     :     0.000064
      f+3     :     0.000558
      f-3     :     0.000986
  3 H s       :     0.831967  s :     0.831967
      pz      :     0.010604  p :     0.026999
      px      :     0.008296
      py      :     0.008099
  4 H s       :     0.771101  s :     0.771101
      pz      :     0.010026  p :     0.022802
      px      :     0.006645
      py      :     0.006130
  5 H s       :     0.815265  s :     0.815265
      pz      :     0.011961  p :     0.024315
      px      :     0.007232
      py      :     0.005122
  6 H s       :     0.819624  s :     0.819624
      pz      :     0.011098  p :     0.023789
      px      :     0.007881
      py      :     0.004810


                     *******************************
                     * LOEWDIN POPULATION ANALYSIS *
                     *******************************

----------------------
LOEWDIN ATOMIC CHARGES
----------------------
   0 O :   -0.128601
   1 C :   -0.435733
   2 C :    0.009143
   3 H :    0.120863
   4 H :    0.207113
   5 H :    0.114262
   6 H :    0.112954

-------------------------------
LOEWDIN REDUCED ORBITAL CHARGES
-------------------------------
  0 O s       :     3.586742  s :     3.586742
      pz      :     1.424134  p :     4.484157
      px      :     1.579254
      py      :     1.480769
      dz2     :     0.006292  d :     0.054303
      dxz     :     0.002065
      dyz     :     0.014293
      dx2y2   :     0.016197
      dxy     :     0.015456
      f0      :     0.000421  f :     0.003400
      f+1     :     0.000148
      f-1     :     0.000379
      f+2     :     0.000330
      f-2     :     0.000368
      f+3     :     0.000908
      f-3     :     0.000846
  1 C s       :     2.823067  s :     2.823067
      pz      :     1.024513  p :     2.977673
      px      :     1.040993
      py      :     0.912168
      dz2     :     0.077997  d :     0.567377
      dxz     :     0.105793
      dyz     :     0.072498
      dx2y2   :     0.151106
      dxy     :     0.159983
      f0      :     0.007684  f :     0.067616
      f+1     :     0.008160
      f-1     :     0.005102
      f+2     :     0.007261
      f-2     :     0.006388
      f+3     :     0.016549
      f-3     :     0.016472
  2 C s       :     2.901937  s :     2.901937
      pz      :     1.082651  p :     2.856327
      px      :     1.111263
      py      :     0.662413
      dz2     :     0.028284  d :     0.210587
      dxz     :     0.109384
      dyz     :     0.004786
      dx2y2   :     0.034033
      dxy     :     0.034101
      f0      :     0.003322  f :     0.022006
      f+1     :     0.003886
      f-1     :     0.000802
      f+2     :     0.004279
      f-2     :     0.000942
      f+3     :     0.004073
      f-3     :     0.004701
  3 H s       :     0.800595  s :     0.800595
      pz      :     0.032626  p :     0.078542
      px      :     0.022425
      py      :     0.023491
  4 H s       :     0.734757  s :     0.734757
      pz      :     0.027413  p :     0.058130
      px      :     0.015923
      py      :     0.014794
  5 H s       :     0.809601  s :     0.809601
      pz      :     0.038400  p :     0.076137
      px      :     0.021673
      py      :     0.016064
  6 H s       :     0.813473  s :     0.813473
      pz      :     0.035397  p :     0.073573
      px      :     0.023506
      py      :     0.014670


                      *****************************
                      * MAYER POPULATION ANALYSIS *
                      *****************************

  NA   - Mulliken gross atomic population
  ZA   - Total nuclear charge
  QA   - Mulliken gross atomic charge
  VA   - Mayer's total valence
  BVA  - Mayer's bonded valence
  FA   - Mayer's free valence

  ATOM       NA         ZA         QA         VA         BVA        FA
  0 O      8.4091     8.0000    -0.4091     1.7127     1.7127     0.0000
  1 C      6.1676     6.0000    -0.1676     4.1472     4.1472    -0.0000
  2 C      6.0875     6.0000    -0.0875     3.6914     3.6914     0.0000
  3 H      0.8590     1.0000     0.1410     0.9794     0.9794     0.0000
  4 H      0.7939     1.0000     0.2061     0.9565     0.9565    -0.0000
  5 H      0.8396     1.0000     0.1604     0.9645     0.9645     0.0000
  6 H      0.8434     1.0000     0.1566     0.9683     0.9683     0.0000

  Mayer bond orders larger than 0.100000
B(  0-O ,  1-C ) :   1.1088 B(  0-O ,  2-C ) :   0.5784 B(  1-C ,  2-C ) :   1.1631 
B(  1-C ,  3-H ) :   0.9994 B(  1-C ,  4-H ) :   0.8645 B(  2-C ,  5-H ) :   0.9507 
B(  2-C ,  6-H ) :   0.9504 

-------
TIMINGS
-------

Total SCF time: 0 days 0 hours 0 min 5 sec 

Total time                  ....       5.134 sec
Sum of individual times     ....       4.799 sec  ( 93.5%)

Fock matrix formation       ....       4.467 sec  ( 87.0%)
  Split-RI-J                ....       0.427 sec  (  9.6% of F)
  Chain of spheres X        ....       3.017 sec  ( 67.5% of F)
  XC integration            ....       0.926 sec  ( 20.7% of F)
    Basis function eval.    ....       0.250 sec  ( 27.0% of XC)
    Density eval.           ....       0.192 sec  ( 20.7% of XC)
    XC-Functional eval.     ....       0.055 sec  (  5.9% of XC)
    XC-Potential eval.      ....       0.317 sec  ( 34.2% of XC)
Diagonalization             ....       0.039 sec  (  0.8%)
Density matrix formation    ....       0.003 sec  (  0.1%)
Population analysis         ....       0.005 sec  (  0.1%)
Initial guess               ....       0.016 sec  (  0.3%)
Orbital Transformation      ....       0.000 sec  (  0.0%)
Orbital Orthonormalization  ....       0.000 sec  (  0.0%)
DIIS solution               ....       0.036 sec  (  0.7%)
SOSCF solution              ....       0.026 sec  (  0.5%)
Grid generation             ....       0.208 sec  (  4.0%)

Maximum memory used throughout the entire SCF-calculation: 61.0 MB


-------------------------------------------------------------------------------
                          DFT DISPERSION CORRECTION                            
                                                                               
                              DFTD3 V3.1  Rev 1                                
                          USING Becke-Johnson damping                          
-------------------------------------------------------------------------------
The PBE0 functional is recognized
Active option DFTDOPT                   ...         4   

molecular C6(AA) [au] = 394.928206 


            DFT-D V3
 parameters
 s6 scaling factor         :     1.0000 
 a1 scaling factor         :     0.4145 
 s8 scaling factor         :     1.2177 
 a2 scaling factor         :     4.8593 
 ad hoc parameters k1-k3   :    16.0000     1.3333    -4.0000 

 Edisp/kcal,au: -1.629527147473  -0.002596816528 
 E6   /kcal   :  -1.063293458 
 E8   /kcal   :  -0.566233690 
 % E8         :  34.748343441 

-------------------------   ----------------
Dispersion correction           -0.002596817
-------------------------   ----------------


-------------------------   --------------------
FINAL SINGLE POINT ENERGY      -153.482055144704
-------------------------   --------------------



           ************************************************************
           *        Program running with 8 parallel MPI-processes     *
           *              working on a common directory               *
           ************************************************************
------------------------------------------------------------------------------
                         ORCA SCF GRADIENT CALCULATION
------------------------------------------------------------------------------

 ... reading COSX grid (gridx3)
Gradient of the Kohn-Sham DFT energy:
Kohn-Sham wavefunction type      ... RKS
Hartree-Fock exchange scaling    ...    0.250
Number of operators              ...    1
Number of atoms                  ...    7
Basis set dimensions             ...  117
Integral neglect threshold       ... 2.5e-11
Integral primitive cutoff        ... 2.5e-12
SHARK Integral package           ... ON

Nuc. rep. gradient       (SHARK) ... done (  0.0 sec)
HCore & Overlap gradient (SHARK) ... done (  0.0 sec)
RI-J gradient            (SHARK) ... done (  0.1 sec)
COSX-gradient                    ... done (  0.4 sec)
Exchange-correlation gradient    ... done
Dispersion correction            ... done

------------------
CARTESIAN GRADIENT
------------------

   1   O   :   -0.026346022   -0.035499220    0.036788442
   2   C   :    0.015548956   -0.040980284    0.003572950
   3   C   :    0.060605076    0.006888088    0.008563432
   4   H   :    0.008079690    0.060132043   -0.042824951
   5   H   :   -0.020378807    0.017135317   -0.016539759
   6   H   :   -0.023660460   -0.015681014    0.042202429
   7   H   :   -0.013921955    0.007951495   -0.031902195

Difference to translation invariance:
           :   -0.0000735213   -0.0000535762   -0.0001396524

Difference to rotation invariance:
           :   -0.0000015856   -0.0001531460    0.0007182809

Norm of the cartesian gradient     ...    0.1392642190
RMS gradient                       ...    0.0303899441
MAX gradient                       ...    0.0606050761

-------
TIMINGS
-------

Total SCF gradient time            ...        0.761 sec

One electron gradient       ....       0.010 sec  (  1.3%)
RI-J Coulomb gradient       ....       0.079 sec  ( 10.4%)
COSX gradient               ....       0.353 sec  ( 46.3%)
XC gradient                 ....       0.172 sec  ( 22.7%)

Maximum memory used throughout the entire SCFGRAD-calculation: 35.9 MB

                            ***************************************
                            *     ORCA property calculations      *
                            ***************************************

                                    ---------------------
                                    Active property flags
                                    ---------------------
   (+) Dipole Moment


------------------------------------------------------------------------------
                       ORCA ELECTRIC PROPERTIES CALCULATION
------------------------------------------------------------------------------

Dipole Moment Calculation                       ... on
Quadrupole Moment Calculation                   ... off
Polarizability Calculation                      ... off
GBWName                                         ... ox_gs_G_orca0007.gbw
Electron density                                ... ox_gs_G_orca0007.scfp
The origin for moment calculation is the CENTER OF MASS  = (-1.007475, -0.091725  0.037735)

-------------
DIPOLE MOMENT
-------------
                                X             Y             Z
Electronic contribution:     -0.80832       1.28497       0.10732
Nuclear contribution   :      1.85852      -2.42502      -0.07870
                        -----------------------------------------
Total Dipole Moment    :      1.05020      -1.14005       0.02862
                        -----------------------------------------
Magnitude (a.u.)       :      1.55031
Magnitude (Debye)      :      3.94058



--------------------
Rotational spectrum 
--------------------
 
Rotational constants in cm-1:     1.701196     0.315341     0.296154 
Rotational constants in MHz : 51000.569024  9453.697890  8878.459943 

 Dipole components along the rotational axes: 
x,y,z [a.u.] :    -1.484195    -0.447918    -0.000351 
x,y,z [Debye]:    -3.772523    -1.138518    -0.000892 

 

Timings for individual modules:

Sum of individual times         ...        6.551 sec (=   0.109 min)
GTO integral calculation        ...        0.292 sec (=   0.005 min)   4.5 %
SCF iterations                  ...        5.304 sec (=   0.088 min)  81.0 %
SCF Gradient evaluation         ...        0.956 sec (=   0.016 min)  14.6 %
                             ****ORCA TERMINATED NORMALLY****
TOTAL RUN TIME: 0 days 0 hours 0 minutes 6 seconds 822 msec
