
                                 *****************
                                 * O   R   C   A *
                                 *****************

                                            #,                                       
                                            ###                                      
                                            ####                                     
                                            #####                                    
                                            ######                                   
                                           ########,                                 
                                     ,,################,,,,,                         
                               ,,#################################,,                 
                          ,,##########################################,,             
                       ,#########################################, ''#####,          
                    ,#############################################,,   '####,        
                  ,##################################################,,,,####,       
                ,###########''''           ''''###############################       
              ,#####''   ,,,,##########,,,,          '''####'''          '####       
            ,##' ,,,,###########################,,,                        '##       
           ' ,,###''''                  '''############,,,                           
         ,,##''                                '''############,,,,        ,,,,,,###''
      ,#''                                            '''#######################'''  
     '                                                          ''''####''''         
             ,#######,   #######,   ,#######,      ##                                
            ,#'     '#,  ##    ##  ,#'     '#,    #''#        ######   ,####,        
            ##       ##  ##   ,#'  ##            #'  '#       #        #'  '#        
            ##       ##  #######   ##           ,######,      #####,   #    #        
            '#,     ,#'  ##    ##  '#,     ,#' ,#      #,         ##   #,  ,#        
             '#######'   ##     ##  '#######'  #'      '#     #####' # '####'        



                  #######################################################
                  #                        -***-                        #
                  #          Department of theory and spectroscopy      #
                  #    Directorship and core code : Frank Neese         #
                  #        Max Planck Institute fuer Kohlenforschung    #
                  #                Kaiser Wilhelm Platz 1               #
                  #                 D-45470 Muelheim/Ruhr               #
                  #                      Germany                        #
                  #                                                     #
                  #                  All rights reserved                #
                  #                        -***-                        #
                  #######################################################


                         Program Version 5.0.2 -  RELEASE  -


 With contributions from (in alphabetic order):
   Daniel Aravena         : Magnetic Suceptibility
   Michael Atanasov       : Ab Initio Ligand Field Theory (pilot matlab implementation)
   Alexander A. Auer      : GIAO ZORA, VPT2 properties, NMR spectrum
   Ute Becker             : Parallelization
   Giovanni Bistoni       : ED, misc. LED, open-shell LED, HFLD
   Martin Brehm           : Molecular dynamics
   Dmytro Bykov           : SCF Hessian
   Vijay G. Chilkuri      : MRCI spin determinant printing, contributions to CSF-ICE
   Dipayan Datta          : RHF DLPNO-CCSD density
   Achintya Kumar Dutta   : EOM-CC, STEOM-CC
   Dmitry Ganyushin       : Spin-Orbit,Spin-Spin,Magnetic field MRCI
   Miquel Garcia          : C-PCM and meta-GGA Hessian, CC/C-PCM, Gaussian charge scheme
   Yang Guo               : DLPNO-NEVPT2, F12-NEVPT2, CIM, IAO-localization
   Andreas Hansen         : Spin unrestricted coupled pair/coupled cluster methods
   Benjamin Helmich-Paris : MC-RPA, TRAH-SCF, COSX integrals
   Lee Huntington         : MR-EOM, pCC
   Robert Izsak           : Overlap fitted RIJCOSX, COSX-SCS-MP3, EOM
   Marcus Kettner         : VPT2
   Christian Kollmar      : KDIIS, OOCD, Brueckner-CCSD(T), CCSD density, CASPT2, CASPT2-K
   Simone Kossmann        : Meta GGA functionals, TD-DFT gradient, OOMP2, MP2 Hessian
   Martin Krupicka        : Initial AUTO-CI
   Lucas Lang             : DCDCAS
   Marvin Lechner         : AUTO-CI (C++ implementation), FIC-MRCC
   Dagmar Lenk            : GEPOL surface, SMD
   Dimitrios Liakos       : Extrapolation schemes; Compound Job, initial MDCI parallelization
   Dimitrios Manganas     : Further ROCIS development; embedding schemes
   Dimitrios Pantazis     : SARC Basis sets
   Anastasios Papadopoulos: AUTO-CI, single reference methods and gradients
   Taras Petrenko         : DFT Hessian,TD-DFT gradient, ASA, ECA, R-Raman, ABS, FL, XAS/XES, NRVS
   Peter Pinski           : DLPNO-MP2, DLPNO-MP2 Gradient
   Christoph Reimann      : Effective Core Potentials
   Marius Retegan         : Local ZFS, SOC
   Christoph Riplinger    : Optimizer, TS searches, QM/MM, DLPNO-CCSD(T), (RO)-DLPNO pert. Triples
   Tobias Risthaus        : Range-separated hybrids, TD-DFT gradient, RPA, STAB
   Michael Roemelt        : Original ROCIS implementation
   Masaaki Saitow         : Open-shell DLPNO-CCSD energy and density
   Barbara Sandhoefer     : DKH picture change effects
   Avijit Sen             : IP-ROCIS
   Kantharuban Sivalingam : CASSCF convergence, NEVPT2, FIC-MRCI
   Bernardo de Souza      : ESD, SOC TD-DFT
   Georgi Stoychev        : AutoAux, RI-MP2 NMR, DLPNO-MP2 response
   Willem Van den Heuvel  : Paramagnetic NMR
   Boris Wezisla          : Elementary symmetry handling
   Frank Wennmohs         : Technical directorship


 We gratefully acknowledge several colleagues who have allowed us to
 interface, adapt or use parts of their codes:
   Stefan Grimme, W. Hujo, H. Kruse, P. Pracht,  : VdW corrections, initial TS optimization,
                  C. Bannwarth, S. Ehlert          DFT functionals, gCP, sTDA/sTD-DF
   Ed Valeev, F. Pavosevic, A. Kumar             : LibInt (2-el integral package), F12 methods
   Garnet Chan, S. Sharma, J. Yang, R. Olivares  : DMRG
   Ulf Ekstrom                                   : XCFun DFT Library
   Mihaly Kallay                                 : mrcc  (arbitrary order and MRCC methods)
   Jiri Pittner, Ondrej Demel                    : Mk-CCSD
   Frank Weinhold                                : gennbo (NPA and NBO analysis)
   Christopher J. Cramer and Donald G. Truhlar   : smd solvation model
   Lars Goerigk                                  : TD-DFT with DH, B97 family of functionals
   V. Asgeirsson, H. Jonsson                     : NEB implementation
   FAccTs GmbH                                   : IRC, NEB, NEB-TS, DLPNO-Multilevel, CI-OPT
                                                   MM, QMMM, 2- and 3-layer-ONIOM, Crystal-QMMM,
                                                   LR-CPCM, SF, NACMEs, symmetry and pop. for TD-DFT,
                                                   nearIR, NL-DFT gradient (VV10), updates on ESD,
                                                   ML-optimized integration grids
   S Lehtola, MJT Oliveira, MAL Marques          : LibXC Library
   Liviu Ungur et al                             : ANISO software


 Your calculation uses the libint2 library for the computation of 2-el integrals
 For citations please refer to: http://libint.valeyev.net

 Your ORCA version has been built with support for libXC version: 5.1.0
 For citations please refer to: https://tddft.org/programs/libxc/

 This ORCA versions uses:
   CBLAS   interface :  Fast vector & matrix operations
   LAPACKE interface :  Fast linear algebra routines
   SCALAPACK package :  Parallel linear algebra routines
   Shared memory     :  Shared parallel matrices
   BLAS/LAPACK       :  OpenBLAS 0.3.15  USE64BITINT DYNAMIC_ARCH NO_AFFINITY SkylakeX SINGLE_THREADED
        Core in use  :  SkylakeX
   Copyright (c) 2011-2014, The OpenBLAS Project


Your calculation utilizes the atom-pairwise dispersion correction
with the Becke-Johnson damping scheme (D3BJ)
Cite in your paper:
S.Grimme, S.Ehrlich, L.Goerigk, J Comput Chem, (2011), 32, 1456–1465 
S.Grimme, J.Antony, S.Ehrlich and H.Krieg, J.Chem.Phys., 132, (2010), 154104 
   

================================================================================

----- Orbital basis set information -----
Your calculation utilizes the basis: def2-TZVP
   F. Weigend and R. Ahlrichs, Phys. Chem. Chem. Phys. 7, 3297 (2005).

----- AuxJ basis set information -----
Your calculation utilizes the auxiliary basis: def2/J
   F. Weigend, Phys. Chem. Chem. Phys. 8, 1057 (2006).

================================================================================
                                        WARNINGS
                       Please study these warnings very carefully!
================================================================================


INFO   : the flag for use of the SHARK integral package has been found!

================================================================================
                                       INPUT FILE
================================================================================
NAME = ox_gs_G_orca0004.inp
|  1> ! engrad PBE0 D3BJ def2-TZVP  
|  2> %pal nprocs 8 end
|  3> %maxcore 3000
|  4>  
|  5> *xyz 0 1 
|  6> O   -1.4679348998090112 0.7132660582616868 0.01572356455117074
|  7> C   -0.7890406409918684 -0.4267883448395428 -0.06262274487154919
|  8> C   0.7295215330592146 -0.46334299623576497 -0.02142285887350738
|  9> H   -1.327257190369688 -0.6367768408753428 0.9466667669552008
| 10> H   -1.2818463448513908 -0.6126270566022538 -0.906647639208215
| 11> H   1.3172874827550336 -0.6081637217298597 -0.9025143886885555
| 12> H   1.3687457632332907 -0.6483980873634969 0.945725303821118
| 13> *
| 14> 
| 15>                          ****END OF INPUT****
================================================================================

                     *******************************
                     * Energy+Gradient Calculation *
                     *******************************

---------------------------------
CARTESIAN COORDINATES (ANGSTROEM)
---------------------------------
  O     -1.467935    0.713266    0.015724
  C     -0.789041   -0.426788   -0.062623
  C      0.729522   -0.463343   -0.021423
  H     -1.327257   -0.636777    0.946667
  H     -1.281846   -0.612627   -0.906648
  H      1.317287   -0.608164   -0.902514
  H      1.368746   -0.648398    0.945725

----------------------------
CARTESIAN COORDINATES (A.U.)
----------------------------
  NO LB      ZA    FRAG     MASS         X           Y           Z
   0 O     8.0000    0    15.999   -2.773995    1.347878    0.029713
   1 C     6.0000    0    12.011   -1.491071   -0.806513   -0.118340
   2 C     6.0000    0    12.011    1.378596   -0.875591   -0.040483
   3 H     1.0000    0     1.008   -2.508153   -1.203334    1.788941
   4 H     1.0000    0     1.008   -2.422339   -1.157697   -1.713316
   5 H     1.0000    0     1.008    2.489313   -1.149263   -1.705505
   6 H     1.0000    0     1.008    2.586555   -1.225295    1.787162

--------------------------------
INTERNAL COORDINATES (ANGSTROEM)
--------------------------------
 O      0   0   0     0.000000000000     0.00000000     0.00000000
 C      1   0   0     1.329195095118     0.00000000     0.00000000
 C      2   1   0     1.519560709417   121.96864749     0.00000000
 H      2   1   3     1.162943481505    82.37648558   115.68109042
 H      2   1   3     0.994872610341    87.54817826   234.60809313
 H      3   2   1     1.069001467757   122.03097410   256.75366583
 H      3   2   1     1.173979800421   124.76862391    95.17163140

---------------------------
INTERNAL COORDINATES (A.U.)
---------------------------
 O      0   0   0     0.000000000000     0.00000000     0.00000000
 C      1   0   0     2.511814708324     0.00000000     0.00000000
 C      2   1   0     2.871553584665   121.96864749     0.00000000
 H      2   1   3     2.197644689273    82.37648558   115.68109042
 H      2   1   3     1.880036771683    87.54817826   234.60809313
 H      3   2   1     2.020120010820   122.03097410   256.75366583
 H      3   2   1     2.218500309552   124.76862391    95.17163140

---------------------
BASIS SET INFORMATION
---------------------
There are 3 groups of distinct atoms

 Group   1 Type O   : 11s6p2d1f contracted to 5s3p2d1f pattern {62111/411/11/1}
 Group   2 Type C   : 11s6p2d1f contracted to 5s3p2d1f pattern {62111/411/11/1}
 Group   3 Type H   : 5s1p contracted to 3s1p pattern {311/1}

Atom   0O    basis set group =>   1
Atom   1C    basis set group =>   2
Atom   2C    basis set group =>   2
Atom   3H    basis set group =>   3
Atom   4H    basis set group =>   3
Atom   5H    basis set group =>   3
Atom   6H    basis set group =>   3
---------------------------------
AUXILIARY/J BASIS SET INFORMATION
---------------------------------
There are 3 groups of distinct atoms

 Group   1 Type O   : 12s5p4d2f1g contracted to 6s4p3d1f1g pattern {711111/2111/211/2/1}
 Group   2 Type C   : 12s5p4d2f1g contracted to 6s4p3d1f1g pattern {711111/2111/211/2/1}
 Group   3 Type H   : 5s2p1d contracted to 3s1p1d pattern {311/2/1}

Atom   0O    basis set group =>   1
Atom   1C    basis set group =>   2
Atom   2C    basis set group =>   2
Atom   3H    basis set group =>   3
Atom   4H    basis set group =>   3
Atom   5H    basis set group =>   3
Atom   6H    basis set group =>   3


           ************************************************************
           *        Program running with 8 parallel MPI-processes     *
           *              working on a common directory               *
           ************************************************************
------------------------------------------------------------------------------
                           ORCA GTO INTEGRAL CALCULATION
                           -- RI-GTO INTEGRALS CHOSEN --
------------------------------------------------------------------------------
------------------------------------------------------------------------------
                   ___                                                        
                  /   \      - P O W E R E D   B Y -                         
                 /     \                                                     
                 |  |  |   _    _      __       _____    __    __             
                 |  |  |  | |  | |    /  \     |  _  \  |  |  /  |          
                  \  \/   | |  | |   /    \    | | | |  |  | /  /          
                 / \  \   | |__| |  /  /\  \   | |_| |  |  |/  /          
                |  |  |   |  __  | /  /__\  \  |    /   |      \           
                |  |  |   | |  | | |   __   |  |    \   |  |\   \          
                \     /   | |  | | |  |  |  |  | |\  \  |  | \   \       
                 \___/    |_|  |_| |__|  |__|  |_| \__\ |__|  \__/        
                                                                              
                      - O R C A' S   B I G   F R I E N D -                    
                                      &                                       
                       - I N T E G R A L  F E E D E R -                       
                                                                              
 v1 FN, 2020, v2 2021                                                         
------------------------------------------------------------------------------


Reading SHARK input file ox_gs_G_orca0004.SHARKINP.tmp ... ok
----------------------
SHARK INTEGRAL PACKAGE
----------------------

Number of atoms                             ...      7
Number of basis functions                   ...    117
Number of shells                            ...     49
Maximum angular momentum                    ...      3
Integral batch strategy                     ... SHARK/LIBINT Hybrid
RI-J (if used) integral strategy            ... SPLIT-RIJ (Revised 2003 algorithm where possible)
Printlevel                                  ...      1
Contraction scheme used                     ... SEGMENTED contraction
Coulomb Range Separation                    ... NOT USED
Exchange Range Separation                   ... NOT USED
Finite Nucleus Model                        ... NOT USED
Auxiliary Coulomb fitting basis             ... AVAILABLE
   # of basis functions in Aux-J            ...    191
   # of shells in Aux-J                     ...     65
   Maximum angular momentum in Aux-J        ...      4
Auxiliary J/K fitting basis                 ... NOT available
Auxiliary Correlation fitting basis         ... NOT available
Auxiliary 'external' fitting basis          ... NOT available
Integral threshold                          ...     2.500000e-11
Primitive cut-off                           ...     2.500000e-12
Primitive pair pre-selection threshold      ...     2.500000e-12

Calculating pre-screening integrals         ... done (  0.0 sec) Dimension = 49
Organizing shell pair data                  ... done (  0.0 sec)
Shell pair information
Total number of shell pairs                 ...      1225
Shell pairs after pre-screening             ...      1210
Total number of primitive shell pairs       ...      3648
Primitive shell pairs kept                  ...      3060
          la=0 lb=0:    368 shell pairs
          la=1 lb=0:    348 shell pairs
          la=1 lb=1:     91 shell pairs
          la=2 lb=0:    160 shell pairs
          la=2 lb=1:     78 shell pairs
          la=2 lb=2:     21 shell pairs
          la=3 lb=0:     81 shell pairs
          la=3 lb=1:     39 shell pairs
          la=3 lb=2:     18 shell pairs
          la=3 lb=3:      6 shell pairs

Calculating one electron integrals          ... done (  0.0 sec)
Calculating RI/J V-Matrix + Cholesky decomp.... done (  0.0 sec)
Calculating Nuclear repulsion               ... done (  0.0 sec) ENN=     68.070323572945 Eh

SHARK setup successfully completed in   0.1 seconds

Maximum memory used throughout the entire GTOINT-calculation: 14.9 MB


           ************************************************************
           *        Program running with 8 parallel MPI-processes     *
           *              working on a common directory               *
           ************************************************************
-------------------------------------------------------------------------------
                                 ORCA SCF
-------------------------------------------------------------------------------

------------
SCF SETTINGS
------------
Hamiltonian:
 Density Functional     Method          .... DFT(GTOs)
 Exchange Functional    Exchange        .... PBE
   PBE kappa parameter   XKappa         ....  0.804000
   PBE mue parameter    XMuePBE         ....  0.219520
 Correlation Functional Correlation     .... PBE
   PBE beta parameter  CBetaPBE         ....  0.066725
 LDA part of GGA corr.  LDAOpt          .... PW91-LDA
 Gradients option       PostSCFGGA      .... off
 Hybrid DFT is turned on
   Fraction HF Exchange ScalHFX         ....  0.250000
   Scaling of DF-GGA-X  ScalDFX         ....  0.750000
   Scaling of DF-GGA-C  ScalDFC         ....  1.000000
   Scaling of DF-LDA-C  ScalLDAC        ....  1.000000
   Perturbative correction              ....  0.000000
   Density functional embedding theory  .... OFF
   NL short-range parameter             ....  6.900000
 RI-approximation to the Coulomb term is turned on
   Number of AuxJ basis functions       .... 191
   RIJ-COSX (HFX calculated with COS-X)).... on


General Settings:
 Integral files         IntName         .... ox_gs_G_orca0004
 Hartree-Fock type      HFTyp           .... RHF
 Total Charge           Charge          ....    0
 Multiplicity           Mult            ....    1
 Number of Electrons    NEL             ....   24
 Basis Dimension        Dim             ....  117
 Nuclear Repulsion      ENuc            ....     68.0703235729 Eh

Convergence Acceleration:
 DIIS                   CNVDIIS         .... on
   Start iteration      DIISMaxIt       ....    12
   Startup error        DIISStart       ....  0.200000
   # of expansion vecs  DIISMaxEq       ....     5
   Bias factor          DIISBfac        ....   1.050
   Max. coefficient     DIISMaxC        ....  10.000
 Trust-Rad. Augm. Hess. CNVTRAH         .... auto
   Auto Start mean grad. ratio tolernc. ....  1.125000
   Auto Start start iteration           ....    20
   Auto Start num. interpolation iter.  ....    10
   Max. Number of Micro iterations      ....    16
   Max. Number of Macro iterations      .... Maxiter - #DIIS iter
   Number of Davidson start vectors     ....     2
   Converg. threshold I  (grad. norm)   ....   1.000e-05
   Converg. threshold II (energy diff.) ....   1.000e-08
   Grad. Scal. Fac. for Micro threshold ....   0.100
   Minimum threshold for Micro iter.    ....   0.010
   NR start threshold (gradient norm)   ....   0.001
   Initial trust radius                 ....   0.400
   Minimum AH scaling param. (alpha)    ....   1.000
   Maximum AH scaling param. (alpha)    .... 1000.000
   Orbital update algorithm             .... Taylor
   White noise on init. David. guess    .... on
   Maximum white noise                  ....   0.010
   Quad. conv. algorithm                .... NR
 SOSCF                  CNVSOSCF        .... on
   Start iteration      SOSCFMaxIt      ....   150
   Startup grad/error   SOSCFStart      ....  0.003300
 Level Shifting         CNVShift        .... on
   Level shift para.    LevelShift      ....    0.2500
   Turn off err/grad.   ShiftErr        ....    0.0010
 Zerner damping         CNVZerner       .... off
 Static damping         CNVDamp         .... on
   Fraction old density DampFac         ....    0.7000
   Max. Damping (<1)    DampMax         ....    0.9800
   Min. Damping (>=0)   DampMin         ....    0.0000
   Turn off err/grad.   DampErr         ....    0.1000
 Fernandez-Rico         CNVRico         .... off

SCF Procedure:
 Maximum # iterations   MaxIter         ....   125
 SCF integral mode      SCFMode         .... Direct
   Integral package                     .... SHARK and LIBINT hybrid scheme
 Reset frequency        DirectResetFreq ....    20
 Integral Threshold     Thresh          ....  2.500e-11 Eh
 Primitive CutOff       TCut            ....  2.500e-12 Eh

Convergence Tolerance:
 Convergence Check Mode ConvCheckMode   .... Total+1el-Energy
 Convergence forced     ConvForced      .... 0
 Energy Change          TolE            ....  1.000e-08 Eh
 1-El. energy change                    ....  1.000e-05 Eh
 Orbital Gradient       TolG            ....  1.000e-05
 Orbital Rotation angle TolX            ....  1.000e-05
 DIIS Error             TolErr          ....  5.000e-07


Diagonalization of the overlap matrix:
Smallest eigenvalue                        ... 6.930e-04
Time for diagonalization                   ...    0.001 sec
Threshold for overlap eigenvalues          ... 1.000e-08
Number of eigenvalues below threshold      ... 0
Time for construction of square roots      ...    0.001 sec
Total time needed                          ...    0.003 sec

Time for model grid setup =    0.022 sec

------------------------------
INITIAL GUESS: MODEL POTENTIAL
------------------------------
Loading Hartree-Fock densities                     ... done
Calculating cut-offs                               ... done
Initializing the effective Hamiltonian             ... done
Setting up the integral package (SHARK)            ... done
Starting the Coulomb interaction                   ... done (   0.0 sec)
Reading the grid                                   ... done
Mapping shells                                     ... done
Starting the XC term evaluation                    ... done (   0.0 sec)
  promolecular density results
     # of electrons  =     23.997393689
     EX              =    -19.475000501
     EC              =     -0.767286050
     EX+EC           =    -20.242286551
Transforming the Hamiltonian                       ... done (   0.0 sec)
Diagonalizing the Hamiltonian                      ... done (   0.0 sec)
Back transforming the eigenvectors                 ... done (   0.0 sec)
Now organizing SCF variables                       ... done
                      ------------------
                      INITIAL GUESS DONE (   0.0 sec)
                      ------------------
-------------------
DFT GRID GENERATION
-------------------

General Integration Accuracy     IntAcc      ... 4.388
Radial Grid Type                 RadialGrid  ... OptM3 with GC (2021)
Angular Grid (max. ang.)         AngularGrid ... 4 (Lebedev-302)
Angular grid pruning method      GridPruning ... 4 (adaptive)
Weight generation scheme         WeightScheme... Becke
Basis function cutoff            BFCut       ... 1.0000e-11
Integration weight cutoff        WCut        ... 1.0000e-14
Angular grids for H and He will be reduced by one unit
Partially contracted basis set               ... off
Rotationally invariant grid construction     ... off

Total number of grid points                  ...    31357
Total number of batches                      ...      493
Average number of points per batch           ...       63
Average number of grid points per atom       ...     4480
Time for grid setup =    0.110 sec

--------------------
COSX GRID GENERATION
--------------------

GRIDX 1
-------
General Integration Accuracy     IntAcc      ... 3.816
Radial Grid Type                 RadialGrid  ... OptM3 with GC (2021)
Angular Grid (max. ang.)         AngularGrid ... 1 (Lebedev-50)
Angular grid pruning method      GridPruning ... 4 (adaptive)
Weight generation scheme         WeightScheme... Becke
Basis function cutoff            BFCut       ... 1.0000e-11
Integration weight cutoff        WCut        ... 1.0000e-14
Angular grids for H and He will be reduced by one unit
Partially contracted basis set               ... on
Rotationally invariant grid construction     ... off

Total number of grid points                  ...     4046
Total number of batches                      ...       67
Average number of points per batch           ...       60
Average number of grid points per atom       ...      578
UseSFitting                                  ... on

GRIDX 2
-------
General Integration Accuracy     IntAcc      ... 4.020
Radial Grid Type                 RadialGrid  ... OptM3 with GC (2021)
Angular Grid (max. ang.)         AngularGrid ... 2 (Lebedev-110)
Angular grid pruning method      GridPruning ... 4 (adaptive)
Weight generation scheme         WeightScheme... Becke
Basis function cutoff            BFCut       ... 1.0000e-11
Integration weight cutoff        WCut        ... 1.0000e-14
Angular grids for H and He will be reduced by one unit
Partially contracted basis set               ... on
Rotationally invariant grid construction     ... off

Total number of grid points                  ...     8742
Total number of batches                      ...      141
Average number of points per batch           ...       62
Average number of grid points per atom       ...     1249
UseSFitting                                  ... on

GRIDX 3
-------
General Integration Accuracy     IntAcc      ... 4.338
Radial Grid Type                 RadialGrid  ... OptM3 with GC (2021)
Angular Grid (max. ang.)         AngularGrid ... 3 (Lebedev-194)
Angular grid pruning method      GridPruning ... 4 (adaptive)
Weight generation scheme         WeightScheme... Becke
Basis function cutoff            BFCut       ... 1.0000e-11
Integration weight cutoff        WCut        ... 1.0000e-14
Angular grids for H and He will be reduced by one unit
Partially contracted basis set               ... on
Rotationally invariant grid construction     ... off

Total number of grid points                  ...    19278
Total number of batches                      ...      305
Average number of points per batch           ...       63
Average number of grid points per atom       ...     2754
UseSFitting                                  ... on

Time for X-Grid setup             =    0.073 sec

--------------
SCF ITERATIONS
--------------
ITER       Energy         Delta-E        Max-DP      RMS-DP      [F,P]     Damp
               ***  Starting incremental Fock matrix formation  ***
  0   -153.1693497092   0.000000000000 0.35398723  0.00741902  0.3877835 0.7000
  1   -153.3248640009  -0.155514291692 0.08970487  0.00261188  0.0923429 0.7000
                               ***Turning on DIIS***
  2   -153.3008569046   0.024007096321 0.09027027  0.00200373  0.1199413 0.7000
  3   -153.3550801470  -0.054223242456 0.24938037  0.00535698  0.0496019 0.0000
  4   -153.4357823584  -0.080702211402 0.00725313  0.00024501  0.1113748 0.7000
  5   -153.4395213761  -0.003739017726 0.00832876  0.00028786  0.1019896 0.7000
  6   -153.4424435089  -0.002922132773 0.02527235  0.00092869  0.0941484 0.0000
  7   -153.4505938628  -0.008150353862 0.01836716  0.00054925  0.0713599 0.0000
  8   -153.4573493990  -0.006755536227 0.01479355  0.00053327  0.0371377 0.0000
  9   -153.4598369049  -0.002487505839 0.00373774  0.00017376  0.0064286 0.0000
 10   -153.4600787978  -0.000241892926 0.00513122  0.00014656  0.0049102 0.0000
                      *** Initiating the SOSCF procedure ***
                           *** Shutting down DIIS ***
                      *** Re-Reading the Fockian *** 
                      *** Removing any level shift *** 
ITER      Energy       Delta-E        Grad      Rot      Max-DP    RMS-DP
 11   -153.46019049  -0.0001116929  0.001454  0.001454  0.003416  0.000102
               *** Restarting incremental Fock matrix formation ***
 12   -153.46025894  -0.0000684521  0.001290  0.013792  0.003887  0.000204
 13   -153.46026657  -0.0000076299  0.003305  0.035663  0.011162  0.000491
 14   -153.46028797  -0.0000213981  0.002033  0.008104  0.006629  0.000219
 15   -153.46035681  -0.0000688361  0.001129  0.004477  0.003077  0.000115
 16   -153.46037403  -0.0000172196  0.000273  0.004784  0.001035  0.000060
 17   -153.46037784  -0.0000038099  0.000065  0.000962  0.000253  0.000013
 18   -153.46037817  -0.0000003288  0.000036  0.000399  0.000223  0.000009
 19   -153.46037824  -0.0000000790  0.000014  0.000118  0.000062  0.000002
 20   -153.46037825  -0.0000000060  0.000006  0.000015  0.000034  0.000001
                  ***Gradient check signals convergence***
              ***Rediagonalizing the Fockian in SOSCF/NRSCF***

               *****************************************************
               *                     SUCCESS                       *
               *           SCF CONVERGED AFTER  21 CYCLES          *
               *****************************************************

Old exchange energy                            =     -4.952346663 Eh
New exchange energy                            =     -4.952354879 Eh
Exchange energy change after final integration =     -0.000008216 Eh
Total energy after final integration           =   -153.460386468 Eh
Final COS-X integration done in                =     0.251 sec

----------------
TOTAL SCF ENERGY
----------------

Total Energy       :         -153.46038647 Eh           -4175.86941 eV

Components:
Nuclear Repulsion  :           68.07032357 Eh            1852.28767 eV
Electronic Energy  :         -221.53071004 Eh           -6028.15709 eV
One Electron Energy:         -342.89130830 Eh           -9330.54685 eV
Two Electron Energy:          121.36059826 Eh            3302.38977 eV
Max COSX asymmetry :            0.00000252 Eh               0.00007 eV

Virial components:
Potential Energy   :         -306.44292517 Eh           -8338.73593 eV
Kinetic Energy     :          152.98253870 Eh            4162.86651 eV
Virial Ratio       :            2.00312354


DFT components:
N(Alpha)           :       11.999995535892 electrons
N(Beta)            :       11.999995535892 electrons
N(Total)           :       23.999991071784 electrons
E(X)               :      -14.893735818527 Eh       
E(C)               :       -0.774541242999 Eh       
E(XC)              :      -15.668277061526 Eh       
DFET-embed. en.    :        0.000000000000 Eh       

---------------
SCF CONVERGENCE
---------------

  Last Energy change         ...   -1.6963e-09  Tolerance :   1.0000e-08
  Last MAX-Density change    ...    3.3307e-16  Tolerance :   1.0000e-07
  Last RMS-Density change    ...    1.7269e-17  Tolerance :   5.0000e-09
  Last Orbital Gradient      ...    1.5247e-06  Tolerance :   1.0000e-05
  Last Orbital Rotation      ...    7.9743e-06  Tolerance :   1.0000e-05

             **** THE GBW FILE WAS UPDATED (ox_gs_G_orca0004.gbw) ****
             **** DENSITY ox_gs_G_orca0004.scfp WAS UPDATED ****
             **** ENERGY FILE WAS UPDATED (ox_gs_G_orca0004.en.tmp) ****
             **** THE GBW FILE WAS UPDATED (ox_gs_G_orca0004.gbw) ****
             **** DENSITY ox_gs_G_orca0004.scfp WAS UPDATED ****
----------------
ORBITAL ENERGIES
----------------

  NO   OCC          E(Eh)            E(eV) 
   0   2.0000     -19.175814      -521.8004 
   1   2.0000     -10.298051      -280.2242 
   2   2.0000     -10.283666      -279.8328 
   3   2.0000      -1.033488       -28.1226 
   4   2.0000      -0.756215       -20.5777 
   5   2.0000      -0.615102       -16.7378 
   6   2.0000      -0.534022       -14.5315 
   7   2.0000      -0.480715       -13.0809 
   8   2.0000      -0.435046       -11.8382 
   9   2.0000      -0.405453       -11.0329 
  10   2.0000      -0.251427        -6.8417 
  11   2.0000      -0.221463        -6.0263 
  12   0.0000      -0.157409        -4.2833 
  13   0.0000       0.041563         1.1310 
  14   0.0000       0.073346         1.9958 
  15   0.0000       0.089346         2.4312 
  16   0.0000       0.140207         3.8152 
  17   0.0000       0.148145         4.0312 
  18   0.0000       0.192223         5.2307 
  19   0.0000       0.216720         5.8973 
  20   0.0000       0.225172         6.1272 
  21   0.0000       0.238683         6.4949 
  22   0.0000       0.242805         6.6071 
  23   0.0000       0.330336         8.9889 
  24   0.0000       0.361744         9.8436 
  25   0.0000       0.393216        10.7000 
  26   0.0000       0.402959        10.9651 
  27   0.0000       0.439560        11.9610 
  28   0.0000       0.458974        12.4893 
  29   0.0000       0.459292        12.4980 
  30   0.0000       0.501533        13.6474 
  31   0.0000       0.521040        14.1782 
  32   0.0000       0.549514        14.9530 
  33   0.0000       0.621168        16.9028 
  34   0.0000       0.638812        17.3830 
  35   0.0000       0.743577        20.2338 
  36   0.0000       0.790495        21.5105 
  37   0.0000       0.823576        22.4106 
  38   0.0000       0.898674        24.4542 
  39   0.0000       0.920946        25.0602 
  40   0.0000       0.939607        25.5680 
  41   0.0000       1.001099        27.2413 
  42   0.0000       1.102300        29.9951 
  43   0.0000       1.127231        30.6735 
  44   0.0000       1.214907        33.0593 
  45   0.0000       1.343644        36.5624 
  46   0.0000       1.421931        38.6927 
  47   0.0000       1.436849        39.0986 
  48   0.0000       1.487352        40.4729 
  49   0.0000       1.517244        41.2863 
  50   0.0000       1.538865        41.8746 
  51   0.0000       1.577871        42.9360 
  52   0.0000       1.592843        43.3435 
  53   0.0000       1.623877        44.1879 
  54   0.0000       1.709417        46.5156 
  55   0.0000       1.763580        47.9894 
  56   0.0000       1.806123        49.1471 
  57   0.0000       1.878543        51.1177 
  58   0.0000       1.927526        52.4507 
  59   0.0000       1.937794        52.7300 
  60   0.0000       1.990134        54.1543 
  61   0.0000       2.049701        55.7752 
  62   0.0000       2.083698        56.7003 
  63   0.0000       2.245801        61.1114 
  64   0.0000       2.287798        62.2542 
  65   0.0000       2.332987        63.4838 
  66   0.0000       2.382688        64.8362 
  67   0.0000       2.442249        66.4570 
  68   0.0000       2.501143        68.0596 
  69   0.0000       2.542623        69.1883 
  70   0.0000       2.562163        69.7200 
  71   0.0000       2.617367        71.2222 
  72   0.0000       2.659303        72.3633 
  73   0.0000       2.674863        72.7867 
  74   0.0000       2.759644        75.0937 
  75   0.0000       2.826307        76.9077 
  76   0.0000       2.882376        78.4334 
  77   0.0000       2.991748        81.4096 
  78   0.0000       3.018007        82.1241 
  79   0.0000       3.039404        82.7064 
  80   0.0000       3.052038        83.0502 
  81   0.0000       3.076225        83.7083 
  82   0.0000       3.083651        83.9104 
  83   0.0000       3.132603        85.2425 
  84   0.0000       3.178825        86.5002 
  85   0.0000       3.239535        88.1522 
  86   0.0000       3.314376        90.1887 
  87   0.0000       3.352011        91.2129 
  88   0.0000       3.385690        92.1293 
  89   0.0000       3.457667        94.0879 
  90   0.0000       3.512713        95.5858 
  91   0.0000       3.575950        97.3065 
  92   0.0000       3.720684       101.2450 
  93   0.0000       3.810699       103.6944 
  94   0.0000       4.003666       108.9453 
  95   0.0000       4.090255       111.3015 
  96   0.0000       4.137832       112.5961 
  97   0.0000       4.235726       115.2600 
  98   0.0000       4.254327       115.7661 
  99   0.0000       4.511558       122.7657 
 100   0.0000       4.659501       126.7915 
 101   0.0000       4.733227       128.7977 
 102   0.0000       5.195951       141.3890 
 103   0.0000       5.246993       142.7779 
 104   0.0000       5.487403       149.3198 
 105   0.0000       5.501916       149.7147 
 106   0.0000       5.927007       161.2821 
 107   0.0000       6.012274       163.6023 
 108   0.0000       6.116885       166.4489 
 109   0.0000       6.402394       174.2180 
 110   0.0000       6.411592       174.4683 
 111   0.0000       6.855802       186.5558 
 112   0.0000       6.879509       187.2009 
 113   0.0000       6.975253       189.8063 
 114   0.0000      21.977891       598.0488 
 115   0.0000      22.617059       615.4415 
 116   0.0000      43.843104      1193.0315 

                    ********************************
                    * MULLIKEN POPULATION ANALYSIS *
                    ********************************

-----------------------
MULLIKEN ATOMIC CHARGES
-----------------------
   0 O :   -0.404970
   1 C :   -0.117015
   2 C :   -0.173185
   3 H :    0.243839
   4 H :    0.131904
   5 H :    0.156139
   6 H :    0.163288
Sum of atomic charges:    0.0000000

--------------------------------
MULLIKEN REDUCED ORBITAL CHARGES
--------------------------------
  0 O s       :     3.882797  s :     3.882797
      pz      :     1.451934  p :     4.490119
      px      :     1.684118
      py      :     1.354067
      dz2     :     0.003287  d :     0.030384
      dxz     :     0.001467
      dyz     :     0.008287
      dx2y2   :     0.007484
      dxy     :     0.009860
      f0      :     0.000164  f :     0.001670
      f+1     :     0.000073
      f-1     :     0.000145
      f+2     :     0.000168
      f-2     :     0.000202
      f+3     :     0.000501
      f-3     :     0.000419
  1 C s       :     3.213831  s :     3.213831
      pz      :     1.003134  p :     2.721846
      px      :     0.877045
      py      :     0.841668
      dz2     :     0.018232  d :     0.167778
      dxz     :     0.027882
      dyz     :     0.035849
      dx2y2   :     0.049854
      dxy     :     0.035962
      f0      :     0.001422  f :     0.013559
      f+1     :     0.001649
      f-1     :     0.000325
      f+2     :     0.001162
      f-2     :     0.001489
      f+3     :     0.002205
      f-3     :     0.005307
  2 C s       :     3.321651  s :     3.321651
      pz      :     1.058508  p :     2.810215
      px      :     0.959277
      py      :     0.792430
      dz2     :     0.004199  d :     0.037811
      dxz     :     0.020425
      dyz     :     0.001601
      dx2y2   :     0.004539
      dxy     :     0.007047
      f0      :     0.000275  f :     0.003509
      f+1     :     0.000973
      f-1     :     0.000095
      f+2     :     0.000659
      f-2     :     0.000047
      f+3     :     0.000651
      f-3     :     0.000810
  3 H s       :     0.730385  s :     0.730385
      pz      :     0.010811  p :     0.025776
      px      :     0.007230
      py      :     0.007734
  4 H s       :     0.839559  s :     0.839559
      pz      :     0.011284  p :     0.028536
      px      :     0.008415
      py      :     0.008837
  5 H s       :     0.820476  s :     0.820476
      pz      :     0.010934  p :     0.023385
      px      :     0.007552
      py      :     0.004900
  6 H s       :     0.816989  s :     0.816989
      pz      :     0.009546  p :     0.019723
      px      :     0.006192
      py      :     0.003985


                     *******************************
                     * LOEWDIN POPULATION ANALYSIS *
                     *******************************

----------------------
LOEWDIN ATOMIC CHARGES
----------------------
   0 O :   -0.051117
   1 C :   -0.496128
   2 C :   -0.067983
   3 H :    0.254848
   4 H :    0.107237
   5 H :    0.111176
   6 H :    0.141967

-------------------------------
LOEWDIN REDUCED ORBITAL CHARGES
-------------------------------
  0 O s       :     3.497994  s :     3.497994
      pz      :     1.383933  p :     4.471232
      px      :     1.642617
      py      :     1.444683
      dz2     :     0.007249  d :     0.076441
      dxz     :     0.004180
      dyz     :     0.022601
      dx2y2   :     0.022454
      dxy     :     0.019957
      f0      :     0.000737  f :     0.005451
      f+1     :     0.000237
      f-1     :     0.000507
      f+2     :     0.000497
      f-2     :     0.000779
      f+3     :     0.001254
      f-3     :     0.001439
  1 C s       :     2.814404  s :     2.814404
      pz      :     1.001309  p :     2.962297
      px      :     1.009940
      py      :     0.951049
      dz2     :     0.090594  d :     0.629487
      dxz     :     0.097373
      dyz     :     0.092151
      dx2y2   :     0.200899
      dxy     :     0.148470
      f0      :     0.009910  f :     0.089939
      f+1     :     0.009402
      f-1     :     0.005745
      f+2     :     0.006792
      f-2     :     0.009913
      f+3     :     0.017393
      f-3     :     0.030784
  2 C s       :     2.970385  s :     2.970385
      pz      :     1.081917  p :     2.893680
      px      :     1.070601
      py      :     0.741163
      dz2     :     0.024553  d :     0.186389
      dxz     :     0.099038
      dyz     :     0.003586
      dx2y2   :     0.031668
      dxy     :     0.027545
      f0      :     0.002186  f :     0.017528
      f+1     :     0.003150
      f-1     :     0.000489
      f+2     :     0.003561
      f-2     :     0.000607
      f+3     :     0.003886
      f-3     :     0.003650
  3 H s       :     0.684186  s :     0.684186
      pz      :     0.027275  p :     0.060965
      px      :     0.016466
      py      :     0.017224
  4 H s       :     0.805500  s :     0.805500
      pz      :     0.035964  p :     0.087263
      px      :     0.023919
      py      :     0.027380
  5 H s       :     0.817104  s :     0.817104
      pz      :     0.034775  p :     0.071720
      px      :     0.022137
      py      :     0.014808
  6 H s       :     0.802223  s :     0.802223
      pz      :     0.028163  p :     0.055810
      px      :     0.016690
      py      :     0.010958


                      *****************************
                      * MAYER POPULATION ANALYSIS *
                      *****************************

  NA   - Mulliken gross atomic population
  ZA   - Total nuclear charge
  QA   - Mulliken gross atomic charge
  VA   - Mayer's total valence
  BVA  - Mayer's bonded valence
  FA   - Mayer's free valence

  ATOM       NA         ZA         QA         VA         BVA        FA
  0 O      8.4050     8.0000    -0.4050     1.8007     1.8007     0.0000
  1 C      6.1170     6.0000    -0.1170     4.1530     4.1530     0.0000
  2 C      6.1732     6.0000    -0.1732     3.6443     3.6443     0.0000
  3 H      0.7562     1.0000     0.2438     0.9534     0.9534     0.0000
  4 H      0.8681     1.0000     0.1319     0.9729     0.9729    -0.0000
  5 H      0.8439     1.0000     0.1561     0.9647     0.9647     0.0000
  6 H      0.8367     1.0000     0.1633     0.9639     0.9639    -0.0000

  Mayer bond orders larger than 0.100000
B(  0-O ,  1-C ) :   1.1951 B(  0-O ,  2-C ) :   0.5367 B(  1-C ,  2-C ) :   1.1508 
B(  1-C ,  3-H ) :   0.7853 B(  1-C ,  4-H ) :   0.9989 B(  2-C ,  5-H ) :   0.9465 
B(  2-C ,  6-H ) :   0.9338 

-------
TIMINGS
-------

Total SCF time: 0 days 0 hours 0 min 4 sec 

Total time                  ....       4.050 sec
Sum of individual times     ....       3.769 sec  ( 93.0%)

Fock matrix formation       ....       3.468 sec  ( 85.6%)
  Split-RI-J                ....       0.339 sec  (  9.8% of F)
  Chain of spheres X        ....       2.358 sec  ( 68.0% of F)
  XC integration            ....       0.686 sec  ( 19.8% of F)
    Basis function eval.    ....       0.189 sec  ( 27.5% of XC)
    Density eval.           ....       0.141 sec  ( 20.5% of XC)
    XC-Functional eval.     ....       0.042 sec  (  6.1% of XC)
    XC-Potential eval.      ....       0.240 sec  ( 35.0% of XC)
Diagonalization             ....       0.028 sec  (  0.7%)
Density matrix formation    ....       0.002 sec  (  0.1%)
Population analysis         ....       0.003 sec  (  0.1%)
Initial guess               ....       0.017 sec  (  0.4%)
Orbital Transformation      ....       0.000 sec  (  0.0%)
Orbital Orthonormalization  ....       0.000 sec  (  0.0%)
DIIS solution               ....       0.025 sec  (  0.6%)
SOSCF solution              ....       0.022 sec  (  0.5%)
Grid generation             ....       0.205 sec  (  5.1%)

Maximum memory used throughout the entire SCF-calculation: 61.0 MB


-------------------------------------------------------------------------------
                          DFT DISPERSION CORRECTION                            
                                                                               
                              DFTD3 V3.1  Rev 1                                
                          USING Becke-Johnson damping                          
-------------------------------------------------------------------------------
The PBE0 functional is recognized
Active option DFTDOPT                   ...         4   

molecular C6(AA) [au] = 395.118990 


            DFT-D V3
 parameters
 s6 scaling factor         :     1.0000 
 a1 scaling factor         :     0.4145 
 s8 scaling factor         :     1.2177 
 a2 scaling factor         :     4.8593 
 ad hoc parameters k1-k3   :    16.0000     1.3333    -4.0000 

 Edisp/kcal,au: -1.610398434108  -0.002566332986 
 E6   /kcal   :  -1.050035636 
 E8   /kcal   :  -0.560362798 
 % E8         :  34.796531479 

-------------------------   ----------------
Dispersion correction           -0.002566333
-------------------------   ----------------


-------------------------   --------------------
FINAL SINGLE POINT ENERGY      -153.462952801235
-------------------------   --------------------



           ************************************************************
           *        Program running with 8 parallel MPI-processes     *
           *              working on a common directory               *
           ************************************************************
------------------------------------------------------------------------------
                         ORCA SCF GRADIENT CALCULATION
------------------------------------------------------------------------------

 ... reading COSX grid (gridx3)
Gradient of the Kohn-Sham DFT energy:
Kohn-Sham wavefunction type      ... RKS
Hartree-Fock exchange scaling    ...    0.250
Number of operators              ...    1
Number of atoms                  ...    7
Basis set dimensions             ...  117
Integral neglect threshold       ... 2.5e-11
Integral primitive cutoff        ... 2.5e-12
SHARK Integral package           ... ON

Nuc. rep. gradient       (SHARK) ... done (  0.0 sec)
HCore & Overlap gradient (SHARK) ... done (  0.0 sec)
RI-J gradient            (SHARK) ... done (  0.1 sec)
COSX-gradient                    ... done (  0.3 sec)
Exchange-correlation gradient    ... done
Dispersion correction            ... done

------------------
CARTESIAN GRADIENT
------------------

   1   O   :    0.021773982   -0.086291048   -0.056372276
   2   C   :   -0.063398120   -0.024608490   -0.023581457
   3   C   :    0.012571969    0.018830217   -0.060156303
   4   H   :   -0.018629483    0.019324128    0.015980656
   5   H   :    0.017305526    0.081050907    0.077751231
   6   H   :   -0.000172505    0.014411493    0.013765606
   7   H   :    0.030662583   -0.022651988    0.032799015

Difference to translation invariance:
           :    0.0001139511    0.0000652203    0.0001864713

Difference to rotation invariance:
           :    0.0002287939    0.0004684626    0.0000240525

Norm of the cartesian gradient     ...    0.1929420171
RMS gradient                       ...    0.0421033999
MAX gradient                       ...    0.0862910476

-------
TIMINGS
-------

Total SCF gradient time            ...        0.673 sec

One electron gradient       ....       0.009 sec  (  1.4%)
RI-J Coulomb gradient       ....       0.075 sec  ( 11.2%)
COSX gradient               ....       0.300 sec  ( 44.6%)
XC gradient                 ....       0.149 sec  ( 22.1%)

Maximum memory used throughout the entire SCFGRAD-calculation: 35.9 MB

                            ***************************************
                            *     ORCA property calculations      *
                            ***************************************

                                    ---------------------
                                    Active property flags
                                    ---------------------
   (+) Dipole Moment


------------------------------------------------------------------------------
                       ORCA ELECTRIC PROPERTIES CALCULATION
------------------------------------------------------------------------------

Dipole Moment Calculation                       ... on
Quadrupole Moment Calculation                   ... off
Polarizability Calculation                      ... off
GBWName                                         ... ox_gs_G_orca0004.gbw
Electron density                                ... ox_gs_G_orca0004.scfp
The origin for moment calculation is the CENTER OF MASS  = (-1.034789, -0.077464 -0.028913)

-------------
DIPOLE MOMENT
-------------
                                X             Y             Z
Electronic contribution:     -1.23861       1.24480      -0.10153
Nuclear contribution   :      2.11349      -2.18605       0.13596
                        -----------------------------------------
Total Dipole Moment    :      0.87488      -0.94125       0.03443
                        -----------------------------------------
Magnitude (a.u.)       :      1.28552
Magnitude (Debye)      :      3.26753



--------------------
Rotational spectrum 
--------------------
 
Rotational constants in cm-1:     1.829624     0.310074     0.297505 
Rotational constants in MHz : 54850.758310  9295.799081  8918.966877 

 Dipole components along the rotational axes: 
x,y,z [a.u.] :     1.198745    -0.452167    -0.105442 
x,y,z [Debye]:     3.046968    -1.149318    -0.268012 

 

Timings for individual modules:

Sum of individual times         ...        5.395 sec (=   0.090 min)
GTO integral calculation        ...        0.301 sec (=   0.005 min)   5.6 %
SCF iterations                  ...        4.215 sec (=   0.070 min)  78.1 %
SCF Gradient evaluation         ...        0.879 sec (=   0.015 min)  16.3 %
                             ****ORCA TERMINATED NORMALLY****
TOTAL RUN TIME: 0 days 0 hours 0 minutes 5 seconds 654 msec
