
                                 *****************
                                 * O   R   C   A *
                                 *****************

                                            #,                                       
                                            ###                                      
                                            ####                                     
                                            #####                                    
                                            ######                                   
                                           ########,                                 
                                     ,,################,,,,,                         
                               ,,#################################,,                 
                          ,,##########################################,,             
                       ,#########################################, ''#####,          
                    ,#############################################,,   '####,        
                  ,##################################################,,,,####,       
                ,###########''''           ''''###############################       
              ,#####''   ,,,,##########,,,,          '''####'''          '####       
            ,##' ,,,,###########################,,,                        '##       
           ' ,,###''''                  '''############,,,                           
         ,,##''                                '''############,,,,        ,,,,,,###''
      ,#''                                            '''#######################'''  
     '                                                          ''''####''''         
             ,#######,   #######,   ,#######,      ##                                
            ,#'     '#,  ##    ##  ,#'     '#,    #''#        ######   ,####,        
            ##       ##  ##   ,#'  ##            #'  '#       #        #'  '#        
            ##       ##  #######   ##           ,######,      #####,   #    #        
            '#,     ,#'  ##    ##  '#,     ,#' ,#      #,         ##   #,  ,#        
             '#######'   ##     ##  '#######'  #'      '#     #####' # '####'        



                  #######################################################
                  #                        -***-                        #
                  #          Department of theory and spectroscopy      #
                  #    Directorship and core code : Frank Neese         #
                  #        Max Planck Institute fuer Kohlenforschung    #
                  #                Kaiser Wilhelm Platz 1               #
                  #                 D-45470 Muelheim/Ruhr               #
                  #                      Germany                        #
                  #                                                     #
                  #                  All rights reserved                #
                  #                        -***-                        #
                  #######################################################


                         Program Version 5.0.2 -  RELEASE  -


 With contributions from (in alphabetic order):
   Daniel Aravena         : Magnetic Suceptibility
   Michael Atanasov       : Ab Initio Ligand Field Theory (pilot matlab implementation)
   Alexander A. Auer      : GIAO ZORA, VPT2 properties, NMR spectrum
   Ute Becker             : Parallelization
   Giovanni Bistoni       : ED, misc. LED, open-shell LED, HFLD
   Martin Brehm           : Molecular dynamics
   Dmytro Bykov           : SCF Hessian
   Vijay G. Chilkuri      : MRCI spin determinant printing, contributions to CSF-ICE
   Dipayan Datta          : RHF DLPNO-CCSD density
   Achintya Kumar Dutta   : EOM-CC, STEOM-CC
   Dmitry Ganyushin       : Spin-Orbit,Spin-Spin,Magnetic field MRCI
   Miquel Garcia          : C-PCM and meta-GGA Hessian, CC/C-PCM, Gaussian charge scheme
   Yang Guo               : DLPNO-NEVPT2, F12-NEVPT2, CIM, IAO-localization
   Andreas Hansen         : Spin unrestricted coupled pair/coupled cluster methods
   Benjamin Helmich-Paris : MC-RPA, TRAH-SCF, COSX integrals
   Lee Huntington         : MR-EOM, pCC
   Robert Izsak           : Overlap fitted RIJCOSX, COSX-SCS-MP3, EOM
   Marcus Kettner         : VPT2
   Christian Kollmar      : KDIIS, OOCD, Brueckner-CCSD(T), CCSD density, CASPT2, CASPT2-K
   Simone Kossmann        : Meta GGA functionals, TD-DFT gradient, OOMP2, MP2 Hessian
   Martin Krupicka        : Initial AUTO-CI
   Lucas Lang             : DCDCAS
   Marvin Lechner         : AUTO-CI (C++ implementation), FIC-MRCC
   Dagmar Lenk            : GEPOL surface, SMD
   Dimitrios Liakos       : Extrapolation schemes; Compound Job, initial MDCI parallelization
   Dimitrios Manganas     : Further ROCIS development; embedding schemes
   Dimitrios Pantazis     : SARC Basis sets
   Anastasios Papadopoulos: AUTO-CI, single reference methods and gradients
   Taras Petrenko         : DFT Hessian,TD-DFT gradient, ASA, ECA, R-Raman, ABS, FL, XAS/XES, NRVS
   Peter Pinski           : DLPNO-MP2, DLPNO-MP2 Gradient
   Christoph Reimann      : Effective Core Potentials
   Marius Retegan         : Local ZFS, SOC
   Christoph Riplinger    : Optimizer, TS searches, QM/MM, DLPNO-CCSD(T), (RO)-DLPNO pert. Triples
   Tobias Risthaus        : Range-separated hybrids, TD-DFT gradient, RPA, STAB
   Michael Roemelt        : Original ROCIS implementation
   Masaaki Saitow         : Open-shell DLPNO-CCSD energy and density
   Barbara Sandhoefer     : DKH picture change effects
   Avijit Sen             : IP-ROCIS
   Kantharuban Sivalingam : CASSCF convergence, NEVPT2, FIC-MRCI
   Bernardo de Souza      : ESD, SOC TD-DFT
   Georgi Stoychev        : AutoAux, RI-MP2 NMR, DLPNO-MP2 response
   Willem Van den Heuvel  : Paramagnetic NMR
   Boris Wezisla          : Elementary symmetry handling
   Frank Wennmohs         : Technical directorship


 We gratefully acknowledge several colleagues who have allowed us to
 interface, adapt or use parts of their codes:
   Stefan Grimme, W. Hujo, H. Kruse, P. Pracht,  : VdW corrections, initial TS optimization,
                  C. Bannwarth, S. Ehlert          DFT functionals, gCP, sTDA/sTD-DF
   Ed Valeev, F. Pavosevic, A. Kumar             : LibInt (2-el integral package), F12 methods
   Garnet Chan, S. Sharma, J. Yang, R. Olivares  : DMRG
   Ulf Ekstrom                                   : XCFun DFT Library
   Mihaly Kallay                                 : mrcc  (arbitrary order and MRCC methods)
   Jiri Pittner, Ondrej Demel                    : Mk-CCSD
   Frank Weinhold                                : gennbo (NPA and NBO analysis)
   Christopher J. Cramer and Donald G. Truhlar   : smd solvation model
   Lars Goerigk                                  : TD-DFT with DH, B97 family of functionals
   V. Asgeirsson, H. Jonsson                     : NEB implementation
   FAccTs GmbH                                   : IRC, NEB, NEB-TS, DLPNO-Multilevel, CI-OPT
                                                   MM, QMMM, 2- and 3-layer-ONIOM, Crystal-QMMM,
                                                   LR-CPCM, SF, NACMEs, symmetry and pop. for TD-DFT,
                                                   nearIR, NL-DFT gradient (VV10), updates on ESD,
                                                   ML-optimized integration grids
   S Lehtola, MJT Oliveira, MAL Marques          : LibXC Library
   Liviu Ungur et al                             : ANISO software


 Your calculation uses the libint2 library for the computation of 2-el integrals
 For citations please refer to: http://libint.valeyev.net

 Your ORCA version has been built with support for libXC version: 5.1.0
 For citations please refer to: https://tddft.org/programs/libxc/

 This ORCA versions uses:
   CBLAS   interface :  Fast vector & matrix operations
   LAPACKE interface :  Fast linear algebra routines
   SCALAPACK package :  Parallel linear algebra routines
   Shared memory     :  Shared parallel matrices
   BLAS/LAPACK       :  OpenBLAS 0.3.15  USE64BITINT DYNAMIC_ARCH NO_AFFINITY SkylakeX SINGLE_THREADED
        Core in use  :  SkylakeX
   Copyright (c) 2011-2014, The OpenBLAS Project


Your calculation utilizes the atom-pairwise dispersion correction
with the Becke-Johnson damping scheme (D3BJ)
Cite in your paper:
S.Grimme, S.Ehrlich, L.Goerigk, J Comput Chem, (2011), 32, 1456–1465 
S.Grimme, J.Antony, S.Ehrlich and H.Krieg, J.Chem.Phys., 132, (2010), 154104 
   

================================================================================

----- Orbital basis set information -----
Your calculation utilizes the basis: def2-TZVP
   F. Weigend and R. Ahlrichs, Phys. Chem. Chem. Phys. 7, 3297 (2005).

----- AuxJ basis set information -----
Your calculation utilizes the auxiliary basis: def2/J
   F. Weigend, Phys. Chem. Chem. Phys. 8, 1057 (2006).

================================================================================
                                        WARNINGS
                       Please study these warnings very carefully!
================================================================================


INFO   : the flag for use of the SHARK integral package has been found!

================================================================================
                                       INPUT FILE
================================================================================
NAME = ox_gs_A_orca0007.inp
|  1> ! engrad PBE0 D3BJ def2-TZVP  
|  2> %pal nprocs 8 end
|  3> %maxcore 3000
|  4>  
|  5> *xyz 0 1 
|  6> O   -0.06602278065421381 0.7930213882808449 0.014849343661659303
|  7> C   -0.7163649474827062 -0.4296980795251512 -0.034001236078924545
|  8> C   0.7405022248580502 -0.43236686633506594 -0.03571757090131839
|  9> H   -1.170534204442762 -0.6445791639544106 0.8604110451398675
| 10> H   -1.2309950895683084 -0.7170049935113662 -0.8806219898128774
| 11> H   1.32175259895037 -0.7093049759175856 -0.8718074135377839
| 12> H   1.284461916346825 -0.6271678020002754 1.0148158191326972
| 13> *
| 14> 
| 15>                          ****END OF INPUT****
================================================================================

                     *******************************
                     * Energy+Gradient Calculation *
                     *******************************

---------------------------------
CARTESIAN COORDINATES (ANGSTROEM)
---------------------------------
  O     -0.066023    0.793021    0.014849
  C     -0.716365   -0.429698   -0.034001
  C      0.740502   -0.432367   -0.035718
  H     -1.170534   -0.644579    0.860411
  H     -1.230995   -0.717005   -0.880622
  H      1.321753   -0.709305   -0.871807
  H      1.284462   -0.627168    1.014816

----------------------------
CARTESIAN COORDINATES (A.U.)
----------------------------
  NO LB      ZA    FRAG     MASS         X           Y           Z
   0 O     8.0000    0    15.999   -0.124765    1.498593    0.028061
   1 C     6.0000    0    12.011   -1.353734   -0.812012   -0.064253
   2 C     6.0000    0    12.011    1.399346   -0.817055   -0.067496
   3 H     1.0000    0     1.008   -2.211989   -1.218078    1.625941
   4 H     1.0000    0     1.008   -2.326244   -1.354943   -1.664134
   5 H     1.0000    0     1.008    2.497750   -1.340392   -1.647477
   6 H     1.0000    0     1.008    2.427281   -1.185175    1.917724

--------------------------------
INTERNAL COORDINATES (ANGSTROEM)
--------------------------------
 O      0   0   0     0.000000000000     0.00000000     0.00000000
 C      1   0   0     1.385775670896     0.00000000     0.00000000
 C      2   1   0     1.456870627775    62.11883025     0.00000000
 H      2   1   3     1.025873736484   111.21363896   109.43206270
 H      2   1   3     1.031579442709   120.58349254   250.06380580
 H      3   2   1     1.055269131019   123.51948594   249.40403440
 H      3   2   1     1.198941180408   116.93403362    98.12492030

---------------------------
INTERNAL COORDINATES (A.U.)
---------------------------
 O      0   0   0     0.000000000000     0.00000000     0.00000000
 C      1   0   0     2.618736501045     0.00000000     0.00000000
 C      2   1   0     2.753086499048    62.11883025     0.00000000
 H      2   1   3     1.938620409938   111.21363896   109.43206270
 H      2   1   3     1.949402632104   120.58349254   250.06380580
 H      3   2   1     1.994169655207   123.51948594   249.40403440
 H      3   2   1     2.265670481650   116.93403362    98.12492030

---------------------
BASIS SET INFORMATION
---------------------
There are 3 groups of distinct atoms

 Group   1 Type O   : 11s6p2d1f contracted to 5s3p2d1f pattern {62111/411/11/1}
 Group   2 Type C   : 11s6p2d1f contracted to 5s3p2d1f pattern {62111/411/11/1}
 Group   3 Type H   : 5s1p contracted to 3s1p pattern {311/1}

Atom   0O    basis set group =>   1
Atom   1C    basis set group =>   2
Atom   2C    basis set group =>   2
Atom   3H    basis set group =>   3
Atom   4H    basis set group =>   3
Atom   5H    basis set group =>   3
Atom   6H    basis set group =>   3
---------------------------------
AUXILIARY/J BASIS SET INFORMATION
---------------------------------
There are 3 groups of distinct atoms

 Group   1 Type O   : 12s5p4d2f1g contracted to 6s4p3d1f1g pattern {711111/2111/211/2/1}
 Group   2 Type C   : 12s5p4d2f1g contracted to 6s4p3d1f1g pattern {711111/2111/211/2/1}
 Group   3 Type H   : 5s2p1d contracted to 3s1p1d pattern {311/2/1}

Atom   0O    basis set group =>   1
Atom   1C    basis set group =>   2
Atom   2C    basis set group =>   2
Atom   3H    basis set group =>   3
Atom   4H    basis set group =>   3
Atom   5H    basis set group =>   3
Atom   6H    basis set group =>   3


           ************************************************************
           *        Program running with 8 parallel MPI-processes     *
           *              working on a common directory               *
           ************************************************************
------------------------------------------------------------------------------
                           ORCA GTO INTEGRAL CALCULATION
                           -- RI-GTO INTEGRALS CHOSEN --
------------------------------------------------------------------------------
------------------------------------------------------------------------------
                   ___                                                        
                  /   \      - P O W E R E D   B Y -                         
                 /     \                                                     
                 |  |  |   _    _      __       _____    __    __             
                 |  |  |  | |  | |    /  \     |  _  \  |  |  /  |          
                  \  \/   | |  | |   /    \    | | | |  |  | /  /          
                 / \  \   | |__| |  /  /\  \   | |_| |  |  |/  /          
                |  |  |   |  __  | /  /__\  \  |    /   |      \           
                |  |  |   | |  | | |   __   |  |    \   |  |\   \          
                \     /   | |  | | |  |  |  |  | |\  \  |  | \   \       
                 \___/    |_|  |_| |__|  |__|  |_| \__\ |__|  \__/        
                                                                              
                      - O R C A' S   B I G   F R I E N D -                    
                                      &                                       
                       - I N T E G R A L  F E E D E R -                       
                                                                              
 v1 FN, 2020, v2 2021                                                         
------------------------------------------------------------------------------


Reading SHARK input file ox_gs_A_orca0007.SHARKINP.tmp ... ok
----------------------
SHARK INTEGRAL PACKAGE
----------------------

Number of atoms                             ...      7
Number of basis functions                   ...    117
Number of shells                            ...     49
Maximum angular momentum                    ...      3
Integral batch strategy                     ... SHARK/LIBINT Hybrid
RI-J (if used) integral strategy            ... SPLIT-RIJ (Revised 2003 algorithm where possible)
Printlevel                                  ...      1
Contraction scheme used                     ... SEGMENTED contraction
Coulomb Range Separation                    ... NOT USED
Exchange Range Separation                   ... NOT USED
Finite Nucleus Model                        ... NOT USED
Auxiliary Coulomb fitting basis             ... AVAILABLE
   # of basis functions in Aux-J            ...    191
   # of shells in Aux-J                     ...     65
   Maximum angular momentum in Aux-J        ...      4
Auxiliary J/K fitting basis                 ... NOT available
Auxiliary Correlation fitting basis         ... NOT available
Auxiliary 'external' fitting basis          ... NOT available
Integral threshold                          ...     2.500000e-11
Primitive cut-off                           ...     2.500000e-12
Primitive pair pre-selection threshold      ...     2.500000e-12

Calculating pre-screening integrals         ... done (  0.0 sec) Dimension = 49
Organizing shell pair data                  ... done (  0.0 sec)
Shell pair information
Total number of shell pairs                 ...      1225
Shell pairs after pre-screening             ...      1220
Total number of primitive shell pairs       ...      3648
Primitive shell pairs kept                  ...      3153
          la=0 lb=0:    373 shell pairs
          la=1 lb=0:    351 shell pairs
          la=1 lb=1:     91 shell pairs
          la=2 lb=0:    162 shell pairs
          la=2 lb=1:     78 shell pairs
          la=2 lb=2:     21 shell pairs
          la=3 lb=0:     81 shell pairs
          la=3 lb=1:     39 shell pairs
          la=3 lb=2:     18 shell pairs
          la=3 lb=3:      6 shell pairs

Calculating one electron integrals          ... done (  0.0 sec)
Calculating RI/J V-Matrix + Cholesky decomp.... done (  0.0 sec)
Calculating Nuclear repulsion               ... done (  0.0 sec) ENN=     75.630787143768 Eh

SHARK setup successfully completed in   0.1 seconds

Maximum memory used throughout the entire GTOINT-calculation: 14.9 MB


           ************************************************************
           *        Program running with 8 parallel MPI-processes     *
           *              working on a common directory               *
           ************************************************************
-------------------------------------------------------------------------------
                                 ORCA SCF
-------------------------------------------------------------------------------

------------
SCF SETTINGS
------------
Hamiltonian:
 Density Functional     Method          .... DFT(GTOs)
 Exchange Functional    Exchange        .... PBE
   PBE kappa parameter   XKappa         ....  0.804000
   PBE mue parameter    XMuePBE         ....  0.219520
 Correlation Functional Correlation     .... PBE
   PBE beta parameter  CBetaPBE         ....  0.066725
 LDA part of GGA corr.  LDAOpt          .... PW91-LDA
 Gradients option       PostSCFGGA      .... off
 Hybrid DFT is turned on
   Fraction HF Exchange ScalHFX         ....  0.250000
   Scaling of DF-GGA-X  ScalDFX         ....  0.750000
   Scaling of DF-GGA-C  ScalDFC         ....  1.000000
   Scaling of DF-LDA-C  ScalLDAC        ....  1.000000
   Perturbative correction              ....  0.000000
   Density functional embedding theory  .... OFF
   NL short-range parameter             ....  6.900000
 RI-approximation to the Coulomb term is turned on
   Number of AuxJ basis functions       .... 191
   RIJ-COSX (HFX calculated with COS-X)).... on


General Settings:
 Integral files         IntName         .... ox_gs_A_orca0007
 Hartree-Fock type      HFTyp           .... RHF
 Total Charge           Charge          ....    0
 Multiplicity           Mult            ....    1
 Number of Electrons    NEL             ....   24
 Basis Dimension        Dim             ....  117
 Nuclear Repulsion      ENuc            ....     75.6307871438 Eh

Convergence Acceleration:
 DIIS                   CNVDIIS         .... on
   Start iteration      DIISMaxIt       ....    12
   Startup error        DIISStart       ....  0.200000
   # of expansion vecs  DIISMaxEq       ....     5
   Bias factor          DIISBfac        ....   1.050
   Max. coefficient     DIISMaxC        ....  10.000
 Trust-Rad. Augm. Hess. CNVTRAH         .... auto
   Auto Start mean grad. ratio tolernc. ....  1.125000
   Auto Start start iteration           ....    20
   Auto Start num. interpolation iter.  ....    10
   Max. Number of Micro iterations      ....    16
   Max. Number of Macro iterations      .... Maxiter - #DIIS iter
   Number of Davidson start vectors     ....     2
   Converg. threshold I  (grad. norm)   ....   1.000e-05
   Converg. threshold II (energy diff.) ....   1.000e-08
   Grad. Scal. Fac. for Micro threshold ....   0.100
   Minimum threshold for Micro iter.    ....   0.010
   NR start threshold (gradient norm)   ....   0.001
   Initial trust radius                 ....   0.400
   Minimum AH scaling param. (alpha)    ....   1.000
   Maximum AH scaling param. (alpha)    .... 1000.000
   Orbital update algorithm             .... Taylor
   White noise on init. David. guess    .... on
   Maximum white noise                  ....   0.010
   Quad. conv. algorithm                .... NR
 SOSCF                  CNVSOSCF        .... on
   Start iteration      SOSCFMaxIt      ....   150
   Startup grad/error   SOSCFStart      ....  0.003300
 Level Shifting         CNVShift        .... on
   Level shift para.    LevelShift      ....    0.2500
   Turn off err/grad.   ShiftErr        ....    0.0010
 Zerner damping         CNVZerner       .... off
 Static damping         CNVDamp         .... on
   Fraction old density DampFac         ....    0.7000
   Max. Damping (<1)    DampMax         ....    0.9800
   Min. Damping (>=0)   DampMin         ....    0.0000
   Turn off err/grad.   DampErr         ....    0.1000
 Fernandez-Rico         CNVRico         .... off

SCF Procedure:
 Maximum # iterations   MaxIter         ....   125
 SCF integral mode      SCFMode         .... Direct
   Integral package                     .... SHARK and LIBINT hybrid scheme
 Reset frequency        DirectResetFreq ....    20
 Integral Threshold     Thresh          ....  2.500e-11 Eh
 Primitive CutOff       TCut            ....  2.500e-12 Eh

Convergence Tolerance:
 Convergence Check Mode ConvCheckMode   .... Total+1el-Energy
 Convergence forced     ConvForced      .... 0
 Energy Change          TolE            ....  1.000e-08 Eh
 1-El. energy change                    ....  1.000e-05 Eh
 Orbital Gradient       TolG            ....  1.000e-05
 Orbital Rotation angle TolX            ....  1.000e-05
 DIIS Error             TolErr          ....  5.000e-07


Diagonalization of the overlap matrix:
Smallest eigenvalue                        ... 3.671e-04
Time for diagonalization                   ...    0.001 sec
Threshold for overlap eigenvalues          ... 1.000e-08
Number of eigenvalues below threshold      ... 0
Time for construction of square roots      ...    0.001 sec
Total time needed                          ...    0.003 sec

Time for model grid setup =    0.022 sec

------------------------------
INITIAL GUESS: MODEL POTENTIAL
------------------------------
Loading Hartree-Fock densities                     ... done
Calculating cut-offs                               ... done
Initializing the effective Hamiltonian             ... done
Setting up the integral package (SHARK)            ... done
Starting the Coulomb interaction                   ... done (   0.0 sec)
Reading the grid                                   ... done
Mapping shells                                     ... done
Starting the XC term evaluation                    ... done (   0.0 sec)
  promolecular density results
     # of electrons  =     23.996911468
     EX              =    -19.554511576
     EC              =     -0.783418655
     EX+EC           =    -20.337930231
Transforming the Hamiltonian                       ... done (   0.0 sec)
Diagonalizing the Hamiltonian                      ... done (   0.0 sec)
Back transforming the eigenvectors                 ... done (   0.0 sec)
Now organizing SCF variables                       ... done
                      ------------------
                      INITIAL GUESS DONE (   0.0 sec)
                      ------------------
-------------------
DFT GRID GENERATION
-------------------

General Integration Accuracy     IntAcc      ... 4.388
Radial Grid Type                 RadialGrid  ... OptM3 with GC (2021)
Angular Grid (max. ang.)         AngularGrid ... 4 (Lebedev-302)
Angular grid pruning method      GridPruning ... 4 (adaptive)
Weight generation scheme         WeightScheme... Becke
Basis function cutoff            BFCut       ... 1.0000e-11
Integration weight cutoff        WCut        ... 1.0000e-14
Angular grids for H and He will be reduced by one unit
Partially contracted basis set               ... off
Rotationally invariant grid construction     ... off

Total number of grid points                  ...    31286
Total number of batches                      ...      493
Average number of points per batch           ...       63
Average number of grid points per atom       ...     4469
Time for grid setup =    0.109 sec

--------------------
COSX GRID GENERATION
--------------------

GRIDX 1
-------
General Integration Accuracy     IntAcc      ... 3.816
Radial Grid Type                 RadialGrid  ... OptM3 with GC (2021)
Angular Grid (max. ang.)         AngularGrid ... 1 (Lebedev-50)
Angular grid pruning method      GridPruning ... 4 (adaptive)
Weight generation scheme         WeightScheme... Becke
Basis function cutoff            BFCut       ... 1.0000e-11
Integration weight cutoff        WCut        ... 1.0000e-14
Angular grids for H and He will be reduced by one unit
Partially contracted basis set               ... on
Rotationally invariant grid construction     ... off

Total number of grid points                  ...     4037
Total number of batches                      ...       67
Average number of points per batch           ...       60
Average number of grid points per atom       ...      577
UseSFitting                                  ... on

GRIDX 2
-------
General Integration Accuracy     IntAcc      ... 4.020
Radial Grid Type                 RadialGrid  ... OptM3 with GC (2021)
Angular Grid (max. ang.)         AngularGrid ... 2 (Lebedev-110)
Angular grid pruning method      GridPruning ... 4 (adaptive)
Weight generation scheme         WeightScheme... Becke
Basis function cutoff            BFCut       ... 1.0000e-11
Integration weight cutoff        WCut        ... 1.0000e-14
Angular grids for H and He will be reduced by one unit
Partially contracted basis set               ... on
Rotationally invariant grid construction     ... off

Total number of grid points                  ...     8710
Total number of batches                      ...      139
Average number of points per batch           ...       62
Average number of grid points per atom       ...     1244
UseSFitting                                  ... on

GRIDX 3
-------
General Integration Accuracy     IntAcc      ... 4.338
Radial Grid Type                 RadialGrid  ... OptM3 with GC (2021)
Angular Grid (max. ang.)         AngularGrid ... 3 (Lebedev-194)
Angular grid pruning method      GridPruning ... 4 (adaptive)
Weight generation scheme         WeightScheme... Becke
Basis function cutoff            BFCut       ... 1.0000e-11
Integration weight cutoff        WCut        ... 1.0000e-14
Angular grids for H and He will be reduced by one unit
Partially contracted basis set               ... on
Rotationally invariant grid construction     ... off

Total number of grid points                  ...    19256
Total number of batches                      ...      303
Average number of points per batch           ...       63
Average number of grid points per atom       ...     2751
UseSFitting                                  ... on

Time for X-Grid setup             =    0.073 sec

--------------
SCF ITERATIONS
--------------
ITER       Energy         Delta-E        Max-DP      RMS-DP      [F,P]     Damp
               ***  Starting incremental Fock matrix formation  ***
  0   -153.5907500830   0.000000000000 0.03236449  0.00115568  0.1714726 0.7000
  1   -153.6206018096  -0.029851726616 0.01770682  0.00085713  0.0740822 0.7000
                               ***Turning on DIIS***
  2   -153.6330657429  -0.012463933247 0.02789718  0.00147016  0.0343086 0.0000
  3   -153.6529609852  -0.019895242311 0.01341872  0.00063907  0.0392419 0.0000
  4   -153.6569040683  -0.003943083075 0.00360259  0.00017570  0.0079855 0.0000
  5   -153.6570773738  -0.000173305540 0.00147796  0.00006408  0.0042187 0.0000
                      *** Initiating the SOSCF procedure ***
                           *** Shutting down DIIS ***
                      *** Re-Reading the Fockian *** 
                      *** Removing any level shift *** 
ITER      Energy       Delta-E        Grad      Rot      Max-DP    RMS-DP
  6   -153.65710336  -0.0000259874  0.000117  0.000117  0.000836  0.000030
               *** Restarting incremental Fock matrix formation ***
  7   -153.65709255   0.0000108114  0.000037  0.000072  0.000096  0.000005
  8   -153.65709251   0.0000000370  0.000064  0.000060  0.000064  0.000003
  9   -153.65709259  -0.0000000819  0.000009  0.000011  0.000022  0.000001
 10   -153.65709259   0.0000000014  0.000010  0.000006  0.000013  0.000000
                  ***Gradient check signals convergence***
              ***Rediagonalizing the Fockian in SOSCF/NRSCF***

               *****************************************************
               *                     SUCCESS                       *
               *           SCF CONVERGED AFTER  11 CYCLES          *
               *****************************************************

Old exchange energy                            =     -5.003062387 Eh
New exchange energy                            =     -5.003058348 Eh
Exchange energy change after final integration =      0.000004040 Eh
Total energy after final integration           =   -153.657088557 Eh
Final COS-X integration done in                =     0.250 sec

----------------
TOTAL SCF ENERGY
----------------

Total Energy       :         -153.65708856 Eh           -4181.22195 eV

Components:
Nuclear Repulsion  :           75.63078714 Eh            2058.01835 eV
Electronic Energy  :         -229.28787570 Eh           -6239.24029 eV
One Electron Energy:         -357.88376869 Eh           -9738.51244 eV
Two Electron Energy:          128.59589299 Eh            3499.27215 eV
Max COSX asymmetry :            0.00000156 Eh               0.00004 eV

Virial components:
Potential Energy   :         -306.73272522 Eh           -8346.62179 eV
Kinetic Energy     :          153.07563666 Eh            4165.39984 eV
Virial Ratio       :            2.00379846


DFT components:
N(Alpha)           :       12.000003430903 electrons
N(Beta)            :       12.000003430903 electrons
N(Total)           :       24.000006861807 electrons
E(X)               :      -14.977776907198 Eh       
E(C)               :       -0.791371193629 Eh       
E(XC)              :      -15.769148100827 Eh       
DFET-embed. en.    :        0.000000000000 Eh       

---------------
SCF CONVERGENCE
---------------

  Last Energy change         ...   -2.8895e-09  Tolerance :   1.0000e-08
  Last MAX-Density change    ...    1.1102e-15  Tolerance :   1.0000e-07
  Last RMS-Density change    ...    2.5476e-17  Tolerance :   5.0000e-09
  Last Orbital Gradient      ...    6.8404e-07  Tolerance :   1.0000e-05
  Last Orbital Rotation      ...    9.6040e-07  Tolerance :   1.0000e-05

             **** THE GBW FILE WAS UPDATED (ox_gs_A_orca0007.gbw) ****
             **** DENSITY ox_gs_A_orca0007.scfp WAS UPDATED ****
             **** ENERGY FILE WAS UPDATED (ox_gs_A_orca0007.en.tmp) ****
             **** THE GBW FILE WAS UPDATED (ox_gs_A_orca0007.gbw) ****
             **** DENSITY ox_gs_A_orca0007.scfp WAS UPDATED ****
----------------
ORBITAL ENERGIES
----------------

  NO   OCC          E(Eh)            E(eV) 
   0   2.0000     -19.224560      -523.1269 
   1   2.0000     -10.283360      -279.8244 
   2   2.0000     -10.260673      -279.2071 
   3   2.0000      -1.108995       -30.1773 
   4   2.0000      -0.706712       -19.2306 
   5   2.0000      -0.657897       -17.9023 
   6   2.0000      -0.535546       -14.5729 
   7   2.0000      -0.503794       -13.7089 
   8   2.0000      -0.425614       -11.5816 
   9   2.0000      -0.387440       -10.5428 
  10   2.0000      -0.331006        -9.0071 
  11   2.0000      -0.291658        -7.9364 
  12   0.0000       0.060183         1.6377 
  13   0.0000       0.069477         1.8906 
  14   0.0000       0.087110         2.3704 
  15   0.0000       0.101206         2.7539 
  16   0.0000       0.111405         3.0315 
  17   0.0000       0.156793         4.2666 
  18   0.0000       0.190070         5.1721 
  19   0.0000       0.216343         5.8870 
  20   0.0000       0.267093         7.2680 
  21   0.0000       0.270170         7.3517 
  22   0.0000       0.299572         8.1518 
  23   0.0000       0.332099         9.0369 
  24   0.0000       0.382961        10.4209 
  25   0.0000       0.391947        10.6654 
  26   0.0000       0.405817        11.0428 
  27   0.0000       0.435992        11.8639 
  28   0.0000       0.450107        12.2480 
  29   0.0000       0.466407        12.6916 
  30   0.0000       0.511026        13.9057 
  31   0.0000       0.520402        14.1609 
  32   0.0000       0.548050        14.9132 
  33   0.0000       0.692872        18.8540 
  34   0.0000       0.709533        19.3074 
  35   0.0000       0.732488        19.9320 
  36   0.0000       0.827111        22.5068 
  37   0.0000       0.882814        24.0226 
  38   0.0000       0.889383        24.2013 
  39   0.0000       0.943112        25.6634 
  40   0.0000       1.014810        27.6144 
  41   0.0000       1.036034        28.1919 
  42   0.0000       1.070649        29.1338 
  43   0.0000       1.087293        29.5867 
  44   0.0000       1.159991        31.5650 
  45   0.0000       1.356849        36.9217 
  46   0.0000       1.458291        39.6821 
  47   0.0000       1.491364        40.5821 
  48   0.0000       1.512149        41.1477 
  49   0.0000       1.519248        41.3408 
  50   0.0000       1.583173        43.0803 
  51   0.0000       1.628399        44.3110 
  52   0.0000       1.668388        45.3991 
  53   0.0000       1.701518        46.3006 
  54   0.0000       1.797239        48.9054 
  55   0.0000       1.800513        48.9944 
  56   0.0000       1.846943        50.2579 
  57   0.0000       1.907788        51.9135 
  58   0.0000       1.923502        52.3412 
  59   0.0000       1.966317        53.5062 
  60   0.0000       2.145648        58.3860 
  61   0.0000       2.158737        58.7422 
  62   0.0000       2.190310        59.6014 
  63   0.0000       2.253869        61.3309 
  64   0.0000       2.269198        61.7480 
  65   0.0000       2.420947        65.8773 
  66   0.0000       2.466782        67.1245 
  67   0.0000       2.527293        68.7711 
  68   0.0000       2.571698        69.9795 
  69   0.0000       2.591645        70.5223 
  70   0.0000       2.638310        71.7921 
  71   0.0000       2.667888        72.5969 
  72   0.0000       2.673036        72.7370 
  73   0.0000       2.698903        73.4409 
  74   0.0000       2.766639        75.2841 
  75   0.0000       2.828992        76.9808 
  76   0.0000       2.844409        77.4003 
  77   0.0000       2.941881        80.0526 
  78   0.0000       3.003526        81.7301 
  79   0.0000       3.025678        82.3329 
  80   0.0000       3.065960        83.4290 
  81   0.0000       3.102032        84.4106 
  82   0.0000       3.139855        85.4398 
  83   0.0000       3.238759        88.1311 
  84   0.0000       3.318015        90.2878 
  85   0.0000       3.342723        90.9601 
  86   0.0000       3.397656        92.4549 
  87   0.0000       3.435478        93.4841 
  88   0.0000       3.585891        97.5771 
  89   0.0000       3.637143        98.9717 
  90   0.0000       3.695273       100.5535 
  91   0.0000       3.711942       101.0071 
  92   0.0000       3.886938       105.7690 
  93   0.0000       4.057739       110.4167 
  94   0.0000       4.099975       111.5660 
  95   0.0000       4.136937       112.5718 
  96   0.0000       4.268019       116.1387 
  97   0.0000       4.329807       117.8200 
  98   0.0000       4.419178       120.2519 
  99   0.0000       4.601348       125.2090 
 100   0.0000       4.700273       127.9009 
 101   0.0000       4.874544       132.6431 
 102   0.0000       5.301602       144.2639 
 103   0.0000       5.448770       148.2686 
 104   0.0000       5.678309       154.5147 
 105   0.0000       5.774392       157.1292 
 106   0.0000       5.846723       159.0974 
 107   0.0000       5.892305       160.3378 
 108   0.0000       6.067880       165.1154 
 109   0.0000       6.604224       179.7101 
 110   0.0000       6.625584       180.2913 
 111   0.0000       6.801151       185.0687 
 112   0.0000       6.964684       189.5187 
 113   0.0000       7.181042       195.4061 
 114   0.0000      22.224705       604.7650 
 115   0.0000      22.663237       616.6980 
 116   0.0000      43.862318      1193.5543 

                    ********************************
                    * MULLIKEN POPULATION ANALYSIS *
                    ********************************

-----------------------
MULLIKEN ATOMIC CHARGES
-----------------------
   0 O :   -0.315170
   1 C :   -0.035142
   2 C :   -0.101757
   3 H :    0.102201
   4 H :    0.107589
   5 H :    0.129903
   6 H :    0.112377
Sum of atomic charges:   -0.0000000

--------------------------------
MULLIKEN REDUCED ORBITAL CHARGES
--------------------------------
  0 O s       :     3.857178  s :     3.857178
      pz      :     1.838104  p :     4.412496
      px      :     1.311489
      py      :     1.262903
      dz2     :     0.005779  d :     0.043266
      dxz     :     0.002612
      dyz     :     0.006872
      dx2y2   :     0.012364
      dxy     :     0.015639
      f0      :     0.000263  f :     0.002229
      f+1     :     0.000197
      f-1     :     0.000471
      f+2     :     0.000097
      f-2     :     0.000207
      f+3     :     0.000394
      f-3     :     0.000601
  1 C s       :     3.194080  s :     3.194080
      pz      :     1.046520  p :     2.710032
      px      :     0.905832
      py      :     0.757680
      dz2     :     0.004987  d :     0.118730
      dxz     :     0.024692
      dyz     :     0.035320
      dx2y2   :     0.030818
      dxy     :     0.022914
      f0      :     0.001731  f :     0.012301
      f+1     :     0.001329
      f-1     :     0.000773
      f+2     :     0.001437
      f-2     :     0.001722
      f+3     :     0.002035
      f-3     :     0.003274
  2 C s       :     3.239277  s :     3.239277
      pz      :     1.037861  p :     2.745771
      px      :     0.913114
      py      :     0.794796
      dz2     :     0.006527  d :     0.105477
      dxz     :     0.026573
      dyz     :     0.027139
      dx2y2   :     0.025675
      dxy     :     0.019563
      f0      :     0.001456  f :     0.011231
      f+1     :     0.001318
      f-1     :     0.000567
      f+2     :     0.001227
      f-2     :     0.001680
      f+3     :     0.002227
      f-3     :     0.002756
  3 H s       :     0.874693  s :     0.874693
      pz      :     0.011544  p :     0.023106
      px      :     0.006672
      py      :     0.004891
  4 H s       :     0.869840  s :     0.869840
      pz      :     0.010562  p :     0.022571
      px      :     0.007292
      py      :     0.004716
  5 H s       :     0.847530  s :     0.847530
      pz      :     0.010126  p :     0.022567
      px      :     0.007765
      py      :     0.004677
  6 H s       :     0.870187  s :     0.870187
      pz      :     0.009900  p :     0.017437
      px      :     0.004681
      py      :     0.002856


                     *******************************
                     * LOEWDIN POPULATION ANALYSIS *
                     *******************************

----------------------
LOEWDIN ATOMIC CHARGES
----------------------
   0 O :    0.131659
   1 C :   -0.321009
   2 C :   -0.263545
   3 H :    0.103877
   4 H :    0.103136
   5 H :    0.107900
   6 H :    0.137981

-------------------------------
LOEWDIN REDUCED ORBITAL CHARGES
-------------------------------
  0 O s       :     3.381519  s :     3.381519
      pz      :     1.719627  p :     4.385595
      px      :     1.294414
      py      :     1.371554
      dz2     :     0.011636  d :     0.094363
      dxz     :     0.007866
      dyz     :     0.015514
      dx2y2   :     0.033308
      dxy     :     0.026039
      f0      :     0.000652  f :     0.006864
      f+1     :     0.000259
      f-1     :     0.000922
      f+2     :     0.000217
      f-2     :     0.000940
      f+3     :     0.001258
      f-3     :     0.002616
  1 C s       :     2.789830  s :     2.789830
      pz      :     1.057379  p :     2.924882
      px      :     1.035075
      py      :     0.832428
      dz2     :     0.057191  d :     0.523615
      dxz     :     0.130784
      dyz     :     0.105477
      dx2y2   :     0.119663
      dxy     :     0.110499
      f0      :     0.011674  f :     0.082682
      f+1     :     0.006320
      f-1     :     0.006859
      f+2     :     0.009754
      f-2     :     0.007882
      f+3     :     0.015573
      f-3     :     0.024620
  2 C s       :     2.837710  s :     2.837710
      pz      :     1.045708  p :     2.917606
      px      :     1.038826
      py      :     0.833072
      dz2     :     0.049685  d :     0.442768
      dxz     :     0.131723
      dyz     :     0.073707
      dx2y2   :     0.095701
      dxy     :     0.091952
      f0      :     0.008584  f :     0.065461
      f+1     :     0.005334
      f-1     :     0.004957
      f+2     :     0.007236
      f-2     :     0.006647
      f+3     :     0.014309
      f-3     :     0.018395
  3 H s       :     0.825675  s :     0.825675
      pz      :     0.036156  p :     0.070448
      px      :     0.019200
      py      :     0.015092
  4 H s       :     0.827285  s :     0.827285
      pz      :     0.033750  p :     0.069579
      px      :     0.020948
      py      :     0.014881
  5 H s       :     0.823692  s :     0.823692
      pz      :     0.032509  p :     0.068408
      px      :     0.021545
      py      :     0.014354
  6 H s       :     0.815990  s :     0.815990
      pz      :     0.027109  p :     0.046029
      px      :     0.011284
      py      :     0.007636


                      *****************************
                      * MAYER POPULATION ANALYSIS *
                      *****************************

  NA   - Mulliken gross atomic population
  ZA   - Total nuclear charge
  QA   - Mulliken gross atomic charge
  VA   - Mayer's total valence
  BVA  - Mayer's bonded valence
  FA   - Mayer's free valence

  ATOM       NA         ZA         QA         VA         BVA        FA
  0 O      8.3152     8.0000    -0.3152     2.0023     2.0023     0.0000
  1 C      6.0351     6.0000    -0.0351     4.0029     4.0029    -0.0000
  2 C      6.1018     6.0000    -0.1018     3.9498     3.9498    -0.0000
  3 H      0.8978     1.0000     0.1022     0.9609     0.9609    -0.0000
  4 H      0.8924     1.0000     0.1076     0.9562     0.9562    -0.0000
  5 H      0.8701     1.0000     0.1299     0.9558     0.9558    -0.0000
  6 H      0.8876     1.0000     0.1124     0.9652     0.9652     0.0000

  Mayer bond orders larger than 0.100000
B(  0-O ,  1-C ) :   1.0023 B(  0-O ,  2-C ) :   0.9799 B(  1-C ,  2-C ) :   1.0633 
B(  1-C ,  3-H ) :   0.9662 B(  1-C ,  4-H ) :   0.9561 B(  2-C ,  5-H ) :   0.9484 
B(  2-C ,  6-H ) :   0.9495 

-------
TIMINGS
-------

Total SCF time: 0 days 0 hours 0 min 2 sec 

Total time                  ....       2.486 sec
Sum of individual times     ....       2.299 sec  ( 92.5%)

Fock matrix formation       ....       2.036 sec  ( 81.9%)
  Split-RI-J                ....       0.231 sec  ( 11.3% of F)
  Chain of spheres X        ....       1.392 sec  ( 68.4% of F)
  XC integration            ....       0.391 sec  ( 19.2% of F)
    Basis function eval.    ....       0.103 sec  ( 26.4% of XC)
    Density eval.           ....       0.079 sec  ( 20.1% of XC)
    XC-Functional eval.     ....       0.022 sec  (  5.7% of XC)
    XC-Potential eval.      ....       0.142 sec  ( 36.3% of XC)
Diagonalization             ....       0.015 sec  (  0.6%)
Density matrix formation    ....       0.001 sec  (  0.1%)
Population analysis         ....       0.002 sec  (  0.1%)
Initial guess               ....       0.017 sec  (  0.7%)
Orbital Transformation      ....       0.000 sec  (  0.0%)
Orbital Orthonormalization  ....       0.000 sec  (  0.0%)
DIIS solution               ....       0.013 sec  (  0.5%)
SOSCF solution              ....       0.010 sec  (  0.4%)
Grid generation             ....       0.205 sec  (  8.2%)

Maximum memory used throughout the entire SCF-calculation: 61.1 MB


-------------------------------------------------------------------------------
                          DFT DISPERSION CORRECTION                            
                                                                               
                              DFTD3 V3.1  Rev 1                                
                          USING Becke-Johnson damping                          
-------------------------------------------------------------------------------
The PBE0 functional is recognized
Active option DFTDOPT                   ...         4   

molecular C6(AA) [au] = 351.104931 


            DFT-D V3
 parameters
 s6 scaling factor         :     1.0000 
 a1 scaling factor         :     0.4145 
 s8 scaling factor         :     1.2177 
 a2 scaling factor         :     4.8593 
 ad hoc parameters k1-k3   :    16.0000     1.3333    -4.0000 

 Edisp/kcal,au: -1.513560445664  -0.002412011845 
 E6   /kcal   :  -0.992586275 
 E8   /kcal   :  -0.520974171 
 % E8         :  34.420440375 

-------------------------   ----------------
Dispersion correction           -0.002412012
-------------------------   ----------------


-------------------------   --------------------
FINAL SINGLE POINT ENERGY      -153.659500568512
-------------------------   --------------------



           ************************************************************
           *        Program running with 8 parallel MPI-processes     *
           *              working on a common directory               *
           ************************************************************
------------------------------------------------------------------------------
                         ORCA SCF GRADIENT CALCULATION
------------------------------------------------------------------------------

 ... reading COSX grid (gridx3)
Gradient of the Kohn-Sham DFT energy:
Kohn-Sham wavefunction type      ... RKS
Hartree-Fock exchange scaling    ...    0.250
Number of operators              ...    1
Number of atoms                  ...    7
Basis set dimensions             ...  117
Integral neglect threshold       ... 2.5e-11
Integral primitive cutoff        ... 2.5e-12
SHARK Integral package           ... ON

Nuc. rep. gradient       (SHARK) ... done (  0.0 sec)
HCore & Overlap gradient (SHARK) ... done (  0.0 sec)
RI-J gradient            (SHARK) ... done (  0.1 sec)
COSX-gradient                    ... done (  0.3 sec)
Exchange-correlation gradient    ... done
Dispersion correction            ... done

------------------
CARTESIAN GRADIENT
------------------

   1   O   :   -0.028946829    0.002621325    0.021534980
   2   C   :   -0.034387455   -0.000946854   -0.009059308
   3   C   :    0.000085459   -0.011404175   -0.082761121
   4   H   :    0.025986337    0.016490152   -0.040425713
   5   H   :    0.021716919    0.005347053    0.039376565
   6   H   :   -0.008138748   -0.005479116    0.022647072
   7   H   :    0.023836963   -0.006816753    0.048808669

Difference to translation invariance:
           :    0.0001526450   -0.0001883675    0.0001211441

Difference to rotation invariance:
           :    0.0001626984   -0.0000015056   -0.0002031046

Norm of the cartesian gradient     ...    0.1333857690
RMS gradient                       ...    0.0291071611
MAX gradient                       ...    0.0827611214

-------
TIMINGS
-------

Total SCF gradient time            ...        0.679 sec

One electron gradient       ....       0.010 sec  (  1.4%)
RI-J Coulomb gradient       ....       0.074 sec  ( 10.9%)
COSX gradient               ....       0.301 sec  ( 44.3%)
XC gradient                 ....       0.156 sec  ( 23.0%)

Maximum memory used throughout the entire SCFGRAD-calculation: 35.9 MB

                            ***************************************
                            *     ORCA property calculations      *
                            ***************************************

                                    ---------------------
                                    Active property flags
                                    ---------------------
   (+) Dipole Moment


------------------------------------------------------------------------------
                       ORCA ELECTRIC PROPERTIES CALCULATION
------------------------------------------------------------------------------

Dipole Moment Calculation                       ... on
Quadrupole Moment Calculation                   ... off
Polarizability Calculation                      ... off
GBWName                                         ... ox_gs_A_orca0007.gbw
Electron density                                ... ox_gs_A_orca0007.scfp
The origin for moment calculation is the CENTER OF MASS  = (-0.024025, -0.016573 -0.020420)

-------------
DIPOLE MOMENT
-------------
                                X             Y             Z
Electronic contribution:     -0.22131       1.72353      -0.21341
Nuclear contribution   :      0.23895      -2.48648       0.15614
                        -----------------------------------------
Total Dipole Moment    :      0.01764      -0.76295      -0.05727
                        -----------------------------------------
Magnitude (a.u.)       :      0.76530
Magnitude (Debye)      :      1.94524



--------------------
Rotational spectrum 
--------------------
 
Rotational constants in cm-1:     0.871615     0.737614     0.474349 
Rotational constants in MHz : 26130.355360 22113.125146 14220.612617 

 Dipole components along the rotational axes: 
x,y,z [a.u.] :     0.267014    -0.716897    -0.021173 
x,y,z [Debye]:     0.678696    -1.822207    -0.053819 

 

Timings for individual modules:

Sum of individual times         ...        3.935 sec (=   0.066 min)
GTO integral calculation        ...        0.313 sec (=   0.005 min)   8.0 %
SCF iterations                  ...        2.693 sec (=   0.045 min)  68.4 %
SCF Gradient evaluation         ...        0.929 sec (=   0.015 min)  23.6 %
                             ****ORCA TERMINATED NORMALLY****
TOTAL RUN TIME: 0 days 0 hours 0 minutes 4 seconds 200 msec
